47
 energy: -80.170910295986 gnorm: 0.000480227512 xtb: 6.5.1 (579679a)
C           -4.19852722128365        1.42648738436356        0.07381491295249
N           -2.83929456164209        1.20997629956115        0.57161570380549
C           -2.29854284760656        2.28867836369559        1.23569618176444
O           -3.00468357240828        3.31028713815104        1.47220163524388
C           -0.89301205430584        2.13827936402312        1.50815503339523
O           -0.15152685607134        3.27035163989531        1.68136071058523
C           -0.29340147540017        0.88609398039141        1.45018509999970
C            1.11888355334441        0.69780138312565        1.58242322498194
O            1.92981253403986        1.62883526165468        1.79693818435499
N            1.54949249412680       -0.61832088472218        1.58121483448314
C            2.97100774726479       -0.89745417103198        1.45337250792123
C            3.44690154890002       -0.70483069183881        0.02771817399838
C            3.41419174129508       -1.76537579399271       -0.87482054005476
C            3.83717868524096       -1.59495428038620       -2.18641636147958
C            4.28558429960705       -0.34521209494129       -2.57132524501740
F            4.70356079689158       -0.17174034879074       -3.84005570454060
C            4.32681966379030        0.73249616772819       -1.70536051555357
C            3.90117825849077        0.54212591863093       -0.39848935562481
N           -1.14938790299946       -0.27504723072277        1.37065673279600
C           -1.65540876430198       -0.67170680121605        2.70439056187762
C           -2.24439422102601       -0.04548546182362        0.44850899724033
C           -2.05481212690875       -0.61413726228085       -0.95637317199098
C           -1.09352429734447       -1.81316915438481       -0.91389562302428
C           -1.51761332833570        0.43634882667690       -1.94893803160038
N           -3.35983590173990       -1.08031375622562       -1.46566567239966
H           -4.23694182148607        2.34554043771091       -0.51669498472255
H           -4.50797605480972        0.58328589607797       -0.53978483502343
H           -4.88387882699149        1.53111052717797        0.92060229912456
H            0.78820657865608        2.98303961928027        1.80100961585218
H            0.93249516301515       -1.28319437638390        1.13252371830401
H            3.51224991869189       -0.22285246631024        2.12496808863800
H            3.14302744261031       -1.92880030153911        1.77352285385378
H            3.06473760098521       -2.73946377992337       -0.55296226223201
H            3.82372957933942       -2.41365464002644       -2.89362166496006
H            4.68870268477145        1.69351956511209       -2.04794106848747
H            3.92349542178997        1.37190039679892        0.29973998981550
H           -2.24055876718202        0.12799968090366        3.17686414253971
H           -2.28653513693125       -1.55114203052799        2.57618907991224
H           -0.80779004559780       -0.92231582007638        3.34373598780939
H           -0.07984615049621       -1.48977417840278       -0.67585856039295
H           -1.07975288656551       -2.31451424509737       -1.88153320527641
H           -1.41773772300778       -2.52529986154449       -0.15593880539455
H           -0.57543311566320        0.84418119777117       -1.58136420891552
H           -1.34750207386537       -0.01757557640386       -2.92564841470021
H           -2.23515728728947        1.24925886718379       -2.06444265517626
H           -3.66652987897638       -1.85450452240392       -0.89082392249063
H           -3.24165081261228       -1.43675818492177       -2.40460546219850
