      -----------------------------------------------------------      
     |                   =====================                   |     
     |                           x T B                           |     
     |                   =====================                   |     
     |                         S. Grimme                         |     
     |          Mulliken Center for Theoretical Chemistry        |     
     |                    University of Bonn                     |     
      -----------------------------------------------------------      

   * xtb version 6.5.1 (579679a) compiled by 'ehlert@majestix' on 2022-07-11

   xtb is free software: you can redistribute it and/or modify it under
   the terms of the GNU Lesser General Public License as published by
   the Free Software Foundation, either version 3 of the License, or
   (at your option) any later version.
   
   xtb is distributed in the hope that it will be useful,
   but WITHOUT ANY WARRANTY; without even the implied warranty of
   MERCHANTABILITY or FITNESS FOR A PARTICULAR PURPOSE.  See the
   GNU Lesser General Public License for more details.
   
   Cite this work as:
   * C. Bannwarth, E. Caldeweyher, S. Ehlert, A. Hansen, P. Pracht,
     J. Seibert, S. Spicher, S. Grimme, WIREs Comput. Mol. Sci., 2020, 11,
     e01493. DOI: 10.1002/wcms.1493
   
   for GFN2-xTB:
   * C. Bannwarth, S. Ehlert and S. Grimme., J. Chem. Theory Comput., 2019,
     15, 1652-1671. DOI: 10.1021/acs.jctc.8b01176
   for GFN1-xTB:
   * S. Grimme, C. Bannwarth, P. Shushkov, J. Chem. Theory Comput., 2017,
     13, 1989-2009. DOI: 10.1021/acs.jctc.7b00118
   for GFN0-xTB:
   * P. Pracht, E. Caldeweyher, S. Ehlert, S. Grimme, ChemRxiv, 2019, preprint.
     DOI: 10.26434/chemrxiv.8326202.v1
   for GFN-FF:
   * S. Spicher and S. Grimme, Angew. Chem. Int. Ed., 2020, 59, 15665-15673.
     DOI: 10.1002/anie.202004239
   
   for ALPB and GBSA implicit solvation:
   * S. Ehlert, M. Stahn, S. Spicher, S. Grimme, J. Chem. Theory Comput.,
     2021, 17, 4250-4261. DOI: 10.1021/acs.jctc.1c00471
   
   for DFT-D4:
   * E. Caldeweyher, C. Bannwarth and S. Grimme, J. Chem. Phys., 2017,
     147, 034112. DOI: 10.1063/1.4993215
   * E. Caldeweyher, S. Ehlert, A. Hansen, H. Neugebauer, S. Spicher,
     C. Bannwarth and S. Grimme, J. Chem. Phys., 2019, 150, 154122.
     DOI: 10.1063/1.5090222
   * E. Caldeweyher, J.-M. Mewes, S. Ehlert and S. Grimme, Phys. Chem. Chem. Phys.
     2020, 22, 8499-8512. DOI: 10.1039/D0CP00502A
   
   for sTDA-xTB:
   * S. Grimme and C. Bannwarth, J. Chem. Phys., 2016, 145, 054103.
     DOI: 10.1063/1.4959605
   
   in the mass-spec context:
   * V. Asgeirsson, C. Bauer and S. Grimme, Chem. Sci., 2017, 8, 4879.
     DOI: 10.1039/c7sc00601b
   * J. Koopman and S. Grimme, ACS Omega 2019, 4, 12, 15120-15133.
     DOI: 10.1021/acsomega.9b02011
   
   for metadynamics refer to:
   * S. Grimme, J. Chem. Theory Comput., 2019, 155, 2847-2862
     DOI: 10.1021/acs.jctc.9b00143
   
   for SPH calculations refer to:
   * S. Spicher and S. Grimme, J. Chem. Theory Comput., 2021, 17, 1701-1714
     DOI: 10.1021/acs.jctc.0c01306
   
   with help from (in alphabetical order)
   P. Atkinson, C. Bannwarth, F. Bohle, G. Brandenburg, E. Caldeweyher
   M. Checinski, S. Dohm, S. Ehlert, S. Ehrlich, I. Gerasimov, C. Hölzer
   A. Katbashev, J. Koopman, C. Lavigne, S. Lehtola, F. März, M. Müller,
   F. Musil, H. Neugebauer, J. Pisarek, C. Plett, P. Pracht, F. Pultar,
   J. Seibert, P. Shushkov, S. Spicher, M. Stahn, M. Steiner, T. Strunk,
   J. Stückrath, T. Rose, and J. Unsleber
   
 * started run on 2023/06/20 at 15:20:14.044     

           -------------------------------------------------
          |                Calculation Setup                |
           -------------------------------------------------

          program call               : /lustre/hpc/kemi/ree/PhD/git/ReactivityQM/dep/xtb-6.5.1/bin/xtb --gfn 1 /lustre/hpc/kemi/ree/PhD/git/ReactivityQM/calculations/R03/reac02prodE05/conf07/R03_reac02prodE05_conf07_gfn1.xyz --opt --vfukui --chrg -1 --uhf 0 --alpb DMSO
          hostname                   : node068
          coordinate file            : /lustre/hpc/kemi/ree/PhD/git/ReactivityQM/calculations/R03/reac02prodE05/conf07/R03_reac02prodE05_conf07_gfn1.xyz
          omp threads                :                     1

   ID    Z sym.   atoms
    1    6 C      1, 3, 5, 6, 8, 11-15, 17, 19, 22, 23, 26
    2    8 O      2, 4, 7, 9, 18, 24
    3    7 N      10, 16, 20, 21, 25
    4    1 H      27-46

           -------------------------------------------------
          |                 G F N 1 - x T B                 |
           -------------------------------------------------

        Reference                      10.1021/acs.jctc.7b00118
      * Hamiltonian:
        H0-scaling (s, p, d)           1.850000    2.250000    2.000000
        zeta-weighting                 0.000000
      * Dispersion:
        s8                             2.400000
        a1                             0.630000
        a2                             5.000000
        s9                             0.000000
      * Repulsion:
        kExp                           1.500000
        rExp                           1.000000
      * Coulomb:
        alpha                          2.000000
        third order                    atomic
        anisotropic                    false
      * Halogen bond correction:
        rad-scale                      1.300000
        damping                        0.440000

      * Solvation model:               ALPB
        Solvent                        DMSO
        Parameter file                 internal GFN1-xTB/ALPB
        Dielectric constant                4.6680E+01
        Reference state                gsolv [1 M gas/solution]
        Free energy shift                  7.6243E-03 Eh       4.7843E+00 kcal/mol
        Temperature                        2.9815E+02 K
        Density                            1.1000E+00 kg/L
        Solvent mass                       7.8130E+01 g/mol
        Interaction kernel             P16
        Born radius scaling (c1)           1.7672E+00
        Born radii integrator          GBOBC
        Born offset                        0.0000E+00 a0       0.0000E+00 AA
        H-bond correction              true
        Ion screening                  false
        Surface tension                    1.0000E-05 Eh       1.5569E+01 dyn/cm
        Grid points                               230 per atom

          ...................................................
          :                      SETUP                      :
          :.................................................:
          :  # basis functions                 144          :
          :  # atomic orbitals                 144          :
          :  # shells                           92          :
          :  # electrons                       142          :
          :  # halogen bonds                     0          :
          :  max. iterations                   250          :
          :  Hamiltonian                  GFN1-xTB          :
          :  restarted?                      false          :
          :  GBSA solvation                   true          :
          :  PC potential                    false          :
          :  electronic temp.          300.0000000     K    :
          :  accuracy                    1.0000000          :
          :  -> integral cutoff          0.2500000E+02      :
          :  -> integral neglect         0.1000000E-07      :
          :  -> SCF convergence          0.1000000E-05 Eh   :
          :  -> wf. convergence          0.2000000E-04 e    :
          :  Broyden damping             0.4000000          :
          ...................................................

 iter      E             dE          RMSdq      gap      omega  full diag
   1    -87.4189882 -0.874190E+02  0.856E+00    0.49       0.0  T
   2    -87.4617661 -0.427779E-01  0.528E+00    0.14       1.0  T
   3    -87.3383288  0.123437E+00  0.290E+00    0.17       1.0  T
   4    -87.6673436 -0.329015E+00  0.107E+00    0.51       1.0  T
   5    -87.5538265  0.113517E+00  0.154E+00    0.19       1.0  T
   6    -87.6978880 -0.144061E+00  0.667E-01    0.20       1.0  T
   7    -87.5582851  0.139603E+00  0.106E+00    0.12       1.0  T
   8    -87.7168506 -0.158566E+00  0.533E-01    0.11       1.0  T
   9    -87.7148755  0.197510E-02  0.541E-01    0.06       1.0  T
  10    -87.7289735 -0.140980E-01  0.392E-01    0.05       1.0  T
  11    -87.4894765  0.239497E+00  0.123E+00    0.30       1.0  T
  12    -87.7226351 -0.233159E+00  0.388E-01    0.01       1.0  T
  13    -87.7233194 -0.684256E-03  0.380E-01    0.10       1.0  T
  14    -87.7440077 -0.206883E-01  0.834E-02    0.04       1.0  T
  15    -87.7417919  0.221577E-02  0.138E-01    0.03       1.0  T
  16    -87.7450191 -0.322715E-02  0.234E-02    0.04       1.0  T
  17    -87.7439629  0.105623E-02  0.811E-02    0.03       1.0  T
  18    -87.7448281 -0.865200E-03  0.395E-02    0.04       1.0  T
  19    -87.7450695 -0.241467E-03  0.124E-02    0.04       1.2  T
  20    -87.7450894 -0.198857E-04  0.616E-03    0.04       2.4  T
  21    -87.7450952 -0.575728E-05  0.211E-03    0.04       7.0  T
  22    -87.7450951  0.458749E-07  0.215E-03    0.04       6.8  T
  23    -87.7450959 -0.742993E-06  0.592E-04    0.04      24.9  T
  24    -87.7450959 -0.591950E-07  0.102E-04    0.04     143.9  T
  25    -87.7450959 -0.148948E-08  0.405E-05    0.04     364.4  T

   *** convergence criteria satisfied after 25 iterations ***

         #    Occupation            Energy/Eh            Energy/eV
      -------------------------------------------------------------
         1        2.0000           -0.8259030             -22.4740
       ...           ...                  ...                  ...
        65        2.0000           -0.4232890             -11.5183
        66        2.0000           -0.4212084             -11.4617
        67        2.0000           -0.4130732             -11.2403
        68        2.0000           -0.4099955             -11.1565
        69        2.0000           -0.3989545             -10.8561
        70        2.0000           -0.3815724             -10.3831
        71        1.3278           -0.2849640              -7.7543 (HOMO)
        72        0.5980           -0.2835077              -7.7146 (LUMO)
        73        0.0742           -0.2812229              -7.6525
        74                         -0.2298397              -6.2543
        75                         -0.1885820              -5.1316
        76                         -0.1658658              -4.5134
       ...                                ...                  ...
       144                          0.7182661              19.5450
      -------------------------------------------------------------
                  HL-Gap            0.0014563 Eh            0.0396 eV
             Fermi-level           -0.2843172 Eh           -7.7367 eV

 SCC (total)                   0 d,  0 h,  0 min,  0.258 sec
 SCC setup                      ...        0 min,  0.002 sec (  0.801%)
 Dispersion                     ...        0 min,  0.000 sec (  0.130%)
 classical contributions        ...        0 min,  0.000 sec (  0.044%)
 integral evaluation            ...        0 min,  0.029 sec ( 11.292%)
 iterations                     ...        0 min,  0.156 sec ( 60.207%)
 molecular gradient             ...        0 min,  0.070 sec ( 26.947%)
 printout                       ...        0 min,  0.001 sec (  0.565%)

         :::::::::::::::::::::::::::::::::::::::::::::::::::::
         ::                     SUMMARY                     ::
         :::::::::::::::::::::::::::::::::::::::::::::::::::::
         :: total energy             -86.970215720073 Eh    ::
         :: total w/o Gsasa/hb       -86.949077517757 Eh    ::
         :: gradient norm              0.127861225978 Eh/a0 ::
         :: HOMO-LUMO gap              0.039626925146 eV    ::
         ::.................................................::
         :: SCC energy               -87.745095936256 Eh    ::
         :: -> electrostatic           0.444972740978 Eh    ::
         :: -> Gsolv                  -0.106924047289 Eh    ::
         ::    -> Gelec               -0.085785844973 Eh    ::
         ::    -> Gsasa               -0.024402995845 Eh    ::
         ::    -> Ghb                 -0.004359485477 Eh    ::
         ::    -> Gshift               0.007624279005 Eh    ::
         :: repulsion energy           0.805014433997 Eh    ::
         :: dispersion energy         -0.030134217814 Eh    ::
         :: halogen bond corr.         0.000000000000 Eh    ::
         :: add. restraining           0.000000000000 Eh    ::
         :: total charge              -1.000000000000 e     ::
         :::::::::::::::::::::::::::::::::::::::::::::::::::::

      ----------------------------------------------------------- 
     |                   =====================                   |
     |                        A N C O P T                        |
     |                   =====================                   |
     |               Approximate Normal Coordinate               |
     |                Rational Function Optimizer                |
      ----------------------------------------------------------- 

          ...................................................
          :                      SETUP                      :
          :.................................................:
          :   optimization level            normal          :
          :   max. optcycles                   200          :
          :   ANC micro-cycles                  20          :
          :   degrees of freedom               132          :
          :.................................................:
          :   RF solver                   davidson          :
          :   write xtbopt.log                true          :
          :   linear?                        false          :
          :   energy convergence         0.5000000E-05 Eh   :
          :   grad. convergence          0.1000000E-02 Eh/α :
          :   maximium RF displ.         1.0000000          :
          :   Hlow (freq-cutoff)         0.1000000E-01      :
          :   Hmax (freq-cutoff)         5.0000000          :
          :   S6 in model hess.         20.0000000          :
          ...................................................

generating ANC from model Hessian ...
Using Lindh-Hessian (1995)
 Shifting diagonal of input Hessian by   9.857452089878033E-003
 Lowest  eigenvalues of input Hessian
    0.000000    0.000000    0.000000    0.000000    0.000000    0.000000
    0.010000    0.010208    0.010613    0.010904    0.011620    0.011884
    0.012836    0.013804    0.014098    0.014886    0.015407    0.015784
 Highest eigenvalues
    2.001115    2.018812    2.071505    2.196539    2.275379    2.328207
 

........................................................................
.............................. CYCLE    1 ..............................
........................................................................
   1    -87.7450959 -0.877451E+02  0.109E-05    0.04       0.0  T
   2    -87.7450959  0.438338E-08  0.161E-04    0.04      91.5  T
   3    -87.7450959 -0.439481E-08  0.824E-06    0.04    1788.9  T
     SCC iter.                  ...        0 min,  0.020 sec
     gradient                   ...        0 min,  0.070 sec
 * total energy  :   -86.9702157 Eh     change       -0.2681020E-09 Eh
   gradient norm :     0.1278605 Eh/α   predicted     0.0000000E+00 (-100.00%)
   displ. norm   :     0.3436085 α      lambda       -0.1923586E-01
   maximum displ.:     0.1107001 α      in ANC's #34, #16, #29, ...

........................................................................
.............................. CYCLE    2 ..............................
........................................................................
   1    -87.7354753 -0.877355E+02  0.388E-01    0.13       0.0  T
   2    -87.4733282  0.262147E+00  0.135E+00    0.30       1.0  T
   3    -87.5735525 -0.100224E+00  0.143E+00    0.22       1.0  T
   4    -87.7460581 -0.172506E+00  0.204E-01    0.03       1.0  T
   5    -87.7444835  0.157464E-02  0.257E-01    0.10       1.0  T
   6    -87.7526165 -0.813308E-02  0.587E-02    0.06       1.0  T
   7    -87.7508344  0.178212E-02  0.115E-01    0.05       1.0  T
   8    -87.7527506 -0.191616E-02  0.225E-02    0.06       1.0  T
   9    -87.7526779  0.726813E-04  0.317E-02    0.05       1.0  T
  10    -87.7528311 -0.153247E-03  0.248E-03    0.06       6.0  T
  11    -87.7528310  0.185519E-06  0.222E-03    0.06       6.6  T
  12    -87.7528317 -0.724858E-06  0.360E-04    0.06      41.0  T
  13    -87.7528317  0.819028E-09  0.210E-04    0.06      70.1  T
  14    -87.7528317 -0.636952E-08  0.895E-05    0.06     164.8  T
  15    -87.7528317 -0.682135E-09  0.446E-05    0.06     330.8  T
     SCC iter.                  ...        0 min,  0.095 sec
     gradient                   ...        0 min,  0.069 sec
 * total energy  :   -86.9846400 Eh     change       -0.1442430E-01 Eh
   gradient norm :     0.0751065 Eh/α   predicted    -0.1076877E-01 ( -25.34%)
   displ. norm   :     0.3843730 α      lambda       -0.1172140E-01
   maximum displ.:     0.1411916 α      in ANC's #34, #16, #29, ...

........................................................................
.............................. CYCLE    3 ..............................
........................................................................
   1    -87.7449285 -0.877449E+02  0.392E-01    0.19       0.0  T
   2    -87.4625495  0.282379E+00  0.143E+00    0.62       1.0  T
   3    -87.7347342 -0.272185E+00  0.572E-01    0.12       1.0  T
   4    -87.7563061 -0.215720E-01  0.231E-01    0.03       1.0  T
   5    -87.7545998  0.170632E-02  0.264E-01    0.14       1.0  T
   6    -87.7652920 -0.106922E-01  0.231E-02    0.07       1.0  T
   7    -87.7638031  0.148883E-02  0.973E-02    0.06       1.0  T
   8    -87.7653149 -0.151179E-02  0.129E-02    0.07       1.1  T
   9    -87.7652316  0.833467E-04  0.258E-02    0.07       1.0  T
  10    -87.7653370 -0.105467E-03  0.466E-03    0.07       3.2  T
  11    -87.7653405 -0.346226E-05  0.746E-04    0.07      19.8  T
  12    -87.7653406 -0.768544E-07  0.156E-04    0.07      94.4  T
  13    -87.7653406 -0.459565E-09  0.109E-04    0.07     134.7  T
     SCC iter.                  ...        0 min,  0.083 sec
     gradient                   ...        0 min,  0.070 sec
 * total energy  :   -86.9916912 Eh     change       -0.7051171E-02 Eh
   gradient norm :     0.0314036 Eh/α   predicted    -0.6726579E-02 (  -4.60%)
   displ. norm   :     0.2492617 α      lambda       -0.1964808E-02
   maximum displ.:     0.1139278 α      in ANC's #16, #12, #23, ...

........................................................................
.............................. CYCLE    4 ..............................
........................................................................
   1    -87.7640018 -0.877640E+02  0.234E-01    0.13       0.0  T
   2    -87.4772388  0.286763E+00  0.138E+00    0.46       1.0  T
   3    -87.7682524 -0.291014E+00  0.214E-01    0.07       1.0  T
   4    -87.7702156 -0.196319E-02  0.107E-01    0.05       1.0  T
   5    -87.7713319 -0.111639E-02  0.701E-02    0.09       1.0  T
   6    -87.7720749 -0.742908E-03  0.184E-02    0.07       1.0  T
   7    -87.7721259 -0.510103E-04  0.471E-03    0.07       3.1  T
   8    -87.7721291 -0.328895E-05  0.841E-04    0.07      17.5  T
   9    -87.7721291  0.210856E-07  0.764E-04    0.07      19.3  T
  10    -87.7721292 -0.953856E-07  0.598E-05    0.07     246.6  T
  11    -87.7721292  0.340975E-09  0.669E-05    0.07     220.5  T
     SCC iter.                  ...        0 min,  0.069 sec
     gradient                   ...        0 min,  0.070 sec
 * total energy  :   -86.9931447 Eh     change       -0.1453465E-02 Eh
   gradient norm :     0.0210721 Eh/α   predicted    -0.1043542E-02 ( -28.20%)
   displ. norm   :     0.3220862 α      lambda       -0.1554380E-02
   maximum displ.:     0.1258724 α      in ANC's #16, #12, #3, ...

........................................................................
.............................. CYCLE    5 ..............................
........................................................................
   1    -87.7701668 -0.877702E+02  0.237E-01    0.13       0.0  T
   2    -87.4767574  0.293409E+00  0.140E+00    0.47       1.0  T
   3    -87.7759870 -0.299230E+00  0.170E-01    0.07       1.0  T
   4    -87.7766402 -0.653272E-03  0.102E-01    0.06       1.0  T
   5    -87.7778060 -0.116576E-02  0.583E-02    0.09       1.0  T
   6    -87.7782510 -0.445048E-03  0.256E-02    0.07       1.0  T
   7    -87.7783409 -0.898636E-04  0.985E-03    0.08       1.5  T
   8    -87.7783566 -0.156715E-04  0.643E-04    0.07      22.9  T
   9    -87.7783564  0.132838E-06  0.101E-03    0.07      14.7  T
  10    -87.7783566 -0.161170E-06  0.180E-04    0.07      81.8  T
  11    -87.7783566 -0.423803E-08  0.720E-05    0.07     204.7  T
     SCC iter.                  ...        0 min,  0.053 sec
     gradient                   ...        0 min,  0.069 sec
 * total energy  :   -86.9941751 Eh     change       -0.1030404E-02 Eh
   gradient norm :     0.0111220 Eh/α   predicted    -0.8578243E-03 ( -16.75%)
   displ. norm   :     0.2459211 α      lambda       -0.5499184E-03
   maximum displ.:     0.0860894 α      in ANC's #1, #3, #10, ...

........................................................................
.............................. CYCLE    6 ..............................
........................................................................
   1    -87.7774509 -0.877775E+02  0.141E-01    0.11       0.0  T
   2    -87.4891180  0.288333E+00  0.135E+00    0.27       1.0  T
   3    -87.7800316 -0.290914E+00  0.764E-02    0.08       1.0  T
   4    -87.7803764 -0.344768E-03  0.256E-02    0.07       1.0  T
   5    -87.7804774 -0.100951E-03  0.429E-03    0.08       3.4  T
   6    -87.7804780 -0.617660E-06  0.340E-03    0.07       4.3  T
   7    -87.7804795 -0.150793E-05  0.501E-04    0.07      29.4  T
   8    -87.7804795 -0.259122E-07  0.100E-04    0.07     147.4  T
   9    -87.7804795 -0.371941E-09  0.291E-05    0.07     506.5  T
     SCC iter.                  ...        0 min,  0.057 sec
     gradient                   ...        0 min,  0.060 sec
 * total energy  :   -86.9945765 Eh     change       -0.4014138E-03 Eh
   gradient norm :     0.0090865 Eh/α   predicted    -0.2915893E-03 ( -27.36%)
   displ. norm   :     0.2856768 α      lambda       -0.4295633E-03
   maximum displ.:     0.1164676 α      in ANC's #1, #3, #10, ...

........................................................................
.............................. CYCLE    7 ..............................
........................................................................
   1    -87.7789511 -0.877790E+02  0.111E-01    0.10       0.0  T
   2    -87.4985299  0.280421E+00  0.132E+00    0.21       1.0  T
   3    -87.7807342 -0.282204E+00  0.442E-02    0.08       1.0  T
   4    -87.7808667 -0.132505E-03  0.117E-02    0.07       1.3  T
   5    -87.7808817 -0.150413E-04  0.436E-03    0.07       3.4  T
   6    -87.7808826 -0.904034E-06  0.292E-03    0.07       5.1  T
   7    -87.7808838 -0.116236E-05  0.259E-04    0.08      57.0  T
   8    -87.7808838 -0.724486E-08  0.947E-05    0.08     155.7  T
   9    -87.7808838 -0.834859E-09  0.484E-05    0.08     304.9  T
     SCC iter.                  ...        0 min,  0.052 sec
     gradient                   ...        0 min,  0.062 sec
 * total energy  :   -86.9948927 Eh     change       -0.3162160E-03 Eh
   gradient norm :     0.0079041 Eh/α   predicted    -0.2323110E-03 ( -26.53%)
   displ. norm   :     0.3019588 α      lambda       -0.3307807E-03
   maximum displ.:     0.1349820 α      in ANC's #1, #3, #10, ...

........................................................................
.............................. CYCLE    8 ..............................
........................................................................
   1    -87.7792924 -0.877793E+02  0.814E-02    0.09       0.0  T
   2    -87.5291873  0.250105E+00  0.124E+00    0.14       1.0  T
   3    -87.7803424 -0.251155E+00  0.186E-02    0.08       1.0  T
   4    -87.7803737 -0.313409E-04  0.838E-03    0.08       1.8  T
   5    -87.7803765 -0.276381E-05  0.394E-03    0.08       3.7  T
   6    -87.7803774 -0.905411E-06  0.264E-03    0.08       5.6  T
   7    -87.7803783 -0.967400E-06  0.566E-04    0.08      26.0  T
   8    -87.7803784 -0.495122E-07  0.548E-05    0.08     269.2  T
   9    -87.7803784 -0.794103E-10  0.167E-05    0.08     884.1  T
     SCC iter.                  ...        0 min,  0.051 sec
     gradient                   ...        0 min,  0.058 sec
 * total energy  :   -86.9951389 Eh     change       -0.2461770E-03 Eh
   gradient norm :     0.0075434 Eh/α   predicted    -0.1804722E-03 ( -26.69%)
   displ. norm   :     0.3029300 α      lambda       -0.2731014E-03
   maximum displ.:     0.1452423 α      in ANC's #1, #3, #4, ...

........................................................................
.............................. CYCLE    9 ..............................
........................................................................
   1    -87.7794023 -0.877794E+02  0.631E-02    0.09       0.0  T
   2    -87.5818300  0.197572E+00  0.110E+00    0.09       1.0  T
   3    -87.7799886 -0.198159E+00  0.206E-02    0.08       1.0  T
   4    -87.7800456 -0.569326E-04  0.849E-03    0.08       1.7  T
   5    -87.7800527 -0.717461E-05  0.142E-03    0.08      10.4  T
   6    -87.7800523  0.375850E-06  0.182E-03    0.08       8.1  T
   7    -87.7800525 -0.161103E-06  0.134E-03    0.08      11.0  T
   8    -87.7800528 -0.292330E-06  0.356E-05    0.08     414.0  T
   9    -87.7800528  0.384972E-09  0.507E-05    0.08     290.7  T
     SCC iter.                  ...        0 min,  0.050 sec
     gradient                   ...        0 min,  0.058 sec
 * total energy  :   -86.9953527 Eh     change       -0.2138592E-03 Eh
   gradient norm :     0.0078336 Eh/α   predicted    -0.1490827E-03 ( -30.29%)
   displ. norm   :     0.3614835 α      lambda       -0.2889131E-03
   maximum displ.:     0.1811350 α      in ANC's #1, #3, #4, ...

........................................................................
.............................. CYCLE   10 ..............................
........................................................................
   1    -87.7791289 -0.877791E+02  0.739E-02    0.09       0.0  T
   2    -87.5519755  0.227153E+00  0.117E+00    0.11       1.0  T
   3    -87.7798009 -0.227825E+00  0.369E-02    0.08       1.0  T
   4    -87.7799581 -0.157200E-03  0.148E-02    0.08       1.0  T
   5    -87.7799874 -0.293483E-04  0.297E-03    0.08       5.0  T
   6    -87.7799884 -0.101253E-05  0.996E-04    0.08      14.8  T
   7    -87.7799884  0.840210E-07  0.105E-03    0.08      14.1  T
   8    -87.7799885 -0.178293E-06  0.491E-05    0.08     300.1  T
   9    -87.7799885  0.109695E-08  0.893E-05    0.08     165.1  T
     SCC iter.                  ...        0 min,  0.048 sec
     gradient                   ...        0 min,  0.059 sec
 * total energy  :   -86.9955802 Eh     change       -0.2274455E-03 Eh
   gradient norm :     0.0082147 Eh/α   predicted    -0.1633350E-03 ( -28.19%)
   displ. norm   :     0.4007641 α      lambda       -0.2907823E-03
   maximum displ.:     0.2090900 α      in ANC's #1, #3, #4, ...

........................................................................
.............................. CYCLE   11 ..............................
........................................................................
   1    -87.7792752 -0.877793E+02  0.827E-02    0.10       0.0  T
   2    -87.5352439  0.244031E+00  0.122E+00    0.13       1.0  T
   3    -87.7799570 -0.244713E+00  0.517E-02    0.09       1.0  T
   4    -87.7802618 -0.304857E-03  0.188E-02    0.08       1.0  T
   5    -87.7803109 -0.490154E-04  0.467E-03    0.08       3.2  T
   6    -87.7803138 -0.293833E-05  0.856E-04    0.08      17.2  T
   7    -87.7803137  0.116102E-06  0.918E-04    0.08      16.1  T
   8    -87.7803138 -0.135596E-06  0.104E-04    0.08     141.2  T
   9    -87.7803138  0.557733E-09  0.112E-04    0.08     131.1  T
     SCC iter.                  ...        0 min,  0.053 sec
     gradient                   ...        0 min,  0.057 sec
 * total energy  :   -86.9958168 Eh     change       -0.2366296E-03 Eh
   gradient norm :     0.0078378 Eh/α   predicted    -0.1687503E-03 ( -28.69%)
   displ. norm   :     0.4683838 α      lambda       -0.3129682E-03
   maximum displ.:     0.2513498 α      in ANC's #1, #3, #4, ...

........................................................................
.............................. CYCLE   12 ..............................
........................................................................
   1    -87.7791993 -0.877792E+02  0.965E-02    0.10       0.0  T
   2    -87.5108362  0.268363E+00  0.128E+00    0.16       1.0  T
   3    -87.7800981 -0.269262E+00  0.621E-02    0.09       1.0  T
   4    -87.7805458 -0.447692E-03  0.190E-02    0.08       1.0  T
   5    -87.7805957 -0.498383E-04  0.434E-03    0.08       3.4  T
   6    -87.7805978 -0.216231E-05  0.121E-03    0.08      12.2  T
   7    -87.7805978  0.650631E-07  0.806E-04    0.08      18.3  T
   8    -87.7805979 -0.100716E-06  0.138E-04    0.08     107.1  T
   9    -87.7805979 -0.180044E-08  0.742E-05    0.08     198.7  T
     SCC iter.                  ...        0 min,  0.049 sec
     gradient                   ...        0 min,  0.060 sec
 * total energy  :   -86.9960676 Eh     change       -0.2507911E-03 Eh
   gradient norm :     0.0069096 Eh/α   predicted    -0.1908152E-03 ( -23.91%)
   displ. norm   :     0.4677463 α      lambda       -0.3029318E-03
   maximum displ.:     0.2604000 α      in ANC's #1, #3, #4, ...

........................................................................
.............................. CYCLE   13 ..............................
........................................................................
   1    -87.7804744 -0.877805E+02  0.871E-02    0.10       0.0  T
   2    -87.5430053  0.237469E+00  0.120E+00    0.12       1.0  T
   3    -87.7807171 -0.237712E+00  0.807E-02    0.10       1.0  T
   4    -87.7814592 -0.742090E-03  0.227E-02    0.09       1.0  T
   5    -87.7815285 -0.693828E-04  0.795E-03    0.08       1.9  T
   6    -87.7815379 -0.933633E-05  0.143E-03    0.08      10.3  T
   7    -87.7815376  0.257938E-06  0.153E-03    0.08       9.6  T
   8    -87.7815380 -0.388240E-06  0.658E-05    0.08     223.9  T
   9    -87.7815380  0.453048E-08  0.170E-04    0.08      86.8  T
     SCC iter.                  ...        0 min,  0.046 sec
     gradient                   ...        0 min,  0.059 sec
 * total energy  :   -86.9963194 Eh     change       -0.2518088E-03 Eh
   gradient norm :     0.0065081 Eh/α   predicted    -0.1846061E-03 ( -26.69%)
   displ. norm   :     0.5624919 α      lambda       -0.3483720E-03
   maximum displ.:     0.3196063 α      in ANC's #1, #3, #4, ...

........................................................................
.............................. CYCLE   14 ..............................
........................................................................
   1    -87.7796378 -0.877796E+02  0.996E-02    0.11       0.0  T
   2    -87.5179828  0.261655E+00  0.126E+00    0.14       1.0  T
   3    -87.7799528 -0.261970E+00  0.947E-02    0.10       1.0  T
   4    -87.7809836 -0.103082E-02  0.185E-02    0.09       1.0  T
   5    -87.7810331 -0.494622E-04  0.456E-03    0.09       3.2  T
   6    -87.7810353 -0.221034E-05  0.188E-03    0.08       7.8  T
   7    -87.7810351  0.181147E-06  0.179E-03    0.08       8.2  T
   8    -87.7810356 -0.518444E-06  0.138E-04    0.08     106.5  T
   9    -87.7810356 -0.194063E-09  0.106E-04    0.08     139.1  T
     SCC iter.                  ...        0 min,  0.052 sec
     gradient                   ...        0 min,  0.064 sec
 * total energy  :   -86.9966096 Eh     change       -0.2901824E-03 Eh
   gradient norm :     0.0076309 Eh/α   predicted    -0.2293000E-03 ( -20.98%)
   displ. norm   :     0.4723382 α      lambda       -0.3359217E-03
   maximum displ.:     0.2851244 α      in ANC's #1, #3, #4, ...

........................................................................
.............................. CYCLE   15 ..............................
........................................................................
   1    -87.7829994 -0.877830E+02  0.798E-02    0.10       0.0  T
   2    -87.6748147  0.108185E+00  0.811E-01    0.03       1.0  T
   3    -87.7808803 -0.106066E+00  0.148E-01    0.12       1.0  T
   4    -87.7836069 -0.272662E-02  0.232E-02    0.09       1.0  T
   5    -87.7836798 -0.729123E-04  0.883E-03    0.09       1.7  T
   6    -87.7836919 -0.121271E-04  0.107E-03    0.09      13.8  T
   7    -87.7836910  0.890203E-06  0.236E-03    0.09       6.3  T
   8    -87.7836919 -0.854354E-06  0.611E-04    0.09      24.1  T
   9    -87.7836920 -0.549861E-07  0.176E-04    0.09      83.6  T
  10    -87.7836920 -0.434039E-08  0.654E-05    0.09     225.4  T
     SCC iter.                  ...        0 min,  0.051 sec
     gradient                   ...        0 min,  0.059 sec
 * total energy  :   -86.9968272 Eh     change       -0.2176613E-03 Eh
   gradient norm :     0.0088774 Eh/α   predicted    -0.2054354E-03 (  -5.62%)
   displ. norm   :     0.4721828 α      lambda       -0.2794617E-03
   maximum displ.:     0.2750476 α      in ANC's #1, #3, #2, ...

........................................................................
.............................. CYCLE   16 ..............................
........................................................................
   1    -87.7783816 -0.877784E+02  0.949E-02    0.11       0.0  T
   2    -87.5212699  0.257112E+00  0.125E+00    0.13       1.0  T
   3    -87.7788427 -0.257573E+00  0.876E-02    0.10       1.0  T
   4    -87.7796994 -0.856786E-03  0.967E-03    0.09       1.5  T
   5    -87.7797076 -0.813733E-05  0.582E-03    0.09       2.5  T
   6    -87.7797041  0.346799E-05  0.677E-03    0.09       2.2  T
   7    -87.7797096 -0.546927E-05  0.310E-03    0.09       4.8  T
   8    -87.7797111 -0.153562E-05  0.358E-04    0.09      41.1  T
   9    -87.7797111 -0.179864E-07  0.702E-05    0.09     210.1  T
  10    -87.7797111 -0.139607E-09  0.631E-05    0.09     233.7  T
     SCC iter.                  ...        0 min,  0.055 sec
     gradient                   ...        0 min,  0.059 sec
 * total energy  :   -86.9969987 Eh     change       -0.1714493E-03 Eh
   gradient norm :     0.0090815 Eh/α   predicted    -0.1708859E-03 (  -0.33%)
   displ. norm   :     0.3230963 α      lambda       -0.2903445E-03
   maximum displ.:     0.2100712 α      in ANC's #1, #3, #2, ...

........................................................................
.............................. CYCLE   17 ..............................
........................................................................
   1    -87.7818043 -0.877818E+02  0.795E-02    0.10       0.0  T
   2    -87.7599708  0.218335E-01  0.378E-01    0.03       1.0  T
   3    -87.7757444 -0.157736E-01  0.216E-01    0.16       1.0  T
   4    -87.7822769 -0.653256E-02  0.283E-02    0.10       1.0  T
   5    -87.7824017 -0.124778E-03  0.317E-03    0.09       4.7  T
   6    -87.7823991  0.259015E-05  0.442E-03    0.09       3.3  T
   7    -87.7824020 -0.288894E-05  0.440E-04    0.09      33.5  T
   8    -87.7824020 -0.196313E-07  0.956E-05    0.09     154.3  T
   9    -87.7824020  0.147935E-08  0.114E-04    0.09     129.8  T
     SCC iter.                  ...        0 min,  0.048 sec
     gradient                   ...        0 min,  0.060 sec
 * total energy  :   -86.9971971 Eh     change       -0.1984324E-03 Eh
   gradient norm :     0.0068082 Eh/α   predicted    -0.1603309E-03 ( -19.20%)
   displ. norm   :     0.4231957 α      lambda       -0.2270382E-03
   maximum displ.:     0.2716294 α      in ANC's #1, #3, #2, ...

........................................................................
.............................. CYCLE   18 ..............................
........................................................................
   1    -87.7804615 -0.877805E+02  0.123E-01    0.11       0.0  T
   2    -87.6253530  0.155109E+00  0.977E-01    0.06       1.0  T
   3    -87.7739235 -0.148571E+00  0.254E-01    0.16       1.0  T
   4    -87.7817123 -0.778883E-02  0.444E-02    0.10       1.0  T
   5    -87.7819912 -0.278855E-03  0.139E-02    0.10       1.1  T
   6    -87.7820224 -0.312551E-04  0.234E-03    0.09       6.3  T
   7    -87.7820188  0.364408E-05  0.499E-03    0.09       3.0  T
   8    -87.7820224 -0.367544E-05  0.153E-03    0.09       9.6  T
   9    -87.7820228 -0.358444E-06  0.351E-04    0.09      42.0  T
  10    -87.7820228 -0.195792E-07  0.607E-05    0.09     242.7  T
  11    -87.7820228 -0.107974E-09  0.532E-05    0.09     277.1  T
     SCC iter.                  ...        0 min,  0.063 sec
     gradient                   ...        0 min,  0.059 sec
 * total energy  :   -86.9973526 Eh     change       -0.1554918E-03 Eh
   gradient norm :     0.0066382 Eh/α   predicted    -0.1338503E-03 ( -13.92%)
   displ. norm   :     0.3734738 α      lambda       -0.2890264E-03
   maximum displ.:     0.2390963 α      in ANC's #1, #3, #2, ...

........................................................................
.............................. CYCLE   19 ..............................
........................................................................
   1    -87.7823151 -0.877823E+02  0.148E-01    0.12       0.0  T
   2    -87.5477540  0.234561E+00  0.120E+00    0.11       1.0  T
   3    -87.7752229 -0.227469E+00  0.281E-01    0.17       1.0  T
   4    -87.7843428 -0.911986E-02  0.479E-02    0.11       1.0  T
   5    -87.7846604 -0.317609E-03  0.151E-02    0.10       1.0  T
   6    -87.7846962 -0.357641E-04  0.408E-03    0.09       3.6  T
   7    -87.7846915  0.464683E-05  0.629E-03    0.09       2.3  T
   8    -87.7846973 -0.577146E-05  0.199E-03    0.09       7.4  T
   9    -87.7846979 -0.606709E-06  0.388E-04    0.09      38.0  T
  10    -87.7846979 -0.244320E-07  0.441E-05    0.09     334.4  T
  11    -87.7846979  0.325358E-09  0.605E-05    0.09     243.8  T
     SCC iter.                  ...        0 min,  0.071 sec
     gradient                   ...        0 min,  0.059 sec
 * total energy  :   -86.9975567 Eh     change       -0.2040375E-03 Eh
   gradient norm :     0.0091924 Eh/α   predicted    -0.1646751E-03 ( -19.29%)
   displ. norm   :     0.5993152 α      lambda       -0.3501660E-03
   maximum displ.:     0.3812144 α      in ANC's #1, #3, #2, ...

........................................................................
.............................. CYCLE   20 ..............................
........................................................................
   1    -87.7775914 -0.877776E+02  0.210E-01    0.15       0.0  T
   2    -87.4699280  0.307663E+00  0.139E+00    0.20       1.0  T
   3    -87.7685962 -0.298668E+00  0.351E-01    0.21       1.0  T
   4    -87.7818979 -0.133017E-01  0.661E-02    0.12       1.0  T
   5    -87.7825022 -0.604341E-03  0.179E-02    0.10       1.0  T
   6    -87.7825366 -0.343939E-04  0.108E-02    0.10       1.4  T
   7    -87.7825497 -0.130252E-04  0.487E-03    0.10       3.0  T
   8    -87.7825529 -0.323957E-05  0.113E-03    0.10      13.0  T
   9    -87.7825531 -0.155261E-06  0.211E-04    0.10      69.7  T
  10    -87.7825531 -0.476444E-08  0.827E-05    0.10     178.4  T
  11    -87.7825531 -0.699231E-09  0.342E-05    0.10     430.8  T
     SCC iter.                  ...        0 min,  0.058 sec
     gradient                   ...        0 min,  0.059 sec
 * total energy  :   -86.9978669 Eh     change       -0.3102001E-03 Eh
   gradient norm :     0.0117435 Eh/α   predicted    -0.2379703E-03 ( -23.28%)
   displ. norm   :     0.6287957 α      lambda       -0.6149731E-03
   maximum displ.:     0.3775724 α      in ANC's #1, #3, #8, ...
 * RMSD in coord.:     0.9822256 α      energy gain  -0.2765114E-01 Eh

generating ANC from model Hessian ...
Using Lindh-Hessian (1995)
 Shifting diagonal of input Hessian by   9.917447259855241E-003
 Lowest  eigenvalues of input Hessian
    0.000000    0.000000    0.000000    0.000000    0.000000    0.000000
    0.010000    0.010290    0.010416    0.010937    0.011164    0.012133
    0.012633    0.013838    0.014481    0.014688    0.015324    0.015948
 Highest eigenvalues
    2.002612    2.021346    2.114489    2.199045    2.293765    2.379778
 

........................................................................
.............................. CYCLE   21 ..............................
........................................................................
   1    -87.7761455 -0.877761E+02  0.257E-01    0.18       0.0  T
   2    -87.4595411  0.316604E+00  0.143E+00    0.20       1.0  T
   3    -87.7640503 -0.304509E+00  0.421E-01    0.27       1.0  T
   4    -87.7813935 -0.173432E-01  0.105E-01    0.14       1.0  T
   5    -87.7826815 -0.128797E-02  0.471E-02    0.12       1.0  T
   6    -87.7830187 -0.337219E-03  0.127E-02    0.10       1.2  T
   7    -87.7830358 -0.170940E-04  0.596E-03    0.11       2.5  T
   8    -87.7830396 -0.384288E-05  0.167E-03    0.11       8.8  T
   9    -87.7830399 -0.264608E-06  0.191E-04    0.11      77.3  T
  10    -87.7830399 -0.313497E-08  0.563E-05    0.11     262.0  T
     SCC iter.                  ...        0 min,  0.063 sec
     gradient                   ...        0 min,  0.070 sec
 * total energy  :   -86.9983446 Eh     change       -0.4777306E-03 Eh
   gradient norm :     0.0137091 Eh/α   predicted     0.0000000E+00 (-100.00%)
   displ. norm   :     0.1166334 α      lambda       -0.4567153E-03
   maximum displ.:     0.0535828 α      in ANC's #10, #8, #4, ...

........................................................................
.............................. CYCLE   22 ..............................
........................................................................
   1    -87.7833051 -0.877833E+02  0.267E-02    0.11       0.0  T
   2    -87.7802691  0.303603E-02  0.143E-01    0.07       1.0  T
   3    -87.7828528 -0.258379E-02  0.588E-02    0.12       1.0  T
   4    -87.7833600 -0.507166E-03  0.102E-02    0.11       1.4  T
   5    -87.7833710 -0.110001E-04  0.465E-03    0.11       3.2  T
   6    -87.7833737 -0.266677E-05  0.904E-04    0.11      16.3  T
   7    -87.7833738 -0.980891E-07  0.176E-04    0.11      83.8  T
   8    -87.7833738 -0.388999E-08  0.744E-05    0.11     198.1  T
     SCC iter.                  ...        0 min,  0.050 sec
     gradient                   ...        0 min,  0.069 sec
 * total energy  :   -86.9987020 Eh     change       -0.3574425E-03 Eh
   gradient norm :     0.0069512 Eh/α   predicted    -0.2314661E-03 ( -35.24%)
   displ. norm   :     0.2736185 α      lambda       -0.5521294E-03
   maximum displ.:     0.1236706 α      in ANC's #10, #8, #4, ...

........................................................................
.............................. CYCLE   23 ..............................
........................................................................
   1    -87.7823887 -0.877824E+02  0.835E-02    0.12       0.0  T
   2    -87.7100692  0.723196E-01  0.677E-01    0.02       1.0  T
   3    -87.7796343 -0.695651E-01  0.164E-01    0.16       1.0  T
   4    -87.7828596 -0.322529E-02  0.405E-02    0.12       1.0  T
   5    -87.7830411 -0.181500E-03  0.215E-02    0.11       1.0  T
   6    -87.7831115 -0.704315E-04  0.394E-03    0.11       3.7  T
   7    -87.7831124 -0.869235E-06  0.277E-03    0.11       5.3  T
   8    -87.7831136 -0.124966E-05  0.413E-04    0.11      35.7  T
   9    -87.7831136 -0.177750E-07  0.255E-04    0.11      57.9  T
  10    -87.7831137 -0.878184E-08  0.901E-05    0.11     163.6  T
  11    -87.7831137 -0.124740E-08  0.135E-05    0.11    1091.1  T
     SCC iter.                  ...        0 min,  0.069 sec
     gradient                   ...        0 min,  0.070 sec
 * total energy  :   -86.9990942 Eh     change       -0.3921781E-03 Eh
   gradient norm :     0.0069587 Eh/α   predicted    -0.2967425E-03 ( -24.33%)
   displ. norm   :     0.3432461 α      lambda       -0.4218995E-03
   maximum displ.:     0.1508039 α      in ANC's #10, #8, #4, ...

........................................................................
.............................. CYCLE   24 ..............................
........................................................................
   1    -87.7805534 -0.877806E+02  0.128E-01    0.14       0.0  T
   2    -87.5883546  0.192199E+00  0.110E+00    0.07       1.0  T
   3    -87.7758615 -0.187507E+00  0.233E-01    0.18       1.0  T
   4    -87.7818028 -0.594129E-02  0.563E-02    0.13       1.0  T
   5    -87.7821591 -0.356348E-03  0.298E-02    0.12       1.0  T
   6    -87.7822911 -0.131979E-03  0.831E-03    0.11       1.8  T
   7    -87.7822964 -0.530009E-05  0.569E-03    0.11       2.6  T
   8    -87.7823014 -0.499647E-05  0.139E-03    0.11      10.6  T
   9    -87.7823017 -0.306774E-06  0.221E-04    0.11      66.7  T
  10    -87.7823017 -0.668699E-08  0.687E-05    0.11     214.5  T
  11    -87.7823017 -0.556511E-09  0.240E-05    0.11     613.1  T
     SCC iter.                  ...        0 min,  0.068 sec
     gradient                   ...        0 min,  0.070 sec
 * total energy  :   -86.9994468 Eh     change       -0.3526104E-03 Eh
   gradient norm :     0.0117149 Eh/α   predicted    -0.2358668E-03 ( -33.11%)
   displ. norm   :     0.5981981 α      lambda       -0.7158664E-03
   maximum displ.:     0.2511505 α      in ANC's #10, #4, #8, ...

........................................................................
.............................. CYCLE   25 ..............................
........................................................................
   1    -87.7746513 -0.877747E+02  0.235E-01    0.18       0.0  T
   2    -87.4650033  0.309648E+00  0.143E+00    0.15       1.0  T
   3    -87.7647577 -0.299754E+00  0.383E-01    0.28       1.0  T
   4    -87.7786024 -0.138448E-01  0.101E-01    0.16       1.0  T
   5    -87.7796363 -0.103387E-02  0.572E-02    0.14       1.0  T
   6    -87.7801498 -0.513463E-03  0.847E-03    0.12       1.7  T
   7    -87.7801265  0.232669E-04  0.135E-02    0.11       1.1  T
   8    -87.7801542 -0.277526E-04  0.339E-03    0.11       4.3  T
   9    -87.7801559 -0.162275E-05  0.274E-04    0.12      53.9  T
  10    -87.7801559 -0.428672E-08  0.181E-04    0.11      81.3  T
  11    -87.7801559 -0.367500E-08  0.604E-05    0.11     243.9  T
     SCC iter.                  ...        0 min,  0.069 sec
     gradient                   ...        0 min,  0.071 sec
 * total energy  :   -87.0000253 Eh     change       -0.5784781E-03 Eh
   gradient norm :     0.0161331 Eh/α   predicted    -0.4860205E-03 ( -15.98%)
   displ. norm   :     0.5559988 α      lambda       -0.7654145E-03
   maximum displ.:     0.2186632 α      in ANC's #5, #10, #4, ...

........................................................................
.............................. CYCLE   26 ..............................
........................................................................
   1    -87.7745549 -0.877746E+02  0.226E-01    0.19       0.0  T
   2    -87.4687019  0.305853E+00  0.143E+00    0.14       1.0  T
   3    -87.7667901 -0.298088E+00  0.348E-01    0.28       1.0  T
   4    -87.7780903 -0.113003E-01  0.968E-02    0.17       1.0  T
   5    -87.7789512 -0.860852E-03  0.593E-02    0.15       1.0  T
   6    -87.7794950 -0.543788E-03  0.942E-03    0.12       1.6  T
   7    -87.7794580  0.369276E-04  0.172E-02    0.11       1.0  T
   8    -87.7795028 -0.447603E-04  0.419E-03    0.12       3.5  T
   9    -87.7795054 -0.260337E-05  0.189E-04    0.12      78.2  T
  10    -87.7795054  0.107402E-07  0.309E-04    0.12      47.8  T
  11    -87.7795054 -0.126948E-07  0.858E-05    0.12     171.9  T
  12    -87.7795054 -0.103948E-08  0.239E-05    0.12     617.1  T
     SCC iter.                  ...        0 min,  0.075 sec
     gradient                   ...        0 min,  0.070 sec
 * total energy  :   -87.0006222 Eh     change       -0.5969476E-03 Eh
   gradient norm :     0.0159490 Eh/α   predicted    -0.5010273E-03 ( -16.07%)
   displ. norm   :     0.4107704 α      lambda       -0.9048557E-03
   maximum displ.:     0.1993070 α      in ANC's #5, #4, #3, ...

........................................................................
.............................. CYCLE   27 ..............................
........................................................................
   1    -87.7808437 -0.877808E+02  0.171E-01    0.18       0.0  T
   2    -87.5308673  0.249976E+00  0.130E+00    0.09       1.0  T
   3    -87.7768516 -0.245984E+00  0.247E-01    0.24       1.0  T
   4    -87.7827930 -0.594141E-02  0.756E-02    0.17       1.0  T
   5    -87.7832919 -0.498915E-03  0.480E-02    0.15       1.0  T
   6    -87.7836258 -0.333881E-03  0.118E-02    0.13       1.3  T
   7    -87.7836303 -0.449985E-05  0.103E-02    0.12       1.4  T
   8    -87.7836461 -0.157699E-04  0.241E-03    0.13       6.1  T
   9    -87.7836470 -0.912677E-06  0.109E-04    0.13     135.8  T
  10    -87.7836470 -0.529454E-09  0.534E-05    0.13     276.0  T
     SCC iter.                  ...        0 min,  0.063 sec
     gradient                   ...        0 min,  0.070 sec
 * total energy  :   -87.0012196 Eh     change       -0.5973528E-03 Eh
   gradient norm :     0.0124684 Eh/α   predicted    -0.5287671E-03 ( -11.48%)
   displ. norm   :     0.5130789 α      lambda       -0.6777283E-03
   maximum displ.:     0.2513523 α      in ANC's #5, #4, #3, ...

........................................................................
.............................. CYCLE   28 ..............................
........................................................................
   1    -87.7794708 -0.877795E+02  0.154E-01    0.19       0.0  T
   2    -87.5668288  0.212642E+00  0.121E+00    0.06       1.0  T
   3    -87.7769599 -0.210131E+00  0.204E-01    0.24       1.0  T
   4    -87.7810154 -0.405545E-02  0.696E-02    0.17       1.0  T
   5    -87.7814012 -0.385811E-03  0.460E-02    0.16       1.0  T
   6    -87.7816999 -0.298661E-03  0.107E-02    0.14       1.4  T
   7    -87.7817065 -0.659805E-05  0.808E-03    0.13       1.8  T
   8    -87.7817166 -0.100909E-04  0.959E-04    0.13      15.4  T
   9    -87.7817166 -0.866151E-07  0.514E-04    0.13      28.7  T
  10    -87.7817167 -0.277667E-07  0.262E-04    0.13      56.3  T
  11    -87.7817167 -0.574086E-08  0.173E-04    0.13      85.1  T
  12    -87.7817167 -0.378151E-08  0.665E-05    0.13     221.7  T
     SCC iter.                  ...        0 min,  0.075 sec
     gradient                   ...        0 min,  0.070 sec
 * total energy  :   -87.0016944 Eh     change       -0.4748022E-03 Eh
   gradient norm :     0.0157259 Eh/α   predicted    -0.4280704E-03 (  -9.84%)
   displ. norm   :     0.3604603 α      lambda       -0.9597791E-03
   maximum displ.:     0.2092224 α      in ANC's #5, #4, #3, ...

........................................................................
.............................. CYCLE   29 ..............................
........................................................................
   1    -87.7849635 -0.877850E+02  0.570E-02    0.15       0.0  T
   2    -87.7656307  0.193328E-01  0.371E-01    0.05       1.0  T
   3    -87.7848398 -0.192091E-01  0.537E-02    0.16       1.0  T
   4    -87.7852041 -0.364384E-03  0.246E-02    0.14       1.0  T
   5    -87.7852335 -0.294024E-04  0.134E-02    0.14       1.1  T
   6    -87.7852542 -0.206858E-04  0.171E-03    0.14       8.6  T
   7    -87.7852543 -0.403057E-07  0.545E-04    0.14      27.1  T
   8    -87.7852543 -0.479878E-07  0.106E-04    0.14     139.6  T
   9    -87.7852543  0.361916E-08  0.176E-04    0.14      83.8  T
     SCC iter.                  ...        0 min,  0.056 sec
     gradient                   ...        0 min,  0.070 sec
 * total energy  :   -87.0022398 Eh     change       -0.5454249E-03 Eh
   gradient norm :     0.0146826 Eh/α   predicted    -0.5422408E-03 (  -0.58%)
   displ. norm   :     0.4919110 α      lambda       -0.6445731E-03
   maximum displ.:     0.2554691 α      in ANC's #5, #4, #3, ...

........................................................................
.............................. CYCLE   30 ..............................
........................................................................
   1    -87.7812236 -0.877812E+02  0.967E-02    0.18       0.0  T
   2    -87.6967763  0.844473E-01  0.772E-01    0.01       1.0  T
   3    -87.7806796 -0.839033E-01  0.108E-01    0.20       1.0  T
   4    -87.7818989 -0.121933E-02  0.436E-02    0.17       1.0  T
   5    -87.7820639 -0.164971E-03  0.264E-02    0.15       1.0  T
   6    -87.7821602 -0.963454E-04  0.435E-03    0.14       3.4  T
   7    -87.7821612 -0.101203E-05  0.282E-03    0.14       5.2  T
   8    -87.7821625 -0.124781E-05  0.302E-04    0.14      48.8  T
   9    -87.7821625  0.319126E-07  0.515E-04    0.14      28.6  T
  10    -87.7821625 -0.294858E-07  0.239E-04    0.14      61.8  T
  11    -87.7821625 -0.668751E-08  0.101E-04    0.14     146.5  T
  12    -87.7821625 -0.117412E-08  0.408E-05    0.14     361.2  T
     SCC iter.                  ...        0 min,  0.076 sec
     gradient                   ...        0 min,  0.071 sec
 * total energy  :   -87.0027696 Eh     change       -0.5297979E-03 Eh
   gradient norm :     0.0139498 Eh/α   predicted    -0.4002705E-03 ( -24.45%)
   displ. norm   :     0.5375282 α      lambda       -0.8480155E-03
   maximum displ.:     0.2844123 α      in ANC's #5, #3, #4, ...

........................................................................
.............................. CYCLE   31 ..............................
........................................................................
   1    -87.7817955 -0.877818E+02  0.503E-02    0.17       0.0  T
   2    -87.7652877  0.165078E-01  0.346E-01    0.06       1.0  T
   3    -87.7818472 -0.165595E-01  0.406E-02    0.17       1.0  T
   4    -87.7820267 -0.179453E-03  0.209E-02    0.15       1.0  T
   5    -87.7820501 -0.233848E-04  0.143E-02    0.15       1.0  T
   6    -87.7820748 -0.247472E-04  0.348E-03    0.15       4.2  T
   7    -87.7820761 -0.131969E-05  0.301E-04    0.14      48.9  T
   8    -87.7820761 -0.127285E-07  0.153E-04    0.14      96.5  T
   9    -87.7820761  0.233274E-08  0.176E-04    0.14      83.5  T
     SCC iter.                  ...        0 min,  0.057 sec
     gradient                   ...        0 min,  0.069 sec
 * total energy  :   -87.0033968 Eh     change       -0.6271385E-03 Eh
   gradient norm :     0.0106490 Eh/α   predicted    -0.5465362E-03 ( -12.85%)
   displ. norm   :     0.6001958 α      lambda       -0.6325639E-03
   maximum displ.:     0.3081990 α      in ANC's #5, #3, #4, ...

........................................................................
.............................. CYCLE   32 ..............................
........................................................................
   1    -87.7802486 -0.877802E+02  0.585E-02    0.18       0.0  T
   2    -87.7559229  0.243257E-01  0.420E-01    0.05       1.0  T
   3    -87.7803805 -0.244576E-01  0.413E-02    0.17       1.0  T
   4    -87.7805617 -0.181252E-03  0.253E-02    0.16       1.0  T
   5    -87.7805957 -0.339275E-04  0.163E-02    0.16       1.0  T
   6    -87.7806277 -0.320373E-04  0.363E-03    0.15       4.1  T
   7    -87.7806290 -0.134807E-05  0.414E-04    0.15      35.6  T
   8    -87.7806291 -0.152540E-07  0.274E-04    0.15      53.9  T
   9    -87.7806291  0.390605E-08  0.279E-04    0.15      52.9  T
  10    -87.7806291 -0.729933E-08  0.147E-04    0.15     100.0  T
  11    -87.7806291 -0.255987E-08  0.501E-05    0.15     294.2  T
     SCC iter.                  ...        0 min,  0.068 sec
     gradient                   ...        0 min,  0.070 sec
 * total energy  :   -87.0038872 Eh     change       -0.4904661E-03 Eh
   gradient norm :     0.0124135 Eh/α   predicted    -0.4302167E-03 ( -12.28%)
   displ. norm   :     0.5056158 α      lambda       -0.8304846E-03
   maximum displ.:     0.2813721 α      in ANC's #3, #5, #4, ...

........................................................................
.............................. CYCLE   33 ..............................
........................................................................
   1    -87.7871472 -0.877871E+02  0.339E-02    0.15       0.0  T
   2    -87.7869618  0.185347E-03  0.535E-02    0.14       1.0  T
   3    -87.7872121 -0.250281E-03  0.120E-02    0.15       1.2  T
   4    -87.7871673  0.447454E-04  0.200E-02    0.14       1.0  T
   5    -87.7872107 -0.433585E-04  0.102E-02    0.15       1.4  T
   6    -87.7872207 -0.100236E-04  0.183E-03    0.15       8.0  T
   7    -87.7872211 -0.401053E-06  0.859E-05    0.15     171.6  T
   8    -87.7872211 -0.108457E-09  0.508E-05    0.15     290.4  T
     SCC iter.                  ...        0 min,  0.051 sec
     gradient                   ...        0 min,  0.068 sec
 * total energy  :   -87.0043609 Eh     change       -0.4736331E-03 Eh
   gradient norm :     0.0114075 Eh/α   predicted    -0.5214107E-03 (  10.09%)
   displ. norm   :     0.6024892 α      lambda       -0.6194472E-03
   maximum displ.:     0.3085116 α      in ANC's #3, #5, #4, ...

........................................................................
.............................. CYCLE   34 ..............................
........................................................................
   1    -87.7845751 -0.877846E+02  0.717E-02    0.19       0.0  T
   2    -87.7587056  0.258695E-01  0.443E-01    0.05       1.0  T
   3    -87.7846633 -0.259577E-01  0.551E-02    0.19       1.0  T
   4    -87.7850001 -0.336818E-03  0.273E-02    0.17       1.0  T
   5    -87.7850635 -0.633453E-04  0.132E-02    0.16       1.1  T
   6    -87.7850825 -0.190614E-04  0.419E-03    0.15       3.5  T
   7    -87.7850846 -0.203629E-05  0.181E-03    0.15       8.1  T
   8    -87.7850851 -0.495028E-06  0.102E-04    0.15     143.9  T
   9    -87.7850851  0.270533E-08  0.155E-04    0.15      94.9  T
     SCC iter.                  ...        0 min,  0.055 sec
     gradient                   ...        0 min,  0.069 sec
 * total energy  :   -87.0047966 Eh     change       -0.4357875E-03 Eh
   gradient norm :     0.0111454 Eh/α   predicted    -0.4221507E-03 (  -3.13%)
   displ. norm   :     0.3833753 α      lambda       -0.4786153E-03
   maximum displ.:     0.2396261 α      in ANC's #3, #5, #1, ...

........................................................................
.............................. CYCLE   35 ..............................
........................................................................
   1    -87.7878233 -0.877878E+02  0.363E-02    0.17       0.0  T
   2    -87.7851117  0.271154E-02  0.154E-01    0.10       1.0  T
   3    -87.7878818 -0.277007E-02  0.221E-02    0.17       1.0  T
   4    -87.7879495 -0.677465E-04  0.484E-03    0.16       3.0  T
   5    -87.7879509 -0.138753E-05  0.200E-03    0.16       7.4  T
   6    -87.7879500  0.895405E-06  0.259E-03    0.16       5.7  T
   7    -87.7879509 -0.902916E-06  0.417E-04    0.16      35.4  T
   8    -87.7879510 -0.223890E-07  0.459E-05    0.16     321.3  T
   9    -87.7879510 -0.837872E-10  0.212E-05    0.16     696.8  T
     SCC iter.                  ...        0 min,  0.056 sec
     gradient                   ...        0 min,  0.070 sec
 * total energy  :   -87.0051737 Eh     change       -0.3770101E-03 Eh
   gradient norm :     0.0099238 Eh/α   predicted    -0.2744855E-03 ( -27.19%)
   displ. norm   :     0.5106737 α      lambda       -0.5892780E-03
   maximum displ.:     0.3393632 α      in ANC's #3, #5, #1, ...

........................................................................
.............................. CYCLE   36 ..............................
........................................................................
   1    -87.7891993 -0.877892E+02  0.265E-02    0.17       0.0  T
   2    -87.7885596  0.639769E-03  0.809E-02    0.13       1.0  T
   3    -87.7892253 -0.665750E-03  0.151E-02    0.17       1.0  T
   4    -87.7892527 -0.273548E-04  0.606E-03    0.16       2.4  T
   5    -87.7892563 -0.359545E-05  0.234E-03    0.16       6.3  T
   6    -87.7892562  0.110757E-06  0.132E-03    0.16      11.1  T
   7    -87.7892564 -0.213318E-06  0.144E-04    0.16     102.1  T
   8    -87.7892564 -0.116005E-08  0.539E-05    0.16     273.5  T
     SCC iter.                  ...        0 min,  0.051 sec
     gradient                   ...        0 min,  0.070 sec
 * total energy  :   -87.0056530 Eh     change       -0.4793578E-03 Eh
   gradient norm :     0.0088398 Eh/α   predicted    -0.3714762E-03 ( -22.51%)
   displ. norm   :     0.6783011 α      lambda       -0.6413100E-03
   maximum displ.:     0.4635361 α      in ANC's #3, #5, #2, ...

........................................................................
.............................. CYCLE   37 ..............................
........................................................................
   1    -87.7883086 -0.877883E+02  0.293E-02    0.16       0.0  T
   2    -87.7877402  0.568362E-03  0.844E-02    0.13       1.0  T
   3    -87.7883510 -0.610824E-03  0.175E-02    0.17       1.0  T
   4    -87.7883829 -0.318421E-04  0.816E-03    0.15       1.8  T
   5    -87.7883886 -0.570528E-05  0.283E-03    0.16       5.2  T
   6    -87.7883887 -0.104975E-06  0.110E-03    0.16      13.4  T
   7    -87.7883888 -0.109487E-06  0.253E-04    0.16      58.2  T
   8    -87.7883888 -0.356589E-08  0.605E-05    0.16     243.7  T
   9    -87.7883888 -0.835882E-10  0.266E-05    0.16     554.5  T
     SCC iter.                  ...        0 min,  0.056 sec
     gradient                   ...        0 min,  0.069 sec
 * total energy  :   -87.0061612 Eh     change       -0.5081764E-03 Eh
   gradient norm :     0.0089635 Eh/α   predicted    -0.4681903E-03 (  -7.87%)
   displ. norm   :     0.6210571 α      lambda       -0.5896618E-03
   maximum displ.:     0.4392509 α      in ANC's #3, #2, #5, ...

........................................................................
.............................. CYCLE   38 ..............................
........................................................................
   1    -87.7875903 -0.877876E+02  0.465E-02    0.18       0.0  T
   2    -87.7840274  0.356292E-02  0.184E-01    0.10       1.0  T
   3    -87.7876911 -0.366374E-02  0.310E-02    0.18       1.0  T
   4    -87.7878082 -0.117063E-03  0.667E-03    0.16       2.2  T
   5    -87.7878049  0.323159E-05  0.734E-03    0.16       2.0  T
   6    -87.7878056 -0.657228E-06  0.524E-03    0.16       2.8  T
   7    -87.7878089 -0.325821E-05  0.905E-04    0.16      16.3  T
   8    -87.7878089 -0.906068E-07  0.149E-04    0.16      99.2  T
   9    -87.7878089 -0.325855E-09  0.988E-05    0.16     149.3  T
     SCC iter.                  ...        0 min,  0.056 sec
     gradient                   ...        0 min,  0.069 sec
 * total energy  :   -87.0065908 Eh     change       -0.4296037E-03 Eh
   gradient norm :     0.0075567 Eh/α   predicted    -0.4085514E-03 (  -4.90%)
   displ. norm   :     0.6688795 α      lambda       -0.4581678E-03
   maximum displ.:     0.4510982 α      in ANC's #3, #2, #5, ...

........................................................................
.............................. CYCLE   39 ..............................
........................................................................
   1    -87.7829291 -0.877829E+02  0.460E-02    0.19       0.0  T
   2    -87.7789589  0.397020E-02  0.189E-01    0.10       1.0  T
   3    -87.7830723 -0.411341E-02  0.238E-02    0.18       1.0  T
   4    -87.7831438 -0.715003E-04  0.569E-03    0.17       2.6  T
   5    -87.7831439 -0.303014E-07  0.474E-03    0.16       3.1  T
   6    -87.7831421  0.174506E-05  0.484E-03    0.16       3.0  T
   7    -87.7831448 -0.271415E-05  0.125E-03    0.17      11.8  T
   8    -87.7831450 -0.183297E-06  0.166E-04    0.17      88.7  T
   9    -87.7831450 -0.104683E-08  0.879E-05    0.17     167.7  T
     SCC iter.                  ...        0 min,  0.056 sec
     gradient                   ...        0 min,  0.069 sec
 * total energy  :   -87.0068853 Eh     change       -0.2944818E-03 Eh
   gradient norm :     0.0100221 Eh/α   predicted    -0.3315750E-03 (  12.60%)
   displ. norm   :     0.4802318 α      lambda       -0.5809314E-03
   maximum displ.:     0.3165890 α      in ANC's #3, #2, #18, ...

........................................................................
.............................. CYCLE   40 ..............................
........................................................................
   1    -87.7910483 -0.877910E+02  0.577E-02    0.20       0.0  T
   2    -87.7868715  0.417688E-02  0.204E-01    0.10       1.0  T
   3    -87.7912409 -0.436940E-02  0.330E-02    0.20       1.0  T
   4    -87.7913631 -0.122230E-03  0.856E-03    0.17       1.7  T
   5    -87.7913607  0.237059E-05  0.865E-03    0.17       1.7  T
   6    -87.7913579  0.286505E-05  0.740E-03    0.17       2.0  T
   7    -87.7913648 -0.693812E-05  0.411E-04    0.17      35.9  T
   8    -87.7913648 -0.119977E-07  0.136E-04    0.17     108.3  T
   9    -87.7913648 -0.499966E-09  0.893E-05    0.17     165.2  T
     SCC iter.                  ...        0 min,  0.056 sec
     gradient                   ...        0 min,  0.070 sec
 * total energy  :   -87.0070938 Eh     change       -0.2085628E-03 Eh
   gradient norm :     0.0141644 Eh/α   predicted    -0.3574608E-03 (  71.39%)
   displ. norm   :     0.4010893 α      lambda       -0.5343988E-03
   maximum displ.:     0.2385020 α      in ANC's #3, #2, #5, ...

........................................................................
.............................. CYCLE   41 ..............................
........................................................................
   1    -87.7901547 -0.877902E+02  0.402E-02    0.21       0.0  T
   2    -87.7886995  0.145524E-02  0.118E-01    0.13       1.0  T
   3    -87.7902748 -0.157528E-02  0.149E-02    0.19       1.0  T
   4    -87.7902942 -0.194279E-04  0.925E-03    0.18       1.6  T
   5    -87.7902990 -0.478942E-05  0.332E-03    0.18       4.4  T
   6    -87.7902987  0.273779E-06  0.214E-03    0.18       6.9  T
   7    -87.7902993 -0.582329E-06  0.153E-04    0.18      96.4  T
   8    -87.7902993 -0.170348E-08  0.590E-05    0.18     249.9  T
     SCC iter.                  ...        0 min,  0.050 sec
     gradient                   ...        0 min,  0.070 sec
 * total energy  :   -87.0074035 Eh     change       -0.3096480E-03 Eh
   gradient norm :     0.0100230 Eh/α   predicted    -0.3101851E-03 (   0.17%)
   displ. norm   :     0.3525130 α      lambda       -0.3423977E-03
   maximum displ.:     0.2060818 α      in ANC's #3, #2, #1, ...

........................................................................
.............................. CYCLE   42 ..............................
........................................................................
   1    -87.7877748 -0.877878E+02  0.236E-02    0.21       0.0  T
   2    -87.7876073  0.167453E-03  0.415E-02    0.16       1.0  T
   3    -87.7878135 -0.206173E-03  0.135E-02    0.19       1.1  T
   4    -87.7878267 -0.131623E-04  0.472E-03    0.19       3.1  T
   5    -87.7878287 -0.198899E-05  0.304E-03    0.19       4.9  T
   6    -87.7878289 -0.194366E-06  0.132E-03    0.19      11.2  T
   7    -87.7878291 -0.194126E-06  0.133E-04    0.19     110.7  T
   8    -87.7878291 -0.183320E-11  0.753E-05    0.19     195.9  T
     SCC iter.                  ...        0 min,  0.048 sec
     gradient                   ...        0 min,  0.069 sec
 * total energy  :   -87.0076117 Eh     change       -0.2082435E-03 Eh
   gradient norm :     0.0080425 Eh/α   predicted    -0.1924737E-03 (  -7.57%)
   displ. norm   :     0.3704277 α      lambda       -0.2740921E-03
   maximum displ.:     0.2116046 α      in ANC's #3, #2, #1, ...
 * RMSD in coord.:     1.3562205 α      energy gain  -0.9744874E-02 Eh

generating ANC from model Hessian ...
Using Lindh-Hessian (1995)
 Shifting diagonal of input Hessian by   9.865102894242557E-003
 Lowest  eigenvalues of input Hessian
    0.000000    0.000000    0.000000    0.000000    0.000000    0.000000
    0.010000    0.010288    0.010689    0.010881    0.011580    0.012013
    0.013204    0.013743    0.014173    0.014935    0.015465    0.015751
 Highest eigenvalues
    1.977290    2.033676    2.122864    2.214795    2.293901    2.406183
 

........................................................................
.............................. CYCLE   43 ..............................
........................................................................
   1    -87.7878275 -0.877878E+02  0.171E-02    0.20       0.0  T
   2    -87.7877168  0.110768E-03  0.388E-02    0.17       1.0  T
   3    -87.7878536 -0.136810E-03  0.293E-03    0.19       5.0  T
   4    -87.7878535  0.118485E-06  0.232E-03    0.19       6.4  T
   5    -87.7878536 -0.114827E-06  0.177E-03    0.19       8.3  T
   6    -87.7878538 -0.194061E-06  0.435E-04    0.19      33.9  T
   7    -87.7878538 -0.159649E-07  0.885E-05    0.19     166.6  T
   8    -87.7878538 -0.332221E-09  0.251E-05    0.19     586.8  T
     SCC iter.                  ...        0 min,  0.049 sec
     gradient                   ...        0 min,  0.068 sec
 * total energy  :   -87.0078216 Eh     change       -0.2098553E-03 Eh
   gradient norm :     0.0071242 Eh/α   predicted     0.0000000E+00 (-100.00%)
   displ. norm   :     0.0612796 α      lambda       -0.1267664E-03
   maximum displ.:     0.0335606 α      in ANC's #2, #6, #18, ...

........................................................................
.............................. CYCLE   44 ..............................
........................................................................
   1    -87.7908061 -0.877908E+02  0.116E-02    0.19       0.0  T
   2    -87.7907785  0.275777E-04  0.222E-02    0.19       1.0  T
   3    -87.7908160 -0.375038E-04  0.269E-03    0.19       5.5  T
   4    -87.7908158  0.235241E-06  0.277E-03    0.19       5.3  T
   5    -87.7908164 -0.659078E-06  0.950E-04    0.19      15.5  T
   6    -87.7908165 -0.326065E-07  0.221E-04    0.19      66.6  T
   7    -87.7908165 -0.349065E-08  0.429E-05    0.19     343.3  T
   8    -87.7908165 -0.133852E-09  0.105E-05    0.19    1398.6  T
     SCC iter.                  ...        0 min,  0.050 sec
     gradient                   ...        0 min,  0.070 sec
 * total energy  :   -87.0079242 Eh     change       -0.1026116E-03 Eh
   gradient norm :     0.0029681 Eh/α   predicted    -0.6618290E-04 ( -35.50%)
   displ. norm   :     0.1451759 α      lambda       -0.1571241E-03
   maximum displ.:     0.0854114 α      in ANC's #2, #6, #18, ...

........................................................................
.............................. CYCLE   45 ..............................
........................................................................
   1    -87.7932796 -0.877933E+02  0.167E-02    0.19       0.0  T
   2    -87.7932330  0.466086E-04  0.298E-02    0.19       1.0  T
   3    -87.7933026 -0.696093E-04  0.393E-03    0.19       3.8  T
   4    -87.7933028 -0.163555E-06  0.365E-03    0.19       4.0  T
   5    -87.7933039 -0.109503E-05  0.115E-03    0.19      12.8  T
   6    -87.7933039 -0.369879E-07  0.300E-04    0.19      49.2  T
   7    -87.7933039 -0.547277E-08  0.645E-05    0.19     228.6  T
   8    -87.7933039 -0.275435E-09  0.171E-05    0.19     862.4  T
     SCC iter.                  ...        0 min,  0.051 sec
     gradient                   ...        0 min,  0.070 sec
 * total energy  :   -87.0080349 Eh     change       -0.1107014E-03 Eh
   gradient norm :     0.0031710 Eh/α   predicted    -0.8021850E-04 ( -27.54%)
   displ. norm   :     0.1751796 α      lambda       -0.1097239E-03
   maximum displ.:     0.1054444 α      in ANC's #2, #6, #18, ...

........................................................................
.............................. CYCLE   46 ..............................
........................................................................
   1    -87.7933290 -0.877933E+02  0.126E-02    0.19       0.0  T
   2    -87.7933065  0.224852E-04  0.208E-02    0.20       1.0  T
   3    -87.7933435 -0.369640E-04  0.276E-03    0.19       5.3  T
   4    -87.7933438 -0.284382E-06  0.228E-03    0.19       6.5  T
   5    -87.7933442 -0.370723E-06  0.698E-04    0.19      21.1  T
   6    -87.7933442 -0.120177E-07  0.172E-04    0.19      85.7  T
   7    -87.7933442 -0.157650E-08  0.405E-05    0.19     364.4  T
     SCC iter.                  ...        0 min,  0.045 sec
     gradient                   ...        0 min,  0.069 sec
 * total energy  :   -87.0081215 Eh     change       -0.8655327E-04 Eh
   gradient norm :     0.0045731 Eh/α   predicted    -0.5660777E-04 ( -34.60%)
   displ. norm   :     0.2471017 α      lambda       -0.1320468E-03
   maximum displ.:     0.1479346 α      in ANC's #2, #6, #18, ...

........................................................................
.............................. CYCLE   47 ..............................
........................................................................
   1    -87.7915446 -0.877915E+02  0.138E-02    0.19       0.0  T
   2    -87.7915222  0.224765E-04  0.211E-02    0.20       1.0  T
   3    -87.7915609 -0.387803E-04  0.322E-03    0.19       4.6  T
   4    -87.7915610 -0.434775E-07  0.297E-03    0.19       5.0  T
   5    -87.7915617 -0.686219E-06  0.957E-04    0.19      15.4  T
   6    -87.7915617 -0.318104E-07  0.145E-04    0.19     101.9  T
   7    -87.7915617 -0.975646E-09  0.447E-05    0.19     329.8  T
     SCC iter.                  ...        0 min,  0.034 sec
     gradient                   ...        0 min,  0.041 sec
 * total energy  :   -87.0082236 Eh     change       -0.1021650E-03 Eh
   gradient norm :     0.0045510 Eh/α   predicted    -0.7005515E-04 ( -31.43%)
   displ. norm   :     0.2229161 α      lambda       -0.1065576E-03
   maximum displ.:     0.1387636 α      in ANC's #2, #6, #4, ...

........................................................................
.............................. CYCLE   48 ..............................
........................................................................
   1    -87.7898836 -0.877899E+02  0.123E-02    0.20       0.0  T
   2    -87.7898583  0.252602E-04  0.217E-02    0.19       1.0  T
   3    -87.7898936 -0.352571E-04  0.303E-03    0.20       4.9  T
   4    -87.7898940 -0.401111E-06  0.221E-03    0.19       6.7  T
   5    -87.7898943 -0.362009E-06  0.980E-04    0.20      15.0  T
   6    -87.7898944 -0.343623E-07  0.138E-04    0.20     106.5  T
   7    -87.7898944 -0.586638E-09  0.350E-05    0.20     420.8  T
     SCC iter.                  ...        0 min,  0.025 sec
     gradient                   ...        0 min,  0.040 sec
 * total energy  :   -87.0083040 Eh     change       -0.8034165E-04 Eh
   gradient norm :     0.0045713 Eh/α   predicted    -0.5592751E-04 ( -30.39%)
   displ. norm   :     0.1898416 α      lambda       -0.9525326E-04
   maximum displ.:     0.1256375 α      in ANC's #2, #6, #4, ...

........................................................................
.............................. CYCLE   49 ..............................
........................................................................
   1    -87.7896761 -0.877897E+02  0.151E-02    0.21       0.0  T
   2    -87.7895976  0.785015E-04  0.342E-02    0.19       1.0  T
   3    -87.7896964 -0.988103E-04  0.175E-03    0.20       8.4  T
   4    -87.7896963  0.804988E-07  0.177E-03    0.20       8.3  T
   5    -87.7896964 -0.797424E-07  0.114E-03    0.20      12.9  T
   6    -87.7896964 -0.653589E-07  0.335E-04    0.20      44.0  T
   7    -87.7896964 -0.878964E-08  0.353E-05    0.20     417.2  T
   8    -87.7896964 -0.577103E-10  0.157E-05    0.20     937.4  T
     SCC iter.                  ...        0 min,  0.029 sec
     gradient                   ...        0 min,  0.040 sec
 * total energy  :   -87.0083782 Eh     change       -0.7425066E-04 Eh
   gradient norm :     0.0042211 Eh/α   predicted    -0.4934326E-04 ( -33.55%)
   displ. norm   :     0.2025625 α      lambda       -0.9235473E-04
   maximum displ.:     0.1390154 α      in ANC's #2, #6, #4, ...

........................................................................
.............................. CYCLE   50 ..............................
........................................................................
   1    -87.7903567 -0.877904E+02  0.209E-02    0.22       0.0  T
   2    -87.7901954  0.161307E-03  0.492E-02    0.19       1.0  T
   3    -87.7903987 -0.203341E-03  0.248E-03    0.21       6.0  T
   4    -87.7903986  0.106545E-06  0.232E-03    0.21       6.4  T
   5    -87.7903988 -0.176346E-06  0.150E-03    0.21       9.8  T
   6    -87.7903989 -0.905524E-07  0.486E-04    0.21      30.4  T
   7    -87.7903989 -0.205003E-07  0.477E-05    0.21     309.2  T
   8    -87.7903989 -0.117140E-09  0.254E-05    0.21     579.6  T
     SCC iter.                  ...        0 min,  0.029 sec
     gradient                   ...        0 min,  0.040 sec
 * total energy  :   -87.0084502 Eh     change       -0.7196892E-04 Eh
   gradient norm :     0.0041424 Eh/α   predicted    -0.4807231E-04 ( -33.20%)
   displ. norm   :     0.2201496 α      lambda       -0.8403471E-04
   maximum displ.:     0.1537479 α      in ANC's #2, #6, #4, ...

........................................................................
.............................. CYCLE   51 ..............................
........................................................................
   1    -87.7910173 -0.877910E+02  0.252E-02    0.22       0.0  T
   2    -87.7908003  0.217051E-03  0.585E-02    0.19       1.0  T
   3    -87.7910762 -0.275884E-03  0.349E-03    0.21       4.2  T
   4    -87.7910762 -0.887804E-07  0.267E-03    0.21       5.5  T
   5    -87.7910766 -0.348726E-06  0.153E-03    0.21       9.6  T
   6    -87.7910767 -0.101210E-06  0.436E-04    0.21      33.8  T
   7    -87.7910767 -0.132993E-07  0.515E-05    0.21     286.1  T
   8    -87.7910767 -0.843556E-10  0.263E-05    0.21     561.2  T
     SCC iter.                  ...        0 min,  0.029 sec
     gradient                   ...        0 min,  0.040 sec
 * total energy  :   -87.0085185 Eh     change       -0.6832772E-04 Eh
   gradient norm :     0.0039550 Eh/α   predicted    -0.4405618E-04 ( -35.52%)
   displ. norm   :     0.2494817 α      lambda       -0.8823599E-04
   maximum displ.:     0.1776726 α      in ANC's #2, #4, #6, ...

........................................................................
.............................. CYCLE   52 ..............................
........................................................................
   1    -87.7916511 -0.877917E+02  0.312E-02    0.23       0.0  T
   2    -87.7913363  0.314729E-03  0.713E-02    0.20       1.0  T
   3    -87.7917397 -0.403371E-03  0.459E-03    0.22       3.2  T
   4    -87.7917402 -0.471487E-06  0.327E-03    0.22       4.5  T
[...]
N25-C5-C6=116.70               O7-C6-C5=124.11                C8-C6-C5=120.11                C8-C6-O7=115.30                
H30-O7-C6=110.86               O9-C8-C6=126.15                N10-C8-C6=113.32               N10-C8-O9=120.28               
C11-N10-C8=114.53              C12-N10-C8=124.34              C12-N10-C11=120.43             
 
 selected dihedral angles (degree)
 ---------------------------------
C3-O2-C1-H27=297.74           C3-O2-C1-H28= 58.54           C3-O2-C1-H29=178.10           O4-C3-O2-C1=  0.75            
C5-C3-O2-C1=182.63            C6-C5-C3-O2=348.81            C6-C5-C3-O4=170.82            N25-C5-C3-O2=167.51           
N25-C5-C3-O4=349.52           O7-C6-C5-C3=  4.10            O7-C6-C5-N25=185.42           C8-C6-C5-C3=192.44            
C8-C6-C5-N25= 13.76           H30-O7-C6-C5=  7.85           H30-O7-C6-C8=179.87           O9-C8-C6-C5=193.07            
O9-C8-C6-O7= 20.70            N10-C8-C6-C5= 18.85           N10-C8-C6-O7=206.48           C11-N10-C8-C6=170.71          
C11-N10-C8-O9=356.11          C12-N10-C8-C6=341.09          C12-N10-C8-O9=166.49          
           -------------------------------------------------
          |                Final Singlepoint                |
           -------------------------------------------------

          ...................................................
          :                      SETUP                      :
          :.................................................:
          :  # basis functions                 144          :
          :  # atomic orbitals                 144          :
          :  # shells                           92          :
          :  # electrons                       142          :
          :  # halogen bonds                     0          :
          :  max. iterations                   250          :
          :  Hamiltonian                  GFN1-xTB          :
          :  restarted?                      false          :
          :  GBSA solvation                   true          :
          :  PC potential                    false          :
          :  electronic temp.          300.0000000     K    :
          :  accuracy                    1.0000000          :
          :  -> integral cutoff          0.2500000E+02      :
          :  -> integral neglect         0.1000000E-07      :
          :  -> SCF convergence          0.1000000E-05 Eh   :
          :  -> wf. convergence          0.2000000E-04 e    :
          :  Broyden damping             0.4000000          :
          ...................................................

 iter      E             dE          RMSdq      gap      omega  full diag
   1    -87.7910096 -0.877910E+02  0.474E-06    0.30       0.0  T
   2    -87.7910096 -0.241585E-12  0.248E-06    0.30    5934.1  T
   3    -87.7910096  0.397904E-12  0.287E-06    0.30    5140.2  T

   *** convergence criteria satisfied after 3 iterations ***

         #    Occupation            Energy/Eh            Energy/eV
      -------------------------------------------------------------
         1        2.0000           -0.8554499             -23.2780
       ...           ...                  ...                  ...
        65        2.0000           -0.4346760             -11.8281
        66        2.0000           -0.4282238             -11.6526
        67        2.0000           -0.4146711             -11.2838
        68        2.0000           -0.3982125             -10.8359
        69        2.0000           -0.3858986             -10.5008
        70        2.0000           -0.3678070             -10.0085
        71        1.9937           -0.3080198              -8.3816 (HOMO)
        72        0.0063           -0.2970912              -8.0843 (LUMO)
        73                         -0.2719552              -7.4003
        74                         -0.2500120              -6.8032
        75                         -0.1910541              -5.1988
        76                         -0.1855320              -5.0486
       ...                                ...                  ...
       144                          0.7349155              19.9981
      -------------------------------------------------------------
                  HL-Gap            0.0109286 Eh            0.2974 eV
             Fermi-level           -0.3025555 Eh           -8.2330 eV

 SCC (total)                   0 d,  0 h,  0 min,  0.072 sec
 SCC setup                      ...        0 min,  0.001 sec (  1.712%)
 Dispersion                     ...        0 min,  0.000 sec (  0.237%)
 classical contributions        ...        0 min,  0.000 sec (  0.109%)
 integral evaluation            ...        0 min,  0.018 sec ( 25.297%)
 iterations                     ...        0 min,  0.011 sec ( 15.459%)
 molecular gradient             ...        0 min,  0.040 sec ( 56.169%)
 printout                       ...        0 min,  0.001 sec (  1.001%)

         :::::::::::::::::::::::::::::::::::::::::::::::::::::
         ::                     SUMMARY                     ::
         :::::::::::::::::::::::::::::::::::::::::::::::::::::
         :: total energy             -87.009215455872 Eh    ::
         :: total w/o Gsasa/hb       -86.988668354542 Eh    ::
         :: gradient norm              0.000775756149 Eh/a0 ::
         :: HOMO-LUMO gap              0.297381302095 eV    ::
         ::.................................................::
         :: SCC energy               -87.791009617969 Eh    ::
         :: -> electrostatic           0.445128742643 Eh    ::
         :: -> Gsolv                  -0.110298692436 Eh    ::
         ::    -> Gelec               -0.089751591105 Eh    ::
         ::    -> Gsasa               -0.023954964797 Eh    ::
         ::    -> Ghb                 -0.004216415539 Eh    ::
         ::    -> Gshift               0.007624279005 Eh    ::
         :: repulsion energy           0.812885374011 Eh    ::
         :: dispersion energy         -0.031091211914 Eh    ::
         :: halogen bond corr.         0.000000000000 Eh    ::
         :: add. restraining           0.000000000000 Eh    ::
         :: total charge              -1.000000000000 e     ::
         :::::::::::::::::::::::::::::::::::::::::::::::::::::

           -------------------------------------------------
          |                Property Printout                |
           -------------------------------------------------

    * Orbital Energies and Occupations

         #    Occupation            Energy/Eh            Energy/eV
      -------------------------------------------------------------
         1        2.0000           -0.8554499             -23.2780
       ...           ...                  ...                  ...
        59        2.0000           -0.4715572             -12.8317
        60        2.0000           -0.4661060             -12.6834
        61        2.0000           -0.4646781             -12.6445
        62        2.0000           -0.4511225             -12.2757
        63        2.0000           -0.4502824             -12.2528
        64        2.0000           -0.4390442             -11.9470
        65        2.0000           -0.4346760             -11.8281
        66        2.0000           -0.4282238             -11.6526
        67        2.0000           -0.4146711             -11.2838
        68        2.0000           -0.3982125             -10.8359
        69        2.0000           -0.3858986             -10.5008
        70        2.0000           -0.3678070             -10.0085
        71        1.9937           -0.3080198              -8.3816 (HOMO)
        72        0.0063           -0.2970912              -8.0843 (LUMO)
        73                         -0.2719552              -7.4003
        74                         -0.2500120              -6.8032
        75                         -0.1910541              -5.1988
        76                         -0.1855320              -5.0486
        77                         -0.1400481              -3.8109
        78                         -0.1343486              -3.6558
        79                         -0.1210453              -3.2938
        80                         -0.1182694              -3.2183
        81                         -0.1058233              -2.8796
        82                         -0.1006317              -2.7383
       ...                                ...                  ...
       144                          0.7349155              19.9981
      -------------------------------------------------------------
                  HL-Gap            0.0109286 Eh            0.2974 eV
             Fermi-level           -0.3025555 Eh           -8.2330 eV

  Mulliken/CM5 charges         n(s)   n(p)   n(d)
     1C     0.17469  0.05474   0.972  2.854  0.000
     2O    -0.46171 -0.55845   1.699  4.763  0.000
     3C     0.52758  0.58760   0.976  2.497  0.000
     4O    -0.62342 -0.67151   1.736  4.888  0.000
     5C    -0.02718  0.03441   1.048  2.979  0.000
     6C     0.18486  0.21666   1.029  2.786  0.000
     7O    -0.54609 -0.73807   1.698  4.848  0.000
     8C     0.37422  0.47527   0.969  2.656  0.000
     9O    -0.70136 -0.74035   1.746  4.955  0.000
    10N    -0.22516 -0.48089   1.459  3.766  0.000
    11C     0.06264 -0.02448   0.984  2.953  0.000
    12C     0.03512  0.15524   1.052  2.913  0.000
    13C     0.15764  0.19539   1.070  2.773  0.000
    14C    -0.08421 -0.22188   1.012  3.072  0.000
    15C    -0.10124 -0.24196   1.019  3.082  0.000
    16N    -0.32966 -0.68180   1.434  3.896  0.000
    17C     0.46001  0.57015   0.973  2.567  0.000
    18O    -0.59048 -0.63489   1.728  4.862  0.000
    19C     0.33096  0.45646   1.014  2.655  0.000
    20N    -0.25005 -0.36173   1.569  3.682  0.000
    21N    -0.27115 -0.37902   1.566  3.705  0.000
    22C     0.38483  0.49366   1.005  2.610  0.000
    23C    -0.11055 -0.24785   1.011  3.099  0.000
    24O    -0.34441 -0.39576   1.693  4.652  0.000
    25N    -0.31955 -0.55416   1.485  3.834  0.000
    26C     0.04896 -0.03902   0.990  2.961  0.000
    27H     0.03456  0.09605   0.965  0.000  0.000
    28H     0.03616  0.09809   0.964  0.000  0.000
    29H     0.03518  0.09539   0.965  0.000  0.000
    30H     0.37116  0.55902   0.629  0.000  0.000
    31H     0.03859  0.10489   0.961  0.000  0.000
    32H     0.02496  0.09176   0.975  0.000  0.000
    33H     0.03979  0.10343   0.960  0.000  0.000
    34H     0.02954  0.08853   0.970  0.000  0.000
    35H     0.03086  0.09075   0.969  0.000  0.000
    36H     0.02920  0.09131   0.971  0.000  0.000
    37H     0.04018  0.09969   0.960  0.000  0.000
    38H     0.02535  0.08217   0.975  0.000  0.000
    39H     0.02526  0.07975   0.975  0.000  0.000
    40H     0.23339  0.44796   0.767  0.000  0.000
    41H     0.06598  0.12177   0.934  0.000  0.000
    42H     0.07517  0.12956   0.925  0.000  0.000
    43H     0.07507  0.12957   0.925  0.000  0.000
    44H     0.01010  0.07264   0.990  0.000  0.000
    45H     0.00757  0.07091   0.992  0.000  0.000
    46H     0.01660  0.07900   0.983  0.000  0.000

Wiberg/Mayer (AO) data.
largest (>0.10) Wiberg bond orders for each atom

 ---------------------------------------------------------------------------
     #   Z sym  total        # sym  WBO       # sym  WBO       # sym  WBO
 ---------------------------------------------------------------------------
     1   6 C    3.893 --    29 H    0.987    27 H    0.981    28 H    0.981
                             2 O    0.918
     2   8 O    2.139 --     3 C    0.992     1 C    0.918
     3   6 C    3.854 --     4 O    1.547     5 C    1.167     2 O    0.992
     4   8 O    1.859 --     3 C    1.547
     5   6 C    3.925 --     6 C    1.420     3 C    1.167    25 N    0.969
     6   6 C    3.899 --     5 C    1.420     8 C    1.139     7 O    1.036
                            12 C    0.131
     7   8 O    2.023 --     6 C    1.036    30 H    0.828
     8   6 C    3.926 --     9 O    1.403    10 N    1.152     6 C    1.139
                            12 C    0.120
     9   8 O    1.735 --     8 C    1.403    10 N    0.140
    10   7 N    3.468 --     8 C    1.152    12 C    1.090    11 C    0.949
                             9 O    0.140
    11   6 C    3.958 --    32 H    0.983    31 H    0.983    33 H    0.978
                            10 N    0.949
    12   6 C    3.691 --    10 N    1.090    25 N    0.976    13 C    0.974
                             6 C    0.131     8 C    0.120
    13   6 C    3.915 --    14 C    0.988    15 C    0.983    12 C    0.974
                            16 N    0.896
    14   6 C    3.993 --    13 C    0.988    36 H    0.985    34 H    0.984
                            35 H    0.983
    15   6 C    3.991 --    39 H    0.986    13 C    0.983    37 H    0.982
                            38 H    0.980
    16   7 N    3.379 --    17 C    1.296    40 H    0.897    13 C    0.896
                            18 O    0.187
    17   6 C    3.922 --    18 O    1.565    16 N    1.296    19 C    0.979
    18   8 O    1.885 --    17 C    1.565    16 N    0.187
    19   6 C    3.865 --    20 N    1.615    24 O    1.061    17 C    0.979
    20   7 N    3.010 --    19 C    1.615    21 N    1.190
    21   7 N    2.980 --    22 C    1.616    20 N    1.190
    22   6 C    3.873 --    21 N    1.616    24 O    1.079    23 C    1.030
    23   6 C    3.988 --    22 C    1.030    41 H    0.983    43 H    0.965
                            42 H    0.964
    24   8 O    2.322 --    22 C    1.079    19 C    1.061
    25   7 N    3.055 --    12 C    0.976     5 C    0.969    26 C    0.962
    26   6 C    3.983 --    44 H    0.988    46 H    0.988    45 H    0.983
                            25 N    0.962
    27   1 H    1.014 --     1 C    0.981
    28   1 H    1.014 --     1 C    0.981
    29   1 H    1.014 --     1 C    0.987
    30   1 H    0.882 --     7 O    0.828
    31   1 H    1.017 --    11 C    0.983
    32   1 H    1.016 --    11 C    0.983
    33   1 H    1.012 --    11 C    0.978
    34   1 H    1.011 --    14 C    0.984
    35   1 H    1.025 --    14 C    0.983
    36   1 H    1.016 --    14 C    0.985
    37   1 H    1.014 --    15 C    0.982
    38   1 H    1.013 --    15 C    0.980
    39   1 H    1.014 --    15 C    0.986
    40   1 H    0.967 --    16 N    0.897
    41   1 H    0.999 --    23 C    0.983
    42   1 H    0.998 --    23 C    0.964
    43   1 H    0.998 --    23 C    0.965
    44   1 H    1.027 --    26 C    0.988
    45   1 H    1.008 --    26 C    0.983
    46   1 H    1.017 --    26 C    0.988
 ---------------------------------------------------------------------------

Topologies differ in total number of bonds
Writing topology from bond orders to xtbtopo.mol

 dipole moment from electron density (au)
     X       Y       Z   
   2.7169   0.1793  -1.6502  total (Debye):    8.093

           -------------------------------------------------
          |                Geometry Summary                 |
           -------------------------------------------------

      molecular mass/u    :      366.3497991
   center of mass at/Å    :        0.0540055       0.2165878       0.0122140
  moments of inertia/u·Å² :        0.1682119E+04   0.4081520E+04   0.4156987E+04
rotational constants/cm⁻¹ :        0.1002166E-01   0.4130234E-02   0.4055253E-02

 * 39 selected distances

     #   Z          #   Z                                           value/Å
     1   6 C        2   8 O                                       1.4237114
     2   8 O        3   6 C                                       1.3792148
     3   6 C        4   8 O                                       1.2290575
     3   6 C        5   6 C                                       1.4346316
     5   6 C        6   6 C                                       1.3892064
     6   6 C        7   8 O                                       1.3666534
     8   6 C       10   7 N                                       1.3795909
    10   7 N       11   6 C                                       1.4628593
    10   7 N       12   6 C                                       1.3936862
    13   6 C       14   6 C                                       1.5372941 (max)
    13   6 C       16   7 N                                       1.4767208
    16   7 N       17   6 C                                       1.3381469
    17   6 C       18   8 O                                       1.2231133
    19   6 C       20   7 N                                       1.2989546
    21   7 N       22   6 C                                       1.2966319
    22   6 C       23   6 C                                       1.4798703
    19   6 C       24   8 O                                       1.3470057
    22   6 C       24   8 O                                       1.3424593
    25   7 N       26   6 C                                       1.4765296
     1   6 C       27   1 H                                       1.0946671
     1   6 C       28   1 H                                       1.0945569
     1   6 C       29   1 H                                       1.0889074
     7   8 O       30   1 H                                       0.9703891 (min)
    11   6 C       31   1 H                                       1.0921344
    11   6 C       32   1 H                                       1.0863210
    11   6 C       33   1 H                                       1.0934462
    14   6 C       34   1 H                                       1.0894854
    14   6 C       35   1 H                                       1.0892937
    14   6 C       36   1 H                                       1.0890245
    15   6 C       37   1 H                                       1.0892448
    15   6 C       38   1 H                                       1.0884101
    15   6 C       39   1 H                                       1.0888742
    16   7 N       40   1 H                                       1.0129541
    23   6 C       41   1 H                                       1.0873445
    23   6 C       42   1 H                                       1.0903039
    23   6 C       43   1 H                                       1.0900166
    26   6 C       44   1 H                                       1.0902316
    26   6 C       45   1 H                                       1.0977078
    26   6 C       46   1 H                                       1.0907807

 * 6 distinct bonds (by element types)

   Z      Z             #   av. dist./Å        max./Å        min./Å
   1 H    6 C          18     1.0905973     1.0977078     1.0863210
   6 C    6 C           4     1.4602506     1.5372941     1.3892064
   1 H    7 N           1     1.0129541     1.0129541     1.0129541
   6 C    7 N           8     1.3903900     1.4767208     1.2966319
   1 H    8 O           1     0.9703891     0.9703891     0.9703891
   6 C    8 O           7     1.3301736     1.4237114     1.2231133


optimized geometry written to: xtbopt.xyz


           -------------------------------------------------
          | TOTAL ENERGY              -87.009215455872 Eh   |
          | GRADIENT NORM               0.000775756149 Eh/α |
          | HOMO-LUMO GAP               0.297381302095 eV   |
           -------------------------------------------------

------------------------------------------------------------------------
 * finished run on 2023/06/20 at 15:20:24.534     
------------------------------------------------------------------------
 total:
 * wall-time:     0 d,  0 h,  0 min, 10.490 sec
 *  cpu-time:     0 d,  0 h,  0 min, 10.429 sec
 * ratio c/w:     0.994 speedup
 SCF:
 * wall-time:     0 d,  0 h,  0 min,  0.259 sec
 *  cpu-time:     0 d,  0 h,  0 min,  0.258 sec
 * ratio c/w:     0.999 speedup
 ANC optimizer:
 * wall-time:     0 d,  0 h,  0 min, 10.146 sec
 *  cpu-time:     0 d,  0 h,  0 min, 10.139 sec
 * ratio c/w:     0.999 speedup

