9
 energy: -15.745940473250 gnorm: 0.000516500352 xtb: 6.5.1 (579679a)
C           -1.04031315084035       -0.41437980916174       -0.07156643494487
B            0.46535271827504        0.04410531430907        0.02093561076288
O            1.45235260410033       -0.90063459139648        0.03727594344800
O            0.84772992119940        1.36213404057037        0.09332149335026
H           -1.12071099362683       -1.47552499528781       -0.30225255125980
H           -1.57775073286681        0.14717894212347       -0.83385650588868
H           -1.54932251091378       -0.23531330313145        0.87540374783282
H            2.34664905525468       -0.56643588253081        0.09943677114912
H            0.17601308941832        2.03887028450539        0.08130192555030
