47
 energy: -79.484537368673 gnorm: 0.000460428639 xtb: 6.5.1 (579679a)
C           -3.94797646267627       -0.65428251086595       -2.38035608194253
N           -2.81006435789959       -0.51055846501632       -1.46578891834510
C           -2.91449465478952       -0.20655446423731       -0.13298151975554
C           -4.25627681596525        0.04093600385933        0.54670814157391
C           -4.04381521409815        0.13517476307898        2.06714015215206
C           -4.86143983268861        1.35657630696563        0.03741435385706
N           -5.17023375250654       -1.05846902322126        0.25079634635581
N           -1.86395765649258       -0.07546927872978        0.61957821050519
C           -0.60714116177564       -0.26563322868224        0.12983050773228
C            0.50196229158998       -0.05296689128758        1.10019513052914
O            0.43053052145473        0.67777256017136        2.06781274984553
N            1.64056755926071       -0.77544591051222        0.82028362094362
C            2.84209535433742       -0.53257661490293        1.51906363066032
C            3.77735079406909        0.53053238179385        0.70582450488580
C            2.92983301819581        1.80281633732606        0.50783074500336
C            4.92842774511284        0.75837697875125        1.58712218336274
C            6.16815296293097        0.25984249888235        1.30975137135211
C            6.36181537452189       -0.42938398935459        0.10605226382016
F            7.55268952515341       -0.90211752575551       -0.15560007313692
C            5.34599902774839       -0.61704356062149       -0.83944608907852
C            4.10356692901770       -0.12518154196299       -0.56628533027072
C           -0.43204287125853       -0.55791521606961       -1.19159254800200
O            0.77262874113958       -0.72045640529534       -1.77887511995658
C           -1.57875765347491       -0.67665066904161       -2.07082418597312
O           -1.45446344064294       -0.91680839803682       -3.26813172933150
H           -3.71021089793862       -1.44612644084698       -3.09080088189196
H           -4.84193514550376       -0.91457431031567       -1.82064560528968
H           -4.09267682033567        0.28025436760875       -2.92279378654423
H           -3.40708963305405        0.98492774681798        2.30983437039797
H           -5.00779719833079        0.25799081699995        2.55801109830897
H           -3.57125106491887       -0.77357710245804        2.43626794371657
H           -4.16107577727281        2.17518392767035        0.19838462689183
H           -5.78033564295024        1.56668565748412        0.58306686510571
H           -5.09555494141827        1.29645166226236       -1.02310366620773
H           -6.07820000348240       -0.85320549169920        0.64350124975209
H           -4.82714687221629       -1.91085474700088        0.67083533615029
H            1.67763469011978       -1.35767611628003       -0.00008324684567
H            2.62075753549572       -0.07830111866936        2.48651065967652
H            3.41779273908648       -1.44848327370169        1.63170431711933
H            3.54592978827648        2.56905346953611        0.04203807853798
H            2.56186531291152        2.16370660898046        1.46655365940863
H            2.08834128945825        1.57699997267299       -0.14397171121942
H            4.75595212168125        1.31316691846958        2.50226001064514
H            7.00559177491416        0.40322294466358        1.98150607439430
H            5.56739487459314       -1.12911111976880       -1.76753487648328
H            3.29452653270756       -0.24542771701925       -1.27799636464074
H            0.62252936787420       -0.91482179265417       -2.72624346776970
