42
 energy: -83.599203864058 gnorm: 0.000362190645 xtb: 6.5.1 (579679a)
C           -4.49169646379627        2.78226340539350        3.32834274852643
O           -3.80509334102028        1.53200723106642        3.30660578547869
C           -3.00441340973665        1.31919506906295        2.22882215864075
O           -2.89174817404427        2.16533415745153        1.36334381397767
C           -2.33365124613039        0.00555617651620        2.22487918602000
N           -1.52148927258335       -0.18299416285028        1.14150797182384
C           -0.90865095292374       -1.34631097893758        1.03135894940008
C           -0.01352372159123       -1.52166116299635       -0.19149063115642
C            0.46445653538264       -2.97186473597320       -0.30741020935043
C           -0.80910064997934       -1.11614915547921       -1.44680638686440
N            1.16300446611794       -0.63737141097354        0.00267473399373
C            2.03238585426096       -0.55153852086366       -1.15480507054339
O            3.12170538761036       -1.44563737853615       -1.15770822856695
C            4.22015145619872       -1.07220054870872       -0.33803623770046
C            2.03852477570209        0.61026159767785       -1.88400590053051
N            1.06705895903784        1.55495122952448       -1.86694323636335
N            1.42111188469993        2.48058964795739       -2.82909648508732
C            2.51924248718091        2.09161589157013       -3.37020134956458
C            3.28110300827324        2.76368310182888       -4.45755435429988
O            2.99658836015946        0.91307377085792       -2.84277007100302
N           -0.98926765713425       -2.36472965578219        1.88402330745592
C           -1.75973488515117       -2.26128864582240        2.99761276444507
O           -1.85413351905998       -3.18986572293726        3.82494421132560
C           -2.47866817230353       -0.98916545776756        3.16860582302269
O           -3.25640716726639       -0.91165603777179        4.28402375649942
H           -5.16166329958175        2.86251102844229        2.46791302082337
H           -5.06657192255885        2.81313059158329        4.25081322134002
H           -3.77790090861770        3.61029458024620        3.30468717415435
H            1.04304685374705       -3.24440241352257        0.57616831003542
H           -0.38937105588458       -3.64539482780163       -0.38441779832333
H            1.09275046431520       -3.09576823234443       -1.18949285410819
H           -0.20377241890272       -1.26420318940112       -2.34178565228514
H           -1.09062072413337       -0.06364430613996       -1.38240125543845
H           -1.71301422414649       -1.72033386942021       -1.52948322710289
H            0.79701769921032        0.30104773855828        0.19503980536453
H            4.68050702516876       -0.13729841406345       -0.68673675092748
H            4.96194654289081       -1.87274764906819       -0.39437856537322
H            3.91338401785990       -0.94354862964854        0.71008673738323
H            4.28449050793168        3.02988177068626       -4.12088792127267
H            3.38198179033387        2.10825410688416       -5.32428701701803
H            2.75708543708282        3.66921554329093       -4.75719624825080
H           -3.71705132661611       -0.06309053180578        4.35354497141198
