      -----------------------------------------------------------      
     |                   =====================                   |     
     |                           x T B                           |     
     |                   =====================                   |     
     |                         S. Grimme                         |     
     |          Mulliken Center for Theoretical Chemistry        |     
     |                    University of Bonn                     |     
      -----------------------------------------------------------      

   * xtb version 6.5.1 (579679a) compiled by 'ehlert@majestix' on 2022-07-11

   xtb is free software: you can redistribute it and/or modify it under
   the terms of the GNU Lesser General Public License as published by
   the Free Software Foundation, either version 3 of the License, or
   (at your option) any later version.
   
   xtb is distributed in the hope that it will be useful,
   but WITHOUT ANY WARRANTY; without even the implied warranty of
   MERCHANTABILITY or FITNESS FOR A PARTICULAR PURPOSE.  See the
   GNU Lesser General Public License for more details.
   
   Cite this work as:
   * C. Bannwarth, E. Caldeweyher, S. Ehlert, A. Hansen, P. Pracht,
     J. Seibert, S. Spicher, S. Grimme, WIREs Comput. Mol. Sci., 2020, 11,
     e01493. DOI: 10.1002/wcms.1493
   
   for GFN2-xTB:
   * C. Bannwarth, S. Ehlert and S. Grimme., J. Chem. Theory Comput., 2019,
     15, 1652-1671. DOI: 10.1021/acs.jctc.8b01176
   for GFN1-xTB:
   * S. Grimme, C. Bannwarth, P. Shushkov, J. Chem. Theory Comput., 2017,
     13, 1989-2009. DOI: 10.1021/acs.jctc.7b00118
   for GFN0-xTB:
   * P. Pracht, E. Caldeweyher, S. Ehlert, S. Grimme, ChemRxiv, 2019, preprint.
     DOI: 10.26434/chemrxiv.8326202.v1
   for GFN-FF:
   * S. Spicher and S. Grimme, Angew. Chem. Int. Ed., 2020, 59, 15665-15673.
     DOI: 10.1002/anie.202004239
   
   for ALPB and GBSA implicit solvation:
   * S. Ehlert, M. Stahn, S. Spicher, S. Grimme, J. Chem. Theory Comput.,
     2021, 17, 4250-4261. DOI: 10.1021/acs.jctc.1c00471
   
   for DFT-D4:
   * E. Caldeweyher, C. Bannwarth and S. Grimme, J. Chem. Phys., 2017,
     147, 034112. DOI: 10.1063/1.4993215
   * E. Caldeweyher, S. Ehlert, A. Hansen, H. Neugebauer, S. Spicher,
     C. Bannwarth and S. Grimme, J. Chem. Phys., 2019, 150, 154122.
     DOI: 10.1063/1.5090222
   * E. Caldeweyher, J.-M. Mewes, S. Ehlert and S. Grimme, Phys. Chem. Chem. Phys.
     2020, 22, 8499-8512. DOI: 10.1039/D0CP00502A
   
   for sTDA-xTB:
   * S. Grimme and C. Bannwarth, J. Chem. Phys., 2016, 145, 054103.
     DOI: 10.1063/1.4959605
   
   in the mass-spec context:
   * V. Asgeirsson, C. Bauer and S. Grimme, Chem. Sci., 2017, 8, 4879.
     DOI: 10.1039/c7sc00601b
   * J. Koopman and S. Grimme, ACS Omega 2019, 4, 12, 15120-15133.
     DOI: 10.1021/acsomega.9b02011
   
   for metadynamics refer to:
   * S. Grimme, J. Chem. Theory Comput., 2019, 155, 2847-2862
     DOI: 10.1021/acs.jctc.9b00143
   
   for SPH calculations refer to:
   * S. Spicher and S. Grimme, J. Chem. Theory Comput., 2021, 17, 1701-1714
     DOI: 10.1021/acs.jctc.0c01306
   
   with help from (in alphabetical order)
   P. Atkinson, C. Bannwarth, F. Bohle, G. Brandenburg, E. Caldeweyher
   M. Checinski, S. Dohm, S. Ehlert, S. Ehrlich, I. Gerasimov, C. Hölzer
   A. Katbashev, J. Koopman, C. Lavigne, S. Lehtola, F. März, M. Müller,
   F. Musil, H. Neugebauer, J. Pisarek, C. Plett, P. Pracht, F. Pultar,
   J. Seibert, P. Shushkov, S. Spicher, M. Stahn, M. Steiner, T. Strunk,
   J. Stückrath, T. Rose, and J. Unsleber
   
 * started run on 2023/06/20 at 15:05:51.371     

           -------------------------------------------------
          |                Calculation Setup                |
           -------------------------------------------------

          program call               : /lustre/hpc/kemi/ree/PhD/git/ReactivityQM/dep/xtb-6.5.1/bin/xtb --gfn 1 /lustre/hpc/kemi/ree/PhD/git/ReactivityQM/calculations/RaltegravirCLI/reac02prodE07/conf19/RaltegravirCLI_reac02prodE07_conf19_gfn1.xyz --opt --vfukui --chrg -1 --uhf 0 --alpb DMSO
          hostname                   : node308
          coordinate file            : /lustre/hpc/kemi/ree/PhD/git/ReactivityQM/calculations/RaltegravirCLI/reac02prodE07/conf19/RaltegravirCLI_reac02prodE07_conf19_gfn1.xyz
          omp threads                :                     1

   ID    Z sym.   atoms
    1    6 C      1-4, 6-9, 11, 13, 15-18, 21, 22, 24
    2    9 F      5
    3    7 N      10, 14, 19, 20
    4    8 O      12, 23, 25
    5    1 H      26-47

           -------------------------------------------------
          |                 G F N 1 - x T B                 |
           -------------------------------------------------

        Reference                      10.1021/acs.jctc.7b00118
      * Hamiltonian:
        H0-scaling (s, p, d)           1.850000    2.250000    2.000000
        zeta-weighting                 0.000000
      * Dispersion:
        s8                             2.400000
        a1                             0.630000
        a2                             5.000000
        s9                             0.000000
      * Repulsion:
        kExp                           1.500000
        rExp                           1.000000
      * Coulomb:
        alpha                          2.000000
        third order                    atomic
        anisotropic                    false
      * Halogen bond correction:
        rad-scale                      1.300000
        damping                        0.440000

      * Solvation model:               ALPB
        Solvent                        DMSO
        Parameter file                 internal GFN1-xTB/ALPB
        Dielectric constant                4.6680E+01
        Reference state                gsolv [1 M gas/solution]
        Free energy shift                  7.6243E-03 Eh       4.7843E+00 kcal/mol
        Temperature                        2.9815E+02 K
        Density                            1.1000E+00 kg/L
        Solvent mass                       7.8130E+01 g/mol
        Interaction kernel             P16
        Born radius scaling (c1)           1.7672E+00
        Born radii integrator          GBOBC
        Born offset                        0.0000E+00 a0       0.0000E+00 AA
        H-bond correction              true
        Ion screening                  false
        Surface tension                    1.0000E-05 Eh       1.5569E+01 dyn/cm
        Grid points                               230 per atom

          ...................................................
          :                      SETUP                      :
          :.................................................:
          :  # basis functions                 144          :
          :  # atomic orbitals                 144          :
          :  # shells                           94          :
          :  # electrons                       136          :
          :  # halogen bonds                     0          :
          :  max. iterations                   250          :
          :  Hamiltonian                  GFN1-xTB          :
          :  restarted?                      false          :
          :  GBSA solvation                   true          :
          :  PC potential                    false          :
          :  electronic temp.          300.0000000     K    :
          :  accuracy                    1.0000000          :
          :  -> integral cutoff          0.2500000E+02      :
          :  -> integral neglect         0.1000000E-07      :
          :  -> SCF convergence          0.1000000E-05 Eh   :
          :  -> wf. convergence          0.2000000E-04 e    :
          :  Broyden damping             0.4000000          :
          ...................................................

 iter      E             dE          RMSdq      gap      omega  full diag
   1    -80.8343525 -0.808344E+02  0.884E+00    1.25       0.0  T
   2    -80.7071101  0.127242E+00  0.546E+00    0.17       1.0  T
   3    -79.5043813  0.120273E+01  0.403E+00    0.47       1.0  T
   4    -80.9927641 -0.148838E+01  0.136E+00    1.61       1.0  T
   5    -81.0181897 -0.254255E-01  0.719E-01    1.39       1.0  T
   6    -81.0282249 -0.100353E-01  0.358E-01    0.63       1.0  T
   7    -81.0382759 -0.100509E-01  0.142E-01    0.09       1.0  T
   8    -81.0310156  0.726030E-02  0.298E-01    0.31       1.0  T
   9    -81.0286900  0.232556E-02  0.289E-01    0.06       1.0  T
  10    -81.0351227 -0.643268E-02  0.196E-01    0.18       1.0  T
  11    -81.0391121 -0.398941E-02  0.109E-02    0.10       1.3  T
  12    -81.0391166 -0.450414E-05  0.105E-02    0.11       1.4  T
  13    -81.0391218 -0.522595E-05  0.840E-03    0.10       1.7  T
  14    -81.0391250 -0.314347E-05  0.626E-03    0.11       2.3  T
  15    -81.0391294 -0.443766E-05  0.121E-03    0.10      12.1  T
  16    -81.0391296 -0.154321E-06  0.310E-04    0.10      47.0  T
  17    -81.0391296 -0.109141E-07  0.406E-05    0.10     359.6  T
  18    -81.0391296  0.256406E-09  0.609E-05    0.10     239.3  T

   *** convergence criteria satisfied after 18 iterations ***

         #    Occupation            Energy/Eh            Energy/eV
      -------------------------------------------------------------
         1        2.0000           -0.8107019             -22.0603
       ...           ...                  ...                  ...
        62        2.0000           -0.4161903             -11.3251
        63        2.0000           -0.4112559             -11.1908
        64        2.0000           -0.4068869             -11.0720
        65        2.0000           -0.4029145             -10.9639
        66        2.0000           -0.3947470             -10.7416
        67        2.0000           -0.3831824             -10.4269
        68        1.7639           -0.2954740              -8.0403 (HOMO)
        69        0.2361           -0.2916530              -7.9363 (LUMO)
        70                         -0.2576350              -7.0106
        71                         -0.2006227              -5.4592
        72                         -0.1998133              -5.4372
        73                         -0.1305489              -3.5524
       ...                                ...                  ...
       144                          0.7254108              19.7394
      -------------------------------------------------------------
                  HL-Gap            0.0038211 Eh            0.1040 eV
             Fermi-level           -0.2935635 Eh           -7.9883 eV

 SCC (total)                   0 d,  0 h,  0 min,  0.287 sec
 SCC setup                      ...        0 min,  0.002 sec (  0.870%)
 Dispersion                     ...        0 min,  0.001 sec (  0.181%)
 classical contributions        ...        0 min,  0.000 sec (  0.057%)
 integral evaluation            ...        0 min,  0.082 sec ( 28.704%)
 iterations                     ...        0 min,  0.111 sec ( 38.798%)
 molecular gradient             ...        0 min,  0.089 sec ( 30.996%)
 printout                       ...        0 min,  0.001 sec (  0.373%)

         :::::::::::::::::::::::::::::::::::::::::::::::::::::
         ::                     SUMMARY                     ::
         :::::::::::::::::::::::::::::::::::::::::::::::::::::
         :: total energy             -80.177549691049 Eh    ::
         :: total w/o Gsasa/hb       -80.151017031521 Eh    ::
         :: gradient norm              0.083323438495 Eh/a0 ::
         :: HOMO-LUMO gap              0.103976396802 eV    ::
         ::.................................................::
         :: SCC energy               -81.039129591096 Eh    ::
         :: -> electrostatic           0.321522206108 Eh    ::
         :: -> Gsolv                  -0.101669728273 Eh    ::
         ::    -> Gelec               -0.075137068745 Eh    ::
         ::    -> Gsasa               -0.025261097893 Eh    ::
         ::    -> Ghb                 -0.008895840640 Eh    ::
         ::    -> Gshift               0.007624279005 Eh    ::
         :: repulsion energy           0.890970666009 Eh    ::
         :: dispersion energy         -0.029390765961 Eh    ::
         :: halogen bond corr.         0.000000000000 Eh    ::
         :: add. restraining           0.000000000000 Eh    ::
         :: total charge              -1.000000000000 e     ::
         :::::::::::::::::::::::::::::::::::::::::::::::::::::

      ----------------------------------------------------------- 
     |                   =====================                   |
     |                        A N C O P T                        |
     |                   =====================                   |
     |               Approximate Normal Coordinate               |
     |                Rational Function Optimizer                |
      ----------------------------------------------------------- 

          ...................................................
          :                      SETUP                      :
          :.................................................:
          :   optimization level            normal          :
          :   max. optcycles                   200          :
          :   ANC micro-cycles                  20          :
          :   degrees of freedom               135          :
          :.................................................:
          :   RF solver                   davidson          :
          :   write xtbopt.log                true          :
          :   linear?                        false          :
          :   energy convergence         0.5000000E-05 Eh   :
          :   grad. convergence          0.1000000E-02 Eh/α :
          :   maximium RF displ.         1.0000000          :
          :   Hlow (freq-cutoff)         0.1000000E-01      :
          :   Hmax (freq-cutoff)         5.0000000          :
          :   S6 in model hess.         20.0000000          :
          ...................................................

generating ANC from model Hessian ...
Using Lindh-Hessian (1995)
 Shifting diagonal of input Hessian by   9.758893204417128E-003
 Lowest  eigenvalues of input Hessian
    0.000000    0.000000    0.000000    0.000000    0.000000    0.000000
    0.010000    0.010061    0.010264    0.010941    0.011472    0.011908
    0.012887    0.012945    0.015186    0.015749    0.016716    0.017519
 Highest eigenvalues
    1.926537    1.940858    2.034934    2.155350    2.261490    2.354843
 

........................................................................
.............................. CYCLE    1 ..............................
........................................................................
   1    -81.0391296 -0.810391E+02  0.414E-06    0.10       0.0  T
   2    -81.0391296  0.160895E-09  0.373E-05    0.10     390.8  T
   3    -81.0391296 -0.163126E-09  0.147E-07    0.10   99234.3  T
     SCC iter.                  ...        0 min,  0.013 sec
     gradient                   ...        0 min,  0.089 sec
 * total energy  :   -80.1775497 Eh     change       -0.4237819E-09 Eh
   gradient norm :     0.0833236 Eh/α   predicted     0.0000000E+00 (-100.00%)
   displ. norm   :     0.2955281 α      lambda       -0.1310237E-01
   maximum displ.:     0.0797241 α      in ANC's #29, #69, #28, ...

........................................................................
.............................. CYCLE    2 ..............................
........................................................................
   1    -81.0346332 -0.810346E+02  0.170E-01    0.17       0.0  T
   2    -80.7048239  0.329809E+00  0.166E+00    0.22       1.0  T
   3    -81.0365313 -0.331707E+00  0.966E-02    0.14       1.0  T
   4    -81.0375309 -0.999598E-03  0.283E-02    0.12       1.0  T
   5    -81.0375466 -0.157220E-04  0.234E-02    0.10       1.0  T
   6    -81.0375912 -0.446458E-04  0.119E-02    0.11       1.2  T
   7    -81.0376067 -0.154751E-04  0.272E-03    0.11       5.4  T
   8    -81.0376075 -0.833298E-06  0.379E-04    0.11      38.4  T
   9    -81.0376075 -0.128987E-07  0.128E-04    0.11     113.7  T
  10    -81.0376075 -0.134146E-08  0.546E-05    0.11     267.1  T
     SCC iter.                  ...        0 min,  0.039 sec
     gradient                   ...        0 min,  0.089 sec
 * total energy  :   -80.1865740 Eh     change       -0.9024270E-02 Eh
   gradient norm :     0.0389029 Eh/α   predicted    -0.7126453E-02 ( -21.03%)
   displ. norm   :     0.2563085 α      lambda       -0.3961995E-02
   maximum displ.:     0.1390295 α      in ANC's #6, #7, #31, ...

........................................................................
.............................. CYCLE    3 ..............................
........................................................................
   1    -81.0397150 -0.810397E+02  0.141E-01    0.17       0.0  T
   2    -80.7299745  0.309740E+00  0.160E+00    0.16       1.0  T
   3    -81.0407861 -0.310812E+00  0.937E-02    0.15       1.0  T
   4    -81.0414595 -0.673415E-03  0.525E-02    0.13       1.0  T
   5    -81.0417527 -0.293207E-03  0.921E-03    0.12       1.6  T
   6    -81.0417586 -0.584783E-05  0.471E-03    0.11       3.1  T
   7    -81.0417607 -0.217866E-05  0.186E-03    0.11       7.9  T
   8    -81.0417612 -0.405214E-06  0.124E-04    0.11     118.0  T
   9    -81.0417611  0.485093E-08  0.227E-04    0.11      64.2  T
  10    -81.0417612 -0.422885E-08  0.114E-04    0.11     128.2  T
     SCC iter.                  ...        0 min,  0.039 sec
     gradient                   ...        0 min,  0.089 sec
 * total energy  :   -80.1888742 Eh     change       -0.2300208E-02 Eh
   gradient norm :     0.0112829 Eh/α   predicted    -0.2111862E-02 (  -8.19%)
   displ. norm   :     0.1824807 α      lambda       -0.5430434E-03
   maximum displ.:     0.1436844 α      in ANC's #6, #7, #20, ...

........................................................................
.............................. CYCLE    4 ..............................
........................................................................
   1    -81.0445645 -0.810446E+02  0.471E-02    0.13       0.0  T
   2    -81.0018904  0.426741E-01  0.597E-01    0.03       1.0  T
   3    -81.0447517 -0.428613E-01  0.242E-02    0.12       1.0  T
   4    -81.0447842 -0.324782E-04  0.164E-02    0.12       1.0  T
   5    -81.0448066 -0.224103E-04  0.785E-03    0.12       1.9  T
   6    -81.0448126 -0.605998E-05  0.217E-03    0.12       6.7  T
   7    -81.0448131 -0.443648E-06  0.740E-04    0.12      19.7  T
   8    -81.0448131 -0.520669E-07  0.295E-04    0.12      49.4  T
   9    -81.0448131 -0.956531E-08  0.103E-05    0.12    1417.8  T
  10    -81.0448131 -0.288480E-11  0.354E-06    0.12    4121.0  T
     SCC iter.                  ...        0 min,  0.039 sec
     gradient                   ...        0 min,  0.089 sec
 * total energy  :   -80.1892981 Eh     change       -0.4238898E-03 Eh
   gradient norm :     0.0059816 Eh/α   predicted    -0.2805695E-03 ( -33.81%)
   displ. norm   :     0.2835652 α      lambda       -0.5523178E-03
   maximum displ.:     0.2201418 α      in ANC's #6, #7, #20, ...

........................................................................
.............................. CYCLE    5 ..............................
........................................................................
   1    -81.0476800 -0.810477E+02  0.389E-02    0.13       0.0  T
   2    -81.0235251  0.241548E-01  0.451E-01    0.04       1.0  T
   3    -81.0478368 -0.243116E-01  0.146E-02    0.12       1.0  T
   4    -81.0478423 -0.551703E-05  0.117E-02    0.12       1.2  T
   5    -81.0478526 -0.102934E-04  0.615E-03    0.12       2.4  T
   6    -81.0478558 -0.319774E-05  0.251E-03    0.12       5.8  T
   7    -81.0478563 -0.560663E-06  0.981E-04    0.12      14.9  T
   8    -81.0478564 -0.965450E-07  0.335E-04    0.12      43.5  T
   9    -81.0478564 -0.123748E-07  0.360E-05    0.12     405.4  T
  10    -81.0478564 -0.501217E-10  0.252E-05    0.12     579.5  T
     SCC iter.                  ...        0 min,  0.039 sec
     gradient                   ...        0 min,  0.089 sec
 * total energy  :   -80.1897002 Eh     change       -0.4021023E-03 Eh
   gradient norm :     0.0060081 Eh/α   predicted    -0.2983654E-03 ( -25.80%)
   displ. norm   :     0.2359450 α      lambda       -0.2833427E-03
   maximum displ.:     0.1772519 α      in ANC's #6, #7, #8, ...

........................................................................
.............................. CYCLE    6 ..............................
........................................................................
   1    -81.0488072 -0.810488E+02  0.158E-02    0.12       0.0  T
   2    -81.0465543  0.225292E-02  0.139E-01    0.09       1.0  T
   3    -81.0488373 -0.228300E-02  0.386E-03    0.12       3.8  T
   4    -81.0488383 -0.103830E-05  0.150E-03    0.12       9.7  T
   5    -81.0488384 -0.108577E-06  0.509E-04    0.12      28.7  T
   6    -81.0488384  0.164336E-07  0.447E-04    0.12      32.6  T
   7    -81.0488384 -0.929917E-08  0.280E-04    0.12      52.2  T
   8    -81.0488384 -0.863555E-08  0.450E-05    0.12     324.3  T
   9    -81.0488384 -0.189843E-09  0.156E-05    0.12     936.9  T
     SCC iter.                  ...        0 min,  0.035 sec
     gradient                   ...        0 min,  0.089 sec
 * total energy  :   -80.1899176 Eh     change       -0.2173999E-03 Eh
   gradient norm :     0.0064935 Eh/α   predicted    -0.1495749E-03 ( -31.20%)
   displ. norm   :     0.2386592 α      lambda       -0.2195343E-03
   maximum displ.:     0.1697078 α      in ANC's #6, #8, #7, ...

........................................................................
.............................. CYCLE    7 ..............................
........................................................................
   1    -81.0489588 -0.810490E+02  0.648E-03    0.12       0.0  T
   2    -81.0487382  0.220566E-03  0.444E-02    0.11       1.0  T
   3    -81.0489608 -0.222589E-03  0.548E-03    0.12       2.7  T
   4    -81.0489621 -0.126686E-05  0.389E-03    0.12       3.7  T
   5    -81.0489635 -0.141876E-05  0.783E-04    0.12      18.6  T
   6    -81.0489636 -0.537578E-07  0.142E-04    0.12     102.5  T
   7    -81.0489636 -0.138461E-08  0.257E-05    0.12     567.7  T
     SCC iter.                  ...        0 min,  0.027 sec
     gradient                   ...        0 min,  0.089 sec
 * total energy  :   -80.1900848 Eh     change       -0.1672248E-03 Eh
   gradient norm :     0.0051005 Eh/α   predicted    -0.1160211E-03 ( -30.62%)
   displ. norm   :     0.2670731 α      lambda       -0.1788591E-03
   maximum displ.:     0.1777230 α      in ANC's #6, #8, #13, ...

........................................................................
.............................. CYCLE    8 ..............................
........................................................................
   1    -81.0486319 -0.810486E+02  0.477E-03    0.12       0.0  T
   2    -81.0486284  0.358176E-05  0.717E-03    0.12       2.0  T
   3    -81.0486255  0.283646E-05  0.769E-03    0.13       1.9  T
   4    -81.0486309 -0.539676E-05  0.457E-03    0.12       3.2  T
   5    -81.0486329 -0.200338E-05  0.620E-04    0.12      23.5  T
   6    -81.0486329 -0.161725E-07  0.307E-04    0.12      47.5  T
   7    -81.0486329 -0.832466E-08  0.996E-05    0.12     146.5  T
   8    -81.0486329 -0.947523E-09  0.131E-05    0.12    1111.7  T
     SCC iter.                  ...        0 min,  0.032 sec
     gradient                   ...        0 min,  0.089 sec
 * total energy  :   -80.1902067 Eh     change       -0.1218804E-03 Eh
   gradient norm :     0.0033919 Eh/α   predicted    -0.9580957E-04 ( -21.39%)
   displ. norm   :     0.1696813 α      lambda       -0.8441396E-04
   maximum displ.:     0.1027120 α      in ANC's #8, #6, #13, ...

........................................................................
.............................. CYCLE    9 ..............................
........................................................................
   1    -81.0488019 -0.810488E+02  0.578E-03    0.12       0.0  T
   2    -81.0487055  0.964891E-04  0.292E-02    0.14       1.0  T
   3    -81.0488050 -0.994962E-04  0.203E-03    0.13       7.2  T
   4    -81.0488049  0.810965E-07  0.173E-03    0.13       8.4  T
   5    -81.0488051 -0.239471E-06  0.435E-04    0.13      33.6  T
   6    -81.0488051 -0.519979E-08  0.212E-04    0.13      68.9  T
   7    -81.0488051 -0.418902E-08  0.375E-05    0.13     388.5  T
   8    -81.0488051 -0.707985E-10  0.224E-05    0.13     651.2  T
     SCC iter.                  ...        0 min,  0.032 sec
     gradient                   ...        0 min,  0.087 sec
 * total energy  :   -80.1902684 Eh     change       -0.6170311E-04 Eh
   gradient norm :     0.0026494 Eh/α   predicted    -0.4342411E-04 ( -29.62%)
   displ. norm   :     0.1575761 α      lambda       -0.7358695E-04
   maximum displ.:     0.1039008 α      in ANC's #8, #6, #4, ...

........................................................................
.............................. CYCLE   10 ..............................
........................................................................
   1    -81.0491204 -0.810491E+02  0.756E-03    0.13       0.0  T
   2    -81.0488977  0.222782E-03  0.448E-02    0.14       1.0  T
   3    -81.0491259 -0.228248E-03  0.391E-03    0.13       3.7  T
   4    -81.0491275 -0.154047E-05  0.810E-04    0.13      18.0  T
   5    -81.0491275 -0.822652E-08  0.306E-04    0.13      47.6  T
   6    -81.0491275 -0.419831E-09  0.741E-05    0.13     196.8  T
   7    -81.0491275  0.134534E-09  0.485E-05    0.13     300.7  T
     SCC iter.                  ...        0 min,  0.028 sec
     gradient                   ...        0 min,  0.095 sec
 * total energy  :   -80.1903241 Eh     change       -0.5572446E-04 Eh
   gradient norm :     0.0028288 Eh/α   predicted    -0.3770958E-04 ( -32.33%)
   displ. norm   :     0.1716537 α      lambda       -0.6758953E-04
   maximum displ.:     0.1067360 α      in ANC's #8, #3, #4, ...

........................................................................
.............................. CYCLE   11 ..............................
........................................................................
   1    -81.0491021 -0.810491E+02  0.668E-03    0.13       0.0  T
   2    -81.0489271  0.174938E-03  0.398E-02    0.14       1.0  T
   3    -81.0491061 -0.178936E-03  0.382E-03    0.13       3.8  T
   4    -81.0491074 -0.135575E-05  0.106E-03    0.13      13.8  T
   5    -81.0491075 -0.453665E-07  0.409E-04    0.13      35.6  T
   6    -81.0491075 -0.957546E-08  0.883E-05    0.13     165.1  T
   7    -81.0491075 -0.259803E-09  0.496E-05    0.13     294.4  T
     SCC iter.                  ...        0 min,  0.028 sec
     gradient                   ...        0 min,  0.095 sec
 * total energy  :   -80.1903749 Eh     change       -0.5082642E-04 Eh
   gradient norm :     0.0033808 Eh/α   predicted    -0.3479858E-04 ( -31.53%)
   displ. norm   :     0.1860088 α      lambda       -0.6081224E-04
   maximum displ.:     0.1059659 α      in ANC's #8, #3, #4, ...

........................................................................
.............................. CYCLE   12 ..............................
........................................................................
   1    -81.0488483 -0.810488E+02  0.332E-03    0.13       0.0  T
   2    -81.0488468  0.155707E-05  0.459E-03    0.13       3.2  T
   3    -81.0488431  0.365236E-05  0.699E-03    0.13       2.1  T
   4    -81.0488487 -0.554172E-05  0.156E-03    0.13       9.4  T
   5    -81.0488488 -0.149325E-06  0.675E-04    0.13      21.6  T
   6    -81.0488489 -0.414674E-07  0.107E-04    0.13     136.8  T
   7    -81.0488489 -0.731760E-09  0.236E-05    0.13     617.3  T
     SCC iter.                  ...        0 min,  0.028 sec
     gradient                   ...        0 min,  0.095 sec
 * total energy  :   -80.1904190 Eh     change       -0.4403050E-04 Eh
   gradient norm :     0.0033397 Eh/α   predicted    -0.3145860E-04 ( -28.55%)
   displ. norm   :     0.1537176 α      lambda       -0.4871109E-04
   maximum displ.:     0.0791738 α      in ANC's #3, #8, #4, ...

........................................................................
.............................. CYCLE   13 ..............................
........................................................................
   1    -81.0488394 -0.810488E+02  0.739E-03    0.14       0.0  T
   2    -81.0485815  0.257883E-03  0.476E-02    0.12       1.0  T
   3    -81.0488452 -0.263708E-03  0.161E-03    0.14       9.1  T
   4    -81.0488453 -0.530482E-07  0.105E-03    0.14      13.9  T
   5    -81.0488453 -0.428164E-07  0.557E-04    0.14      26.2  T
   6    -81.0488454 -0.211821E-07  0.233E-04    0.14      62.6  T
   7    -81.0488454 -0.465973E-08  0.610E-05    0.14     239.1  T
   8    -81.0488454 -0.395502E-09  0.814E-06    0.14    1790.9  T
     SCC iter.                  ...        0 min,  0.032 sec
     gradient                   ...        0 min,  0.095 sec
 * total energy  :   -80.1904561 Eh     change       -0.3713435E-04 Eh
   gradient norm :     0.0024265 Eh/α   predicted    -0.2493291E-04 ( -32.86%)
   displ. norm   :     0.1402786 α      lambda       -0.4651400E-04
   maximum displ.:     0.0856330 α      in ANC's #3, #8, #12, ...

........................................................................
.............................. CYCLE   14 ..............................
........................................................................
   1    -81.0488851 -0.810489E+02  0.111E-02    0.14       0.0  T
   2    -81.0481504  0.734674E-03  0.802E-02    0.12       1.0  T
   3    -81.0488998 -0.749442E-03  0.147E-03    0.14       9.9  T
   4    -81.0488999 -0.900258E-07  0.658E-04    0.14      22.2  T
   5    -81.0488999 -0.939167E-09  0.286E-04    0.14      50.9  T
   6    -81.0488999  0.392757E-08  0.250E-04    0.14      58.5  T
   7    -81.0488999 -0.494640E-08  0.919E-05    0.14     158.6  T
   8    -81.0488999 -0.969237E-09  0.436E-06    0.14    3343.8  T
     SCC iter.                  ...        0 min,  0.032 sec
     gradient                   ...        0 min,  0.095 sec
 * total energy  :   -80.1904911 Eh     change       -0.3503962E-04 Eh
   gradient norm :     0.0017700 Eh/α   predicted    -0.2371509E-04 ( -32.32%)
   displ. norm   :     0.1793004 α      lambda       -0.3641857E-04
   maximum displ.:     0.1207588 α      in ANC's #3, #12, #7, ...

........................................................................
.............................. CYCLE   15 ..............................
........................................................................
   1    -81.0489127 -0.810489E+02  0.130E-02    0.14       0.0  T
   2    -81.0478327  0.108006E-02  0.974E-02    0.12       1.0  T
   3    -81.0489334 -0.110073E-02  0.279E-03    0.14       5.2  T
   4    -81.0489339 -0.509829E-06  0.132E-03    0.14      11.0  T
   5    -81.0489340 -0.101828E-06  0.516E-04    0.14      28.3  T
   6    -81.0489340 -0.169913E-07  0.243E-04    0.14      60.0  T
   7    -81.0489340 -0.500742E-08  0.105E-04    0.14     138.5  T
   8    -81.0489340 -0.127368E-08  0.766E-06    0.14    1905.0  T
     SCC iter.                  ...        0 min,  0.033 sec
     gradient                   ...        0 min,  0.095 sec
 * total energy  :   -80.1905284 Eh     change       -0.3722566E-04 Eh
   gradient norm :     0.0025373 Eh/α   predicted    -0.1846992E-04 ( -50.38%)
   displ. norm   :     0.0886688 α      lambda       -0.2659847E-04
   maximum displ.:     0.0613234 α      in ANC's #3, #7, #12, ...

........................................................................
.............................. CYCLE   16 ..............................
........................................................................
   1    -81.0489650 -0.810490E+02  0.240E-03    0.14       0.0  T
   2    -81.0489426  0.224924E-04  0.143E-02    0.14       1.0  T
   3    -81.0489656 -0.230552E-04  0.111E-03    0.14      13.1  T
   4    -81.0489656 -0.230718E-07  0.893E-04    0.14      16.3  T
   5    -81.0489657 -0.668371E-07  0.238E-04    0.14      61.3  T
   6    -81.0489657 -0.512036E-08  0.498E-05    0.14     293.0  T
   7    -81.0489657 -0.200828E-09  0.834E-06    0.14    1748.1  T
     SCC iter.                  ...        0 min,  0.029 sec
     gradient                   ...        0 min,  0.095 sec
 * total energy  :   -80.1905531 Eh     change       -0.2475804E-04 Eh
   gradient norm :     0.0024392 Eh/α   predicted    -0.1340735E-04 ( -45.85%)
   displ. norm   :     0.2298266 α      lambda       -0.7875878E-04
   maximum displ.:     0.1554189 α      in ANC's #3, #7, #12, ...

........................................................................
.............................. CYCLE   17 ..............................
........................................................................
   1    -81.0492586 -0.810493E+02  0.489E-03    0.14       0.0  T
   2    -81.0492396  0.189999E-04  0.132E-02    0.15       1.1  T
   3    -81.0492560 -0.164301E-04  0.626E-03    0.14       2.3  T
   4    -81.0492600 -0.392964E-05  0.131E-03    0.14      11.1  T
   5    -81.0492600 -0.846247E-07  0.608E-04    0.14      24.0  T
   6    -81.0492601 -0.304213E-07  0.184E-04    0.14      79.3  T
   7    -81.0492601 -0.302801E-08  0.263E-05    0.14     553.6  T
     SCC iter.                  ...        0 min,  0.029 sec
     gradient                   ...        0 min,  0.095 sec
 * total energy  :   -80.1906212 Eh     change       -0.6807508E-04 Eh
   gradient norm :     0.0027156 Eh/α   predicted    -0.4146139E-04 ( -39.09%)
   displ. norm   :     0.4069641 α      lambda       -0.1181644E-03
   maximum displ.:     0.2779441 α      in ANC's #3, #7, #12, ...

........................................................................
.............................. CYCLE   18 ..............................
........................................................................
   1    -81.0480777 -0.810481E+02  0.116E-02    0.15       0.0  T
   2    -81.0478204  0.257279E-03  0.484E-02    0.17       1.0  T
   3    -81.0480888 -0.268444E-03  0.385E-03    0.15       3.8  T
   4    -81.0480896 -0.772340E-06  0.202E-03    0.15       7.2  T
   5    -81.0480899 -0.240086E-06  0.689E-04    0.15      21.2  T
   6    -81.0480899 -0.363805E-07  0.214E-04    0.15      68.2  T
   7    -81.0480899 -0.369265E-08  0.237E-05    0.15     614.6  T
   8    -81.0480899 -0.984812E-11  0.978E-06    0.15    1490.9  T
     SCC iter.                  ...        0 min,  0.033 sec
     gradient                   ...        0 min,  0.095 sec
 * total energy  :   -80.1907038 Eh     change       -0.8263658E-04 Eh
   gradient norm :     0.0058717 Eh/α   predicted    -0.6887128E-04 ( -16.66%)
   displ. norm   :     0.2785650 α      lambda       -0.9316385E-04
   maximum displ.:     0.1969065 α      in ANC's #3, #7, #2, ...

........................................................................
.............................. CYCLE   19 ..............................
........................................................................
   1    -81.0496760 -0.810497E+02  0.778E-03    0.15       0.0  T
   2    -81.0495823  0.937620E-04  0.294E-02    0.14       1.0  T
   3    -81.0496766 -0.943006E-04  0.620E-03    0.15       2.4  T
   4    -81.0496804 -0.382920E-05  0.144E-03    0.15      10.1  T
   5    -81.0496802  0.168920E-06  0.133E-03    0.15      11.0  T
   6    -81.0496804 -0.169815E-06  0.192E-04    0.15      76.0  T
   7    -81.0496804 -0.316514E-08  0.545E-05    0.15     267.7  T
     SCC iter.                  ...        0 min,  0.029 sec
     gradient                   ...        0 min,  0.095 sec
 * total energy  :   -80.1907628 Eh     change       -0.5893437E-04 Eh
   gradient norm :     0.0055432 Eh/α   predicted    -0.5019955E-04 ( -14.82%)
   displ. norm   :     0.3347835 α      lambda       -0.1028372E-03
   maximum displ.:     0.2375972 α      in ANC's #3, #7, #2, ...

........................................................................
.............................. CYCLE   20 ..............................
........................................................................
   1    -81.0483949 -0.810484E+02  0.134E-02    0.15       0.0  T
   2    -81.0480451  0.349849E-03  0.570E-02    0.18       1.0  T
   3    -81.0484130 -0.367916E-03  0.207E-03    0.16       7.1  T
   4    -81.0484130 -0.471050E-07  0.109E-03    0.16      13.4  T
   5    -81.0484130 -0.574373E-08  0.343E-04    0.16      42.5  T
   6    -81.0484130 -0.493189E-08  0.821E-05    0.16     177.8  T
   7    -81.0484130 -0.188834E-09  0.195E-05    0.16     746.3  T
     SCC iter.                  ...        0 min,  0.029 sec
     gradient                   ...        0 min,  0.095 sec
 * total energy  :   -80.1908441 Eh     change       -0.8138735E-04 Eh
   gradient norm :     0.0060774 Eh/α   predicted    -0.5718441E-04 ( -29.74%)
   displ. norm   :     0.4031706 α      lambda       -0.1412490E-03
   maximum displ.:     0.2914642 α      in ANC's #3, #2, #1, ...
 * RMSD in coord.:     0.4655010 α      energy gain  -0.1329445E-01 Eh

generating ANC from model Hessian ...
Using Lindh-Hessian (1995)
 Shifting diagonal of input Hessian by   9.755395766258078E-003
 Lowest  eigenvalues of input Hessian
    0.000000    0.000000    0.000000    0.000000    0.000000    0.000000
    0.010000    0.010060    0.010179    0.010878    0.011486    0.011697
    0.012482    0.012773    0.015031    0.015292    0.016429    0.017040
 Highest eigenvalues
    1.948266    1.982396    1.992075    2.192088    2.281666    2.359605
 

........................................................................
.............................. CYCLE   21 ..............................
........................................................................
   1    -81.0479613 -0.810480E+02  0.761E-03    0.16       0.0  T
   2    -81.0479187  0.426483E-04  0.201E-02    0.17       1.0  T
   3    -81.0479591 -0.403813E-04  0.720E-03    0.16       2.0  T
   4    -81.0479645 -0.547445E-05  0.962E-04    0.16      15.2  T
   5    -81.0479645  0.791545E-10  0.293E-04    0.16      49.8  T
   6    -81.0479645 -0.220629E-08  0.106E-04    0.16     138.0  T
   7    -81.0479645 -0.217653E-09  0.624E-05    0.16     233.6  T
     SCC iter.                  ...        0 min,  0.029 sec
     gradient                   ...        0 min,  0.095 sec
 * total energy  :   -80.1909391 Eh     change       -0.9492890E-04 Eh
   gradient norm :     0.0059284 Eh/α   predicted     0.0000000E+00 (-100.00%)
   displ. norm   :     0.0319223 α      lambda       -0.3826754E-04
   maximum displ.:     0.0144841 α      in ANC's #13, #18, #1, ...

........................................................................
.............................. CYCLE   22 ..............................
........................................................................
   1    -81.0494924 -0.810495E+02  0.121E-02    0.16       0.0  T
   2    -81.0490355  0.456873E-03  0.637E-02    0.14       1.0  T
   3    -81.0495035 -0.467959E-03  0.579E-03    0.16       2.5  T
   4    -81.0495060 -0.245678E-05  0.277E-03    0.16       5.3  T
   5    -81.0495066 -0.654000E-06  0.351E-04    0.16      41.5  T
   6    -81.0495066  0.323530E-08  0.208E-04    0.16      70.0  T
   7    -81.0495066 -0.450481E-08  0.438E-05    0.16     332.9  T
   8    -81.0495066 -0.134847E-09  0.228E-05    0.16     639.0  T
     SCC iter.                  ...        0 min,  0.033 sec
     gradient                   ...        0 min,  0.096 sec
 * total energy  :   -80.1909770 Eh     change       -0.3790003E-04 Eh
   gradient norm :     0.0020650 Eh/α   predicted    -0.2652191E-04 ( -30.02%)
   displ. norm   :     0.0584698 α      lambda       -0.3620084E-04
   maximum displ.:     0.0267328 α      in ANC's #13, #18, #1, ...

........................................................................
.............................. CYCLE   23 ..............................
........................................................................
   1    -81.0504695 -0.810505E+02  0.137E-02    0.17       0.0  T
   2    -81.0497907  0.678750E-03  0.775E-02    0.14       1.0  T
   3    -81.0504859 -0.695230E-03  0.522E-03    0.16       2.8  T
   4    -81.0504880 -0.209036E-05  0.249E-03    0.16       5.9  T
   5    -81.0504886 -0.567798E-06  0.319E-04    0.16      45.7  T
   6    -81.0504886 -0.120308E-08  0.113E-04    0.16     129.1  T
   7    -81.0504886 -0.109243E-08  0.484E-05    0.16     301.3  T
     SCC iter.                  ...        0 min,  0.031 sec
     gradient                   ...        0 min,  0.095 sec
 * total energy  :   -80.1910025 Eh     change       -0.2552510E-04 Eh
   gradient norm :     0.0018431 Eh/α   predicted    -0.1816348E-04 ( -28.84%)
   displ. norm   :     0.1236408 α      lambda       -0.2901968E-04
   maximum displ.:     0.0549687 α      in ANC's #13, #18, #1, ...

........................................................................
.............................. CYCLE   24 ..............................
........................................................................
   1    -81.0507463 -0.810507E+02  0.170E-02    0.17       0.0  T
   2    -81.0495704  0.117592E-02  0.102E-01    0.14       1.0  T
   3    -81.0507732 -0.120284E-02  0.591E-03    0.16       2.5  T
   4    -81.0507764 -0.315727E-05  0.223E-03    0.16       6.5  T
   5    -81.0507768 -0.477081E-06  0.236E-04    0.16      61.8  T
   6    -81.0507768 -0.268784E-09  0.650E-05    0.16     224.3  T
   7    -81.0507768  0.173699E-09  0.702E-05    0.16     207.8  T
     SCC iter.                  ...        0 min,  0.028 sec
     gradient                   ...        0 min,  0.095 sec
 * total energy  :   -80.1910309 Eh     change       -0.2836470E-04 Eh
   gradient norm :     0.0034093 Eh/α   predicted    -0.1461916E-04 ( -48.46%)
   displ. norm   :     0.0849177 α      lambda       -0.2547026E-04
   maximum displ.:     0.0335361 α      in ANC's #13, #1, #4, ...

........................................................................
.............................. CYCLE   25 ..............................
........................................................................
   1    -81.0504161 -0.810504E+02  0.374E-03    0.16       0.0  T
   2    -81.0503807  0.353404E-04  0.180E-02    0.16       1.0  T
   3    -81.0504174 -0.366816E-04  0.801E-04    0.16      18.2  T
   4    -81.0504175 -0.389504E-07  0.404E-04    0.16      36.1  T
   5    -81.0504175 -0.195161E-08  0.222E-04    0.16      65.7  T
   6    -81.0504175 -0.434983E-08  0.297E-05    0.16     491.3  T
   7    -81.0504175 -0.405862E-10  0.130E-05    0.16    1122.6  T
     SCC iter.                  ...        0 min,  0.029 sec
     gradient                   ...        0 min,  0.095 sec
 * total energy  :   -80.1910526 Eh     change       -0.2172322E-04 Eh
   gradient norm :     0.0026878 Eh/α   predicted    -0.1282734E-04 ( -40.95%)
   displ. norm   :     0.2258513 α      lambda       -0.5793606E-04
   maximum displ.:     0.0873317 α      in ANC's #4, #1, #13, ...

........................................................................
.............................. CYCLE   26 ..............................
........................................................................
   1    -81.0491484 -0.810491E+02  0.469E-03    0.17       0.0  T
   2    -81.0491483  0.125660E-06  0.305E-03    0.17       4.8  T
   3    -81.0491406  0.767119E-05  0.885E-03    0.16       1.6  T
   4    -81.0491492 -0.853238E-05  0.930E-04    0.17      15.7  T
   5    -81.0491492  0.818790E-08  0.531E-04    0.17      27.5  T
   6    -81.0491492 -0.236850E-07  0.915E-05    0.17     159.3  T
   7    -81.0491492 -0.604430E-09  0.174E-05    0.17     837.1  T
     SCC iter.                  ...        0 min,  0.028 sec
     gradient                   ...        0 min,  0.095 sec
 * total energy  :   -80.1910907 Eh     change       -0.3811816E-04 Eh
   gradient norm :     0.0026501 Eh/α   predicted    -0.3045246E-04 ( -20.11%)
   displ. norm   :     0.1337509 α      lambda       -0.2717365E-04
   maximum displ.:     0.0564048 α      in ANC's #1, #4, #7, ...

........................................................................
.............................. CYCLE   27 ..............................
........................................................................
   1    -81.0489204 -0.810489E+02  0.563E-03    0.17       0.0  T
   2    -81.0488571  0.633215E-04  0.241E-02    0.18       1.0  T
   3    -81.0489234 -0.663356E-04  0.111E-03    0.17      13.2  T
   4    -81.0489235 -0.406963E-07  0.692E-04    0.17      21.1  T
   5    -81.0489235 -0.251534E-07  0.273E-04    0.17      53.4  T
   6    -81.0489235 -0.634888E-08  0.711E-05    0.17     205.0  T
   7    -81.0489235 -0.429623E-09  0.906E-06    0.17    1610.5  T
     SCC iter.                  ...        0 min,  0.028 sec
     gradient                   ...        0 min,  0.095 sec
 * total energy  :   -80.1911126 Eh     change       -0.2192014E-04 Eh
   gradient norm :     0.0029460 Eh/α   predicted    -0.1384805E-04 ( -36.83%)
   displ. norm   :     0.2025554 α      lambda       -0.5148197E-04
   maximum displ.:     0.0913781 α      in ANC's #1, #4, #7, ...

........................................................................
.............................. CYCLE   28 ..............................
........................................................................
   1    -81.0493229 -0.810493E+02  0.136E-02    0.17       0.0  T
   2    -81.0489827  0.340216E-03  0.566E-02    0.19       1.0  T
   3    -81.0493428 -0.360080E-03  0.143E-03    0.17      10.2  T
   4    -81.0493427  0.268570E-07  0.136E-03    0.17      10.7  T
   5    -81.0493429 -0.138636E-06  0.386E-04    0.17      37.8  T
   6    -81.0493429 -0.114965E-07  0.555E-05    0.17     262.9  T
   7    -81.0493429 -0.150621E-09  0.168E-05    0.17     867.9  T
     SCC iter.                  ...        0 min,  0.029 sec
     gradient                   ...        0 min,  0.095 sec
 * total energy  :   -80.1911501 Eh     change       -0.3744751E-04 Eh
   gradient norm :     0.0029965 Eh/α   predicted    -0.2679789E-04 ( -28.44%)
   displ. norm   :     0.1706887 α      lambda       -0.3962076E-04
   maximum displ.:     0.0834531 α      in ANC's #1, #4, #7, ...

........................................................................
.............................. CYCLE   29 ..............................
........................................................................
   1    -81.0498778 -0.810499E+02  0.104E-02    0.17       0.0  T
   2    -81.0496593  0.218501E-03  0.453E-02    0.19       1.0  T
   3    -81.0498898 -0.230453E-03  0.159E-03    0.17       9.2  T
   4    -81.0498899 -0.194968E-06  0.595E-04    0.17      24.5  T
   5    -81.0498900 -0.262966E-08  0.374E-04    0.17      39.0  T
   6    -81.0498900 -0.114987E-07  0.384E-05    0.17     379.8  T
   7    -81.0498900 -0.410552E-10  0.157E-05    0.17     926.2  T
     SCC iter.                  ...        0 min,  0.030 sec
     gradient                   ...        0 min,  0.096 sec
 * total energy  :   -80.1911809 Eh     change       -0.3087063E-04 Eh
   gradient norm :     0.0029432 Eh/α   predicted    -0.2039049E-04 ( -33.95%)
   displ. norm   :     0.2136497 α      lambda       -0.5213628E-04
   maximum displ.:     0.1088657 α      in ANC's #1, #4, #7, ...

........................................................................
.............................. CYCLE   30 ..............................
........................................................................
   1    -81.0505288 -0.810505E+02  0.735E-03    0.17       0.0  T
   2    -81.0504147  0.114037E-03  0.327E-02    0.19       1.0  T
   3    -81.0505348 -0.120074E-03  0.173E-03    0.17       8.4  T
   4    -81.0505350 -0.210911E-06  0.603E-04    0.17      24.2  T
   5    -81.0505350 -0.143064E-08  0.302E-04    0.17      48.4  T
   6    -81.0505350 -0.557014E-08  0.701E-05    0.17     208.2  T
   7    -81.0505350 -0.286960E-09  0.310E-05    0.17     471.2  T
     SCC iter.                  ...        0 min,  0.032 sec
     gradient                   ...        0 min,  0.096 sec
 * total energy  :   -80.1912230 Eh     change       -0.4209401E-04 Eh
   gradient norm :     0.0028723 Eh/α   predicted    -0.2727449E-04 ( -35.21%)
   displ. norm   :     0.3367600 α      lambda       -0.6990786E-04
   maximum displ.:     0.1734328 α      in ANC's #1, #4, #7, ...

........................................................................
.............................. CYCLE   31 ..............................
........................................................................
   1    -81.0496980 -0.810497E+02  0.560E-03    0.17       0.0  T
   2    -81.0496595  0.385588E-04  0.192E-02    0.18       1.0  T
   3    -81.0497004 -0.409745E-04  0.148E-03    0.17       9.9  T
   4    -81.0497005 -0.901844E-07  0.743E-04    0.18      19.6  T
   5    -81.0497005 -0.903424E-08  0.275E-04    0.18      53.0  T
   6    -81.0497005 -0.339799E-08  0.976E-05    0.18     149.4  T
   7    -81.0497005 -0.625548E-09  0.402E-05    0.18     363.1  T
     SCC iter.                  ...        0 min,  0.034 sec
     gradient                   ...        0 min,  0.095 sec
 * total energy  :   -80.1912748 Eh     change       -0.5175323E-04 Eh
   gradient norm :     0.0031273 Eh/α   predicted    -0.3891781E-04 ( -24.80%)
   displ. norm   :     0.2838548 α      lambda       -0.8320436E-04
   maximum displ.:     0.1512494 α      in ANC's #1, #8, #4, ...

........................................................................
.............................. CYCLE   32 ..............................
........................................................................
   1    -81.0517467 -0.810517E+02  0.174E-02    0.18       0.0  T
   2    -81.0508395  0.907187E-03  0.902E-02    0.15       1.0  T
   3    -81.0517751 -0.935608E-03  0.520E-03    0.18       2.8  T
   4    -81.0517774 -0.232595E-05  0.168E-03    0.18       8.7  T
   5    -81.0517775 -0.508047E-07  0.859E-04    0.18      17.0  T
   6    -81.0517776 -0.554043E-07  0.199E-04    0.18      73.2  T
   7    -81.0517776 -0.276468E-08  0.915E-05    0.18     159.4  T
     SCC iter.                  ...        0 min,  0.033 sec
     gradient                   ...        0 min,  0.097 sec
 * total energy  :   -80.1913088 Eh     change       -0.3405990E-04 Eh
   gradient norm :     0.0047883 Eh/α   predicted    -0.4496716E-04 (  32.02%)
   displ. norm   :     0.2148291 α      lambda       -0.5610429E-04
   maximum displ.:     0.1175067 α      in ANC's #1, #4, #7, ...

........................................................................
.............................. CYCLE   33 ..............................
........................................................................
   1    -81.0498157 -0.810498E+02  0.758E-03    0.18       0.0  T
   2    -81.0497480  0.677639E-04  0.252E-02    0.17       1.0  T
   3    -81.0498177 -0.697586E-04  0.420E-03    0.18       3.5  T
   4    -81.0498193 -0.162920E-05  0.116E-03    0.18      12.6  T
   5    -81.0498193  0.118172E-07  0.504E-04    0.18      28.9  T
   6    -81.0498193 -0.236168E-07  0.549E-05    0.18     265.8  T
   7    -81.0498193  0.184684E-09  0.508E-05    0.18     287.1  T
     SCC iter.                  ...        0 min,  0.035 sec
     gradient                   ...        0 min,  0.095 sec
 * total energy  :   -80.1913421 Eh     change       -0.3325589E-04 Eh
   gradient norm :     0.0021506 Eh/α   predicted    -0.2935014E-04 ( -11.74%)
   displ. norm   :     0.0458583 α      lambda       -0.2506208E-04
   maximum displ.:     0.0285080 α      in ANC's #1, #10, #22, ...

........................................................................
.............................. CYCLE   34 ..............................
........................................................................
   1    -81.0506837 -0.810507E+02  0.117E-02    0.18       0.0  T
   2    -81.0502679  0.415819E-03  0.614E-02    0.16       1.0  T
   3    -81.0506989 -0.431018E-03  0.157E-03    0.18       9.3  T
   4    -81.0506991 -0.197337E-06  0.505E-04    0.18      28.9  T
   5    -81.0506990  0.338440E-07  0.583E-04    0.18      25.0  T
   6    -81.0506991 -0.344712E-07  0.901E-05    0.18     161.8  T
   7    -81.0506991 -0.746851E-09  0.356E-05    0.18     409.7  T
     SCC iter.                  ...        0 min,  0.033 sec
     gradient                   ...        0 min,  0.095 sec
 * total energy  :   -80.1913607 Eh     change       -0.1861660E-04 Eh
   gradient norm :     0.0014027 Eh/α   predicted    -0.1255926E-04 ( -32.54%)
   displ. norm   :     0.1314080 α      lambda       -0.2670601E-04
   maximum displ.:     0.0872561 α      in ANC's #1, #4, #2, ...

........................................................................
.............................. CYCLE   35 ..............................
........................................................................
   1    -81.0515499 -0.810515E+02  0.121E-02    0.18       0.0  T
   2    -81.0511117  0.438215E-03  0.631E-02    0.16       1.0  T
   3    -81.0515664 -0.454671E-03  0.129E-03    0.18      11.3  T
   4    -81.0515664 -0.469128E-07  0.687E-04    0.18      21.2  T
   5    -81.0515664  0.347888E-07  0.652E-04    0.18      22.4  T
   6    -81.0515664 -0.418225E-07  0.121E-04    0.18     120.3  T
   7    -81.0515664 -0.130535E-08  0.429E-05    0.18     340.0  T
     SCC iter.                  ...        0 min,  0.030 sec
     gradient                   ...        0 min,  0.097 sec
 * total energy  :   -80.1913836 Eh     change       -0.2285146E-04 Eh
   gradient norm :     0.0024212 Eh/α   predicted    -0.1345907E-04 ( -41.10%)
   displ. norm   :     0.0583638 α      lambda       -0.1230756E-04
   maximum displ.:     0.0420507 α      in ANC's #1, #4, #2, ...

........................................................................
.............................. CYCLE   36 ..............................
........................................................................
   1    -81.0511933 -0.810512E+02  0.213E-03    0.18       0.0  T
   2    -81.0511880  0.530506E-05  0.704E-03    0.18       2.1  T
   3    -81.0511935 -0.542528E-05  0.149E-03    0.18       9.8  T
   4    -81.0511937 -0.208945E-06  0.383E-04    0.18      38.1  T
   5    -81.0511937 -0.823054E-08  0.927E-05    0.18     157.4  T
   6    -81.0511937 -0.294293E-09  0.183E-05    0.18     798.4  T
     SCC iter.                  ...        0 min,  0.052 sec
     gradient                   ...        0 min,  0.090 sec
 * total energy  :   -80.1913945 Eh     change       -0.1094663E-04 Eh
   gradient norm :     0.0020105 Eh/α   predicted    -0.6184663E-05 ( -43.50%)
   displ. norm   :     0.0853677 α      lambda       -0.2294165E-04
   maximum displ.:     0.0591818 α      in ANC's #1, #4, #6, ...

........................................................................
.............................. CYCLE   37 ..............................
........................................................................
   1    -81.0508396 -0.810508E+02  0.108E-02    0.18       0.0  T
   2    -81.0506389  0.200715E-03  0.437E-02    0.20       1.0  T
   3    -81.0508523 -0.213353E-03  0.963E-04    0.18      15.2  T
   4    -81.0508523 -0.566911E-07  0.372E-04    0.18      39.2  T
   5    -81.0508523 -0.225184E-08  0.128E-04    0.18     113.6  T
   6    -81.0508523 -0.136140E-10  0.483E-05    0.18     301.9  T
     SCC iter.                  ...        0 min,  0.026 sec
     gradient                   ...        0 min,  0.091 sec
 * total energy  :   -80.1914130 Eh     change       -0.1843801E-04 Eh
   gradient norm :     0.0009690 Eh/α   predicted    -0.1155594E-04 ( -37.33%)
   displ. norm   :     0.1676588 α      lambda       -0.2074659E-04
   maximum displ.:     0.1171651 α      in ANC's #1, #4, #2, ...

........................................................................
.............................. CYCLE   38 ..............................
........................................................................
   1    -81.0503199 -0.810503E+02  0.140E-02    0.18       0.0  T
   2    -81.0500075  0.312357E-03  0.546E-02    0.20       1.0  T
   3    -81.0503407 -0.333117E-03  0.111E-03    0.18      13.1  T
   4    -81.0503407 -0.566059E-07  0.497E-04    0.18      29.3  T
   5    -81.0503407 -0.388567E-08  0.181E-04    0.18      80.7  T
   6    -81.0503407 -0.499625E-09  0.537E-05    0.18     271.7  T
     SCC iter.                  ...        0 min,  0.026 sec
     gradient                   ...        0 min,  0.092 sec
 * total energy  :   -80.1914337 Eh     change       -0.2075108E-04 Eh
   gradient norm :     0.0021340 Eh/α   predicted    -0.1050577E-04 ( -49.37%)
   displ. norm   :     0.0674758 α      lambda       -0.1043691E-04
   maximum displ.:     0.0491947 α      in ANC's #1, #4, #2, ...

........................................................................
.............................. CYCLE   39 ..............................
........................................................................
   1    -81.0503645 -0.810504E+02  0.696E-04    0.18       0.0  T
   2    -81.0503645 -0.187934E-07  0.274E-04    0.18      53.2  T
   3    -81.0503645  0.195343E-07  0.471E-04    0.18      31.0  T
   4    -81.0503645 -0.206959E-07  0.156E-04    0.18      93.4  T
   5    -81.0503645 -0.149768E-08  0.455E-05    0.18     320.8  T
     SCC iter.                  ...        0 min,  0.022 sec
     gradient                   ...        0 min,  0.093 sec
 * total energy  :   -80.1914434 Eh     change       -0.9721517E-05 Eh
   gradient norm :     0.0019218 Eh/α   predicted    -0.5245386E-05 ( -46.04%)
   displ. norm   :     0.1423133 α      lambda       -0.1833513E-04
   maximum displ.:     0.1036769 α      in ANC's #1, #4, #2, ...

........................................................................
.............................. CYCLE   40 ..............................
........................................................................
   1    -81.0507432 -0.810507E+02  0.607E-03    0.18       0.0  T
   2    -81.0506615  0.817055E-04  0.274E-02    0.17       1.0  T
   3    -81.0507467 -0.852109E-04  0.143E-03    0.18      10.2  T
   4    -81.0507469 -0.194563E-06  0.333E-04    0.18      43.8  T
   5    -81.0507469  0.221989E-08  0.217E-04    0.18      67.2  T
   6    -81.0507469 -0.377344E-08  0.320E-05    0.18     455.9  T
   7    -81.0507469 -0.151488E-10  0.203E-05    0.18     718.7  T
     SCC iter.                  ...        0 min,  0.031 sec
     gradient                   ...        0 min,  0.094 sec
 * total energy  :   -80.1914661 Eh     change       -0.2266060E-04 Eh
   gradient norm :     0.0007962 Eh/α   predicted    -0.9252270E-05 ( -59.17%)
   displ. norm   :     0.1701860 α      lambda       -0.1668756E-04
   maximum displ.:     0.1260120 α      in ANC's #1, #4, #2, ...

........................................................................
.............................. CYCLE   41 ..............................
........................................................................
   1    -81.0506687 -0.810507E+02  0.321E-03    0.18       0.0  T
   2    -81.0506505  0.182717E-04  0.130E-02    0.18       1.1  T
   3    -81.0506696 -0.191222E-04  0.105E-03    0.18      13.9  T
   4    -81.0506697 -0.978149E-07  0.266E-04    0.18      54.8  T
   5    -81.0506697  0.162990E-08  0.168E-04    0.18      87.0  T
   6    -81.0506697 -0.207325E-08  0.308E-05    0.18     473.8  T
     SCC iter.                  ...        0 min,  0.030 sec
     gradient                   ...        0 min,  0.091 sec
 * total energy  :   -80.1914871 Eh     change       -0.2105387E-04 Eh
   gradient norm :     0.0012119 Eh/α   predicted    -0.8453021E-05 ( -59.85%)
   displ. norm   :     0.1489566 α      lambda       -0.1346979E-04
   maximum displ.:     0.1117012 α      in ANC's #1, #4, #2, ...

........................................................................
.............................. CYCLE   42 ..............................
........................................................................
   1    -81.0506221 -0.810506E+02  0.143E-03    0.18       0.0  T
   2    -81.0506189  0.313707E-05  0.544E-03    0.18       2.7  T
   3    -81.0506222 -0.329857E-05  0.437E-04    0.18      33.3  T
   4    -81.0506222 -0.138960E-07  0.158E-04    0.18      92.4  T
   5    -81.0506222 -0.440153E-09  0.620E-05    0.18     235.4  T
     SCC iter.                  ...        0 min,  0.022 sec
     gradient                   ...        0 min,  0.090 sec
 * total energy  :   -80.1915053 Eh     change       -0.1818179E-04 Eh
   gradient norm :     0.0013570 Eh/α   predicted    -0.6803728E-05 ( -62.58%)
   displ. norm   :     0.1594881 α      lambda       -0.1543032E-04
   maximum displ.:     0.1207174 α      in ANC's #1, #4, #2, ...
 * RMSD in coord.:     0.3965380 α      energy gain  -0.6611830E-03 Eh

generating ANC from model Hessian ...
Using Lindh-Hessian (1995)
 Shifting diagonal of input Hessian by   9.759484734751352E-003
 Lowest  eigenvalues of input Hessian
    0.000000    0.000000    0.000000    0.000000    0.000000    0.000000
    0.010000    0.010060    0.010171    0.010892    0.011453    0.011632
    0.012409    0.012913    0.014856    0.015315    0.016641    0.016871
 Highest eigenvalues
    1.951952    1.985023    1.994947    2.190357    2.293208    2.361905
 

........................................................................
.............................. CYCLE   43 ..............................
........................................................................
   1    -81.0505711 -0.810506E+02  0.491E-03    0.18       0.0  T
   2    -81.0505217  0.494128E-04  0.216E-02    0.19       1.0  T
   3    -81.0505738 -0.520964E-04  0.403E-04    0.18      36.2  T
   4    -81.0505738 -0.384075E-08  0.209E-04    0.18      69.9  T
   5    -81.0505738 -0.165707E-08  0.598E-05    0.18     243.9  T
   6    -81.0505738 -0.153875E-09  0.166E-05    0.18     877.3  T
     SCC iter.                  ...        0 min,  0.026 sec
     gradient                   ...        0 min,  0.091 sec
 * total energy  :   -80.1915266 Eh     change       -0.2128965E-04 Eh
   gradient norm :     0.0013448 Eh/α   predicted     0.0000000E+00 (-100.00%)
   displ. norm   :     0.0295464 α      lambda       -0.5163633E-05
   maximum displ.:     0.0223891 α      in ANC's #1, #13, #2, ...

........................................................................
.............................. CYCLE   44 ..............................
........................................................................
   1    -81.0508391 -0.810508E+02  0.415E-03    0.18       0.0  T
   2    -81.0508062  0.328628E-04  0.176E-02    0.19       1.0  T
   3    -81.0508408 -0.346284E-04  0.525E-04    0.18      27.8  T
   4    -81.0508408 -0.930117E-08  0.269E-04    0.18      54.3  T
   5    -81.0508408 -0.785292E-09  0.867E-05    0.18     168.3  T
   6    -81.0508408 -0.359165E-09  0.161E-05    0.18     908.3  T
     SCC iter.                  ...        0 min,  0.026 sec
     gradient                   ...        0 min,  0.080 sec
 * total energy  :   -80.1915352 Eh     change       -0.8538884E-05 Eh
   gradient norm :     0.0005811 Eh/α   predicted    -0.3331460E-05 ( -60.98%)
   displ. norm   :     0.0829858 α      lambda       -0.1357983E-04
   maximum displ.:     0.0578134 α      in ANC's #1, #13, #2, ...

........................................................................
.............................. CYCLE   45 ..............................
........................................................................
   1    -81.0508784 -0.810509E+02  0.923E-03    0.18       0.0  T
   2    -81.0507267  0.151702E-03  0.378E-02    0.19       1.0  T
   3    -81.0508874 -0.160673E-03  0.643E-04    0.18      22.7  T
   4    -81.0508874 -0.147463E-07  0.299E-04    0.18      48.8  T
   5    -81.0508874 -0.750205E-09  0.126E-04    0.18     116.1  T
   6    -81.0508874 -0.265032E-09  0.301E-05    0.18     485.1  T
     SCC iter.                  ...        0 min,  0.026 sec
     gradient                   ...        0 min,  0.090 sec
 * total energy  :   -80.1915510 Eh     change       -0.1586275E-04 Eh
   gradient norm :     0.0009656 Eh/α   predicted    -0.6811270E-05 ( -57.06%)
   displ. norm   :     0.1055756 α      lambda       -0.1191158E-04
   maximum displ.:     0.0744741 α      in ANC's #1, #2, #13, ...

........................................................................
.............................. CYCLE   46 ..............................
........................................................................
   1    -81.0507977 -0.810508E+02  0.694E-03    0.18       0.0  T
   2    -81.0507056  0.921067E-04  0.294E-02    0.19       1.0  T
   3    -81.0508028 -0.972253E-04  0.482E-04    0.18      30.2  T
   4    -81.0508028 -0.110611E-07  0.222E-04    0.18      65.7  T
   5    -81.0508028 -0.704674E-09  0.109E-04    0.18     134.2  T
   6    -81.0508028 -0.521567E-09  0.289E-05    0.18     505.6  T
     SCC iter.                  ...        0 min,  0.026 sec
     gradient                   ...        0 min,  0.092 sec
 * total energy  :   -80.1915656 Eh     change       -0.1453547E-04 Eh
   gradient norm :     0.0014743 Eh/α   predicted    -0.6000483E-05 ( -58.72%)
   displ. norm   :     0.1101651 α      lambda       -0.1133860E-04
   maximum displ.:     0.0775944 α      in ANC's #1, #2, #13, ...

........................................................................
.............................. CYCLE   47 ..............................
........................................................................
   1    -81.0507112 -0.810507E+02  0.331E-03    0.18       0.0  T
   2    -81.0506882  0.229697E-04  0.146E-02    0.18       1.0  T
   3    -81.0507124 -0.241398E-04  0.304E-04    0.18      47.9  T
   4    -81.0507124 -0.377196E-08  0.129E-04    0.18     113.0  T
   5    -81.0507124 -0.112294E-09  0.532E-05    0.18     274.4  T
     SCC iter.                  ...        0 min,  0.022 sec
     gradient                   ...        0 min,  0.092 sec
 * total energy  :   -80.1915805 Eh     change       -0.1491616E-04 Eh
   gradient norm :     0.0013446 Eh/α   predicted    -0.5708446E-05 ( -61.73%)
   displ. norm   :     0.1219877 α      lambda       -0.1316089E-04
   maximum displ.:     0.0863429 α      in ANC's #1, #2, #3, ...

........................................................................
.............................. CYCLE   48 ..............................
........................................................................
   1    -81.0506385 -0.810506E+02  0.129E-03    0.18       0.0  T
   2    -81.0506361  0.238130E-05  0.475E-03    0.18       3.1  T
   3    -81.0506386 -0.251087E-05  0.415E-04    0.18      35.2  T
   4    -81.0506386 -0.951611E-08  0.182E-04    0.18      80.0  T
   5    -81.0506386 -0.714707E-09  0.595E-05    0.18     245.3  T
     SCC iter.                  ...        0 min,  0.021 sec
     gradient                   ...        0 min,  0.091 sec
 * total energy  :   -80.1915974 Eh     change       -0.1688227E-04 Eh
   gradient norm :     0.0008014 Eh/α   predicted    -0.6624472E-05 ( -60.76%)
   displ. norm   :     0.1226036 α      lambda       -0.1266616E-04
   maximum displ.:     0.0881359 α      in ANC's #1, #2, #3, ...

........................................................................
.............................. CYCLE   49 ..............................
........................................................................
   1    -81.0506724 -0.810507E+02  0.972E-04    0.18       0.0  T
   2    -81.0506721  0.257767E-06  0.169E-03    0.18       8.6  T
   3    -81.0506723 -0.165531E-06  0.110E-03    0.18      13.3  T
   4    -81.0506724 -0.130905E-06  0.265E-04    0.18      55.0  T
   5    -81.0506724 -0.387318E-08  0.496E-05    0.18     293.9  T
   6    -81.0506725 -0.334524E-10  0.118E-05    0.18    1239.7  T
     SCC iter.                  ...        0 min,  0.026 sec
     gradient                   ...        0 min,  0.091 sec
 * total energy  :   -80.1916134 Eh     change       -0.1603033E-04 Eh
   gradient norm :     0.0004679 Eh/α   predicted    -0.6378088E-05 ( -60.21%)
   displ. norm   :     0.1151425 α      lambda       -0.1048189E-04
   maximum displ.:     0.0836333 α      in ANC's #1, #2, #3, ...

........................................................................
.............................. CYCLE   50 ..............................
........................................................................
   1    -81.0507010 -0.810507E+02  0.142E-03    0.18       0.0  T
   2    -81.0506972  0.379186E-05  0.597E-03    0.18       2.4  T
   3    -81.0507012 -0.398870E-05  0.223E-04    0.18      65.3  T
   4    -81.0507012  0.157701E-08  0.206E-04    0.18      70.9  T
   5    -81.0507012 -0.234415E-08  0.513E-05    0.18     284.4  T
   6    -81.0507012 -0.125496E-09  0.103E-05    0.18    1410.3  T
     SCC iter.                  ...        0 min,  0.026 sec
     gradient                   ...        0 min,  0.091 sec
 * total energy  :   -80.1916272 Eh     change       -0.1380891E-04 Eh
   gradient norm :     0.0007153 Eh/α   predicted    -0.5272376E-05 ( -61.82%)
   displ. norm   :     0.1103309 α      lambda       -0.1000032E-04
   maximum displ.:     0.0799924 α      in ANC's #1, #2, #3, ...

........................................................................
.............................. CYCLE   51 ..............................
........................................................................
   1    -81.0507646 -0.810508E+02  0.213E-03    0.18       0.0  T
   2    -81.0507547  0.993573E-05  0.962E-03    0.18       1.5  T
   3    -81.0507651 -0.104255E-04  0.223E-04    0.18      65.5  T
   4    -81.0507651  0.176030E-09  0.140E-04    0.18     104.5  T
   5    -81.0507651 -0.566800E-09  0.500E-05    0.18     291.7  T
     SCC iter.                  ...        0 min,  0.022 sec
     gradient                   ...        0 min,  0.091 sec
 * total energy  :   -80.1916411 Eh     change       -0.1386410E-04 Eh
   gradient norm :     0.0008861 Eh/α   predicted    -0.5028065E-05 ( -63.73%)
   displ. norm   :     0.1338309 α      lambda       -0.1278071E-04
   maximum displ.:     0.0954476 α      in ANC's #1, #2, #3, ...

........................................................................
.............................. CYCLE   52 ..............................
........................................................................
   1    -81.0507670 -0.810508E+02  0.309E-03    0.18       0.0  T
   2    -81.0507465  0.204915E-04  0.138E-02    0.18       1.1  T
   3    -81.0507680 -0.215048E-04  0.276E-04    0.18      52.9  T
   4    -81.0507680 -0.318349E-08  0.112E-04    0.18     130.7  T
   5    -81.0507680 -0.156106E-09  0.391E-05    0.18     373.3  T
     SCC iter.                  ...        0 min,  0.022 sec
     gradient                   ...        0 min,  0.090 sec
 * total energy  :   -80.1916591 Eh     change       -0.1806542E-04 Eh
   gradient norm :     0.0008649 Eh/α   predicted    -0.6441572E-05 ( -64.34%)
   displ. norm   :     0.1914136 α      lambda       -0.1877602E-04
   maximum displ.:     0.1348406 α      in ANC's #1, #2, #3, ...

........................................................................
.............................. CYCLE   53 ..............................
........................................................................
   1    -81.0506700 -0.810507E+02  0.432E-03    0.18       0.0  T
   2    -81.0506322  0.377777E-04  0.187E-02    0.18       1.0  T
   3    -81.0506719 -0.396603E-04  0.587E-04    0.18      24.8  T
   4    -81.0506719 -0.278270E-07  0.162E-04    0.18      89.8  T
   5    -81.0506719 -0.172832E-09  0.660E-05    0.18     220.9  T
     SCC iter.                  ...        0 min,  0.031 sec
     gradient                   ...        0 min,  0.099 sec
 * total energy  :   -80.1916854 Eh     change       -0.2625502E-04 Eh
   gradient norm :     0.0007414 Eh/α   predicted    -0.9541638E-05 ( -63.66%)
   displ. norm   :     0.2577564 α      lambda       -0.2456647E-04
   maximum displ.:     0.1806904 α      in ANC's #1, #2, #3, ...

........................................................................
.............................. CYCLE   54 ..............................
........................................................................
   1    -81.0504741 -0.810505E+02  0.484E-03    0.18       0.0  T
   2    -81.0504292  0.449920E-04  0.204E-02    0.18       1.0  T
   3    -81.0504763 -0.471428E-04  0.113E-03    0.18      12.9  T
   4    -81.0504764 -0.117644E-06  0.270E-04    0.18      53.9  T
   5    -81.0504764 -0.140741E-08  0.120E-04    0.18     121.3  T
   6    -81.0504764 -0.973330E-09  0.296E-05    0.18     492.6  T
     SCC iter.                  ...        0 min,  0.026 sec
     gradient                   ...        0 min,  0.090 sec
 * total energy  :   -80.1917196 Eh     change       -0.3419444E-04 Eh
   gradient norm :     0.0006956 Eh/α   predicted    -0.1264656E-04 ( -63.02%)
   displ. norm   :     0.3276059 α      lambda       -0.2985830E-04
   maximum displ.:     0.2303592 α      in ANC's #1, #2, #3, ...

........................................................................
.............................. CYCLE   55 ..............................
........................................................................
   1    -81.0501912 -0.810502E+02  0.455E-03    0.17       0.0  T
   2    -81.0501555  0.357022E-04  0.182E-02    0.18       1.0  T
   3    -81.0501927 -0.371551E-04  0.182E-03    0.18       8.0  T
   4    -81.0501930 -0.329560E-06  0.350E-04    0.18      41.7  T
   5    -81.0501930 -0.208104E-08  0.144E-04    0.18     101.5  T
   6    -81.0501930 -0.144288E-08  0.245E-05    0.18     595.3  T
     SCC iter.                  ...        0 min,  0.024 sec
     gradient                   ...        0 min,  0.091 sec
 * total energy  :   -80.1917592 Eh     change       -0.3965850E-04 Eh
   gradient norm :     0.0007297 Eh/α   predicted    -0.1564219E-04 ( -60.56%)
   displ. norm   :     0.2913301 α      lambda       -0.2410158E-04
   maximum displ.:     0.2078025 α      in ANC's #1, #2, #3, ...

........................................................................
.............................. CYCLE   56 ..............................
........................................................................
   1    -81.0502222 -0.810502E+02  0.288E-03    0.17       0.0  T
   2    -81.0502094  0.127963E-04  0.109E-02    0.18       1.3  T
   3    -81.0502226 -0.131951E-04  0.157E-03    0.17       9.3  T
   4    -81.0502229 -0.246129E-06  0.325E-04    0.18      44.9  T
   5    -81.0502229 -0.287216E-08  0.123E-04    0.18     118.8  T
   6    -81.0502229 -0.117943E-08  0.157E-05    0.18     929.0  T
     SCC iter.                  ...        0 min,  0.026 sec
     gradient                   ...        0 min,  0.091 sec
 * total energy  :   -80.1917912 Eh     change       -0.3199071E-04 Eh
   gradient norm :     0.0007330 Eh/α   predicted    -0.1250919E-04 ( -60.90%)
   displ. norm   :     0.2323543 α      lambda       -0.1876947E-04
   maximum displ.:     0.1695592 α      in ANC's #1, #2, #3, ...

........................................................................
.............................. CYCLE   57 ..............................
........................................................................
   1    -81.0505136 -0.810505E+02  0.187E-03    0.17       0.0  T
   2    -81.0505094  0.423976E-05  0.631E-03    0.18       2.3  T
   3    -81.0505137 -0.433935E-05  0.114E-03    0.17      12.8  T
   4    -81.0505139 -0.131481E-06  0.236E-04    0.17      61.9  T
   5    -81.0505139 -0.596984E-09  0.542E-05    0.17     269.1  T
   6    -81.0505139 -0.658815E-10  0.125E-05    0.17    1163.4  T
     SCC iter.                  ...        0 min,  0.025 sec
     gradient                   ...        0 min,  0.090 sec
 * total energy  :   -80.1918168 Eh     change       -0.2560293E-04 Eh
   gradient norm :     0.0006650 Eh/α   predicted    -0.9613425E-05 ( -62.45%)
   displ. norm   :     0.1919071 α      lambda       -0.1599258E-04
   maximum displ.:     0.1435542 α      in ANC's #1, #2, #3, ...

........................................................................
.............................. CYCLE   58 ..............................
........................................................................
   1    -81.0506607 -0.810507E+02  0.172E-03    0.17       0.0  T
   2    -81.0506561  0.463664E-05  0.657E-03    0.18       2.2  T
   3    -81.0506609 -0.482215E-05  0.730E-04    0.17      20.0  T
   4    -81.0506609 -0.481454E-07  0.188E-04    0.17      77.5  T
   5    -81.0506609  0.281801E-09  0.829E-05    0.17     175.9  T
     SCC iter.                  ...        0 min,  0.020 sec
     gradient                   ...        0 min,  0.090 sec
 * total energy  :   -80.1918389 Eh     change       -0.2207249E-04 Eh
   gradient norm :     0.0005955 Eh/α   predicted    -0.8128530E-05 ( -63.17%)
   displ. norm   :     0.1564287 α      lambda       -0.1364505E-04
   maximum displ.:     0.1203818 α      in ANC's #1, #2, #3, ...

........................................................................
.............................. CYCLE   59 ..............................
........................................................................
   1    -81.0507979 -0.810508E+02  0.117E-03    0.17       0.0  T
   2    -81.0507966  0.133412E-05  0.353E-03    0.17       4.1  T
   3    -81.0507979 -0.129553E-05  0.110E-03    0.17      13.3  T
   4    -81.0507980 -0.120745E-06  0.221E-04    0.17      65.9  T
   5    -81.0507980 -0.228795E-08  0.441E-05    0.17     330.8  T
   6    -81.0507980 -0.194120E-10  0.131E-05    0.17    1116.6  T
     SCC iter.                  ...        0 min,  0.023 sec
     gradient                   ...        0 min,  0.090 sec
 * total energy  :   -80.1918578 Eh     change       -0.1894993E-04 Eh
   gradient norm :     0.0004572 Eh/α   predicted    -0.6899096E-05 ( -63.59%)
   displ. norm   :     0.1283364 α      lambda       -0.1127731E-04
   maximum displ.:     0.1017769 α      in ANC's #1, #2, #3, ...

........................................................................
.............................. CYCLE   60 ..............................
........................................................................
   1    -81.0508643 -0.810509E+02  0.107E-03    0.17       0.0  T
   2    -81.0508623  0.195180E-05  0.425E-03    0.17       3.4  T
   3    -81.0508644 -0.203835E-05  0.367E-04    0.17      39.7  T
   4    -81.0508644 -0.942815E-08  0.123E-04    0.17     118.4  T
   5    -81.0508644 -0.224532E-10  0.440E-05    0.17     331.2  T
     SCC iter.                  ...        0 min,  0.020 sec
     gradient                   ...        0 min,  0.090 sec
 * total energy  :   -80.1918737 Eh     change       -0.1584899E-04 Eh
   gradient norm :     0.0004210 Eh/α   predicted    -0.5681820E-05 ( -64.15%)
   displ. norm   :     0.1024791 α      lambda       -0.9144320E-05
   maximum displ.:     0.0837758 α      in ANC's #1, #2, #3, ...

........................................................................
[...]
H30-C3-C2-C1=289.43           H30-C3-C2-C8=166.88           H30-C3-C2-H29= 45.51          F5-C4-C3-C2=184.68            
F5-C4-C3-H30=  0.78           C6-C4-C3-C2=  8.05            C6-C4-C3-H30=184.15           C7-C6-C4-C3=  4.26            
C7-C6-C4-F5=187.60            H31-C6-C4-C3=178.75           H31-C6-C4-F5=  2.08           C8-C7-C6-C4=354.16            
C8-C7-C6-H31=179.72           H32-C7-C6-C4=172.17           H32-C7-C6-H31=357.74          C7-C8-C2-C1=253.17            
C7-C8-C2-C3= 15.60            C7-C8-C2-H29=136.69           C9-C8-C2-C1= 72.48            C9-C8-C2-C3=194.91            
C9-C8-C2-H29=316.00           C2-C8-C7-C6=355.11            C2-C8-C7-H32=177.10           C9-C8-C7-C6=175.82            
C9-C8-C7-H32=357.82           N10-C9-C8-C2=124.67           N10-C9-C8-C7=303.99           H33-C9-C8-C2=  4.47           
H33-C9-C8-C7=183.79           H34-C9-C8-C2=244.15           H34-C9-C8-C7= 63.47           C11-N10-C9-C8=129.26          
C11-N10-C9-H33=250.74         C11-N10-C9-H34=  6.56         H35-N10-C9-C8=316.84          H35-N10-C9-H33= 78.33         
H35-N10-C9-H34=194.15         
           -------------------------------------------------
          |                Final Singlepoint                |
           -------------------------------------------------

          ...................................................
          :                      SETUP                      :
          :.................................................:
          :  # basis functions                 144          :
          :  # atomic orbitals                 144          :
          :  # shells                           94          :
          :  # electrons                       136          :
          :  # halogen bonds                     0          :
          :  max. iterations                   250          :
          :  Hamiltonian                  GFN1-xTB          :
          :  restarted?                      false          :
          :  GBSA solvation                   true          :
          :  PC potential                    false          :
          :  electronic temp.          300.0000000     K    :
          :  accuracy                    1.0000000          :
          :  -> integral cutoff          0.2500000E+02      :
          :  -> integral neglect         0.1000000E-07      :
          :  -> SCF convergence          0.1000000E-05 Eh   :
          :  -> wf. convergence          0.2000000E-04 e    :
          :  Broyden damping             0.4000000          :
          ...................................................

 iter      E             dE          RMSdq      gap      omega  full diag
   1    -81.0509304 -0.810509E+02  0.558E-06    0.18       0.0  T
   2    -81.0509304  0.305391E-10  0.170E-05    0.18     859.9  T
   3    -81.0509304 -0.313634E-10  0.337E-06    0.18    4326.2  T

   *** convergence criteria satisfied after 3 iterations ***

         #    Occupation            Energy/Eh            Energy/eV
      -------------------------------------------------------------
         1        2.0000           -0.8056115             -21.9218
       ...           ...                  ...                  ...
        62        2.0000           -0.4175089             -11.3610
        63        2.0000           -0.4123872             -11.2216
        64        2.0000           -0.4082814             -11.1099
        65        2.0000           -0.4059605             -11.0467
        66        2.0000           -0.3990206             -10.8579
        67        2.0000           -0.3791828             -10.3181
        68        1.9345           -0.2974171              -8.0931 (HOMO)
        69        0.0655           -0.2909850              -7.9181 (LUMO)
        70                         -0.2542704              -6.9191
        71                         -0.2037753              -5.5450
        72                         -0.1981000              -5.3906
        73                         -0.1307602              -3.5582
       ...                                ...                  ...
       144                          0.7108330              19.3427
      -------------------------------------------------------------
                  HL-Gap            0.0064321 Eh            0.1750 eV
             Fermi-level           -0.2942011 Eh           -8.0056 eV

 SCC (total)                   0 d,  0 h,  0 min,  0.150 sec
 SCC setup                      ...        0 min,  0.002 sec (  1.532%)
 Dispersion                     ...        0 min,  0.000 sec (  0.303%)
 classical contributions        ...        0 min,  0.000 sec (  0.102%)
 integral evaluation            ...        0 min,  0.038 sec ( 25.253%)
 iterations                     ...        0 min,  0.013 sec (  8.782%)
 molecular gradient             ...        0 min,  0.095 sec ( 63.217%)
 printout                       ...        0 min,  0.001 sec (  0.765%)

         :::::::::::::::::::::::::::::::::::::::::::::::::::::
         ::                     SUMMARY                     ::
         :::::::::::::::::::::::::::::::::::::::::::::::::::::
         :: total energy             -80.191955066963 Eh    ::
         :: total w/o Gsasa/hb       -80.165072769672 Eh    ::
         :: gradient norm              0.000209462986 Eh/a0 ::
         :: HOMO-LUMO gap              0.175026058995 eV    ::
         ::.................................................::
         :: SCC energy               -81.050930430104 Eh    ::
         :: -> electrostatic           0.327820943390 Eh    ::
         :: -> Gsolv                  -0.105094801193 Eh    ::
         ::    -> Gelec               -0.078212503902 Eh    ::
         ::    -> Gsasa               -0.025010618085 Eh    ::
         ::    -> Ghb                 -0.009495958211 Eh    ::
         ::    -> Gshift               0.007624279005 Eh    ::
         :: repulsion energy           0.888686065558 Eh    ::
         :: dispersion energy         -0.029710702418 Eh    ::
         :: halogen bond corr.         0.000000000000 Eh    ::
         :: add. restraining           0.000000000000 Eh    ::
         :: total charge              -1.000000000000 e     ::
         :::::::::::::::::::::::::::::::::::::::::::::::::::::

           -------------------------------------------------
          |                Property Printout                |
           -------------------------------------------------

    * Orbital Energies and Occupations

         #    Occupation            Energy/Eh            Energy/eV
      -------------------------------------------------------------
         1        2.0000           -0.8056115             -21.9218
       ...           ...                  ...                  ...
        56        2.0000           -0.4541489             -12.3580
        57        2.0000           -0.4466550             -12.1541
        58        2.0000           -0.4434991             -12.0682
        59        2.0000           -0.4366418             -11.8816
        60        2.0000           -0.4271722             -11.6239
        61        2.0000           -0.4228014             -11.5050
        62        2.0000           -0.4175089             -11.3610
        63        2.0000           -0.4123872             -11.2216
        64        2.0000           -0.4082814             -11.1099
        65        2.0000           -0.4059605             -11.0467
        66        2.0000           -0.3990206             -10.8579
        67        2.0000           -0.3791828             -10.3181
        68        1.9345           -0.2974171              -8.0931 (HOMO)
        69        0.0655           -0.2909850              -7.9181 (LUMO)
        70                         -0.2542704              -6.9191
        71                         -0.2037753              -5.5450
        72                         -0.1981000              -5.3906
        73                         -0.1307602              -3.5582
        74                         -0.1262378              -3.4351
        75                         -0.1245517              -3.3892
        76                         -0.1166191              -3.1734
        77                         -0.1099662              -2.9923
        78                         -0.0972359              -2.6459
        79                         -0.0945712              -2.5734
       ...                                ...                  ...
       144                          0.7108330              19.3427
      -------------------------------------------------------------
                  HL-Gap            0.0064321 Eh            0.1750 eV
             Fermi-level           -0.2942011 Eh           -8.0056 eV

  Mulliken/CM5 charges         n(s)   n(p)   n(d)
     1C    -0.09892 -0.24659   1.017  3.082  0.000
     2C     0.02923 -0.03021   1.045  2.926  0.000
     3C    -0.19955 -0.25192   1.040  3.160  0.000
     4C     0.23695  0.24680   1.051  2.712  0.000
     5F    -0.33442 -0.35739   1.846  5.488  0.000
     6C    -0.21258 -0.26375   1.024  3.189  0.000
     7C    -0.02806 -0.07923   1.047  2.981  0.000
     8C    -0.12528 -0.13709   1.071  3.054  0.000
     9C     0.10192  0.05715   1.007  2.892  0.000
    10N    -0.33954 -0.69835   1.432  3.908  0.000
    11C     0.44939  0.55677   0.981  2.570  0.000
    12O    -0.63514 -0.67486   1.736  4.899  0.000
    13C     0.06322  0.14232   1.052  2.885  0.000
    14N    -0.37871 -0.56626   1.524  3.854  0.000
    15C     0.25907  0.41034   1.022  2.719  0.000
    16C     0.14615  0.18029   1.065  2.789  0.000
    17C    -0.10112 -0.24062   1.019  3.082  0.000
    18C    -0.10511 -0.24653   1.019  3.087  0.000
    19N    -0.51441 -0.97665   1.472  4.042  0.000
    20N    -0.22119 -0.46783   1.453  3.768  0.000
    21C     0.05020 -0.03665   0.989  2.961  0.000
    22C     0.41025  0.50956   0.986  2.603  0.000
    23O    -0.62794 -0.67841   1.735  4.893  0.000
    24C     0.17994  0.21246   1.023  2.798  0.000
    25O    -0.53865 -0.73901   1.703  4.836  0.000
    26H     0.00951  0.06242   0.990  0.000  0.000
    27H     0.01341  0.06535   0.987  0.000  0.000
    28H     0.01152  0.06389   0.988  0.000  0.000
    29H    -0.01017  0.04769   1.010  0.000  0.000
    30H     0.00885  0.06588   0.991  0.000  0.000
    31H     0.00503  0.06184   0.995  0.000  0.000
    32H    -0.00573  0.05322   1.006  0.000  0.000
    33H     0.01413  0.07943   0.986  0.000  0.000
    34H     0.03089  0.10204   0.969  0.000  0.000
    35H     0.23674  0.44518   0.763  0.000  0.000
    36H     0.03683  0.09539   0.963  0.000  0.000
    37H     0.03392  0.08955   0.966  0.000  0.000
    38H     0.03609  0.09404   0.964  0.000  0.000
    39H     0.04469  0.09983   0.955  0.000  0.000
    40H     0.03693  0.09157   0.963  0.000  0.000
    41H     0.03845  0.09636   0.962  0.000  0.000
    42H     0.22232  0.41341   0.778  0.000  0.000
    43H     0.22009  0.41073   0.780  0.000  0.000
    44H     0.04651  0.12178   0.953  0.000  0.000
    45H     0.06113  0.12981   0.939  0.000  0.000
    46H     0.04668  0.10980   0.953  0.000  0.000
    47H     0.39646  0.57644   0.604  0.000  0.000

Wiberg/Mayer (AO) data.
largest (>0.10) Wiberg bond orders for each atom

 ---------------------------------------------------------------------------
     #   Z sym  total        # sym  WBO       # sym  WBO       # sym  WBO
 ---------------------------------------------------------------------------
     1   6 C    3.974 --    26 H    0.989    27 H    0.987    28 H    0.986
                             2 C    0.966
     2   6 C    3.992 --     3 C    1.008     8 C    1.000     1 C    0.966
                            29 H    0.965
     3   6 C    3.842 --     4 C    1.599     2 C    1.008    30 H    0.975
     4   6 C    3.834 --     3 C    1.599     6 C    1.282     5 F    0.868
     5   9 F    0.980 --     4 C    0.868
     6   6 C    3.804 --     7 C    1.315     4 C    1.282    31 H    0.977
     7   6 C    3.995 --     8 C    1.595     6 C    1.315    32 H    0.972
     8   6 C    3.881 --     7 C    1.595     9 C    1.003     2 C    1.000
     9   6 C    3.938 --     8 C    1.003    33 H    0.974    34 H    0.968
                            10 N    0.921
    10   7 N    3.349 --    11 C    1.268     9 C    0.921    35 H    0.900
                            12 O    0.167
    11   6 C    3.900 --    12 O    1.528    10 N    1.268    13 C    1.011
    12   8 O    1.816 --    11 C    1.528    10 N    0.167
    13   6 C    3.900 --    24 C    1.442    14 N    1.188    11 C    1.011
    14   7 N    3.027 --    15 C    1.576    13 C    1.188
    15   6 C    3.903 --    14 N    1.576    20 N    1.155    16 C    0.975
    16   6 C    3.966 --    17 C    0.992    18 C    0.986    19 N    0.978
                            15 C    0.975
    17   6 C    3.995 --    16 C    0.992    37 H    0.986    36 H    0.984
                            38 H    0.983
    18   6 C    3.993 --    16 C    0.986    40 H    0.986    39 H    0.983
                            41 H    0.982
    19   7 N    2.992 --    16 C    0.978    43 H    0.942    42 H    0.942
    20   7 N    3.443 --    15 C    1.155    22 C    1.100    21 C    0.936
                            23 O    0.118
    21   6 C    3.931 --    46 H    0.978    45 H    0.977    44 H    0.970
                            20 N    0.936
    22   6 C    3.881 --    23 O    1.496    24 C    1.144    20 N    1.100
    23   8 O    1.829 --    22 C    1.496    20 N    0.118
    24   6 C    3.859 --    13 C    1.442    22 C    1.144    25 O    1.043
    25   8 O    2.033 --    24 C    1.043    47 H    0.815
    26   1 H    1.017 --     1 C    0.989
    27   1 H    1.011 --     1 C    0.987
    28   1 H    1.009 --     1 C    0.986
    29   1 H    1.010 --     2 C    0.965
    30   1 H    1.003 --     3 C    0.975
    31   1 H    1.004 --     6 C    0.977
    32   1 H    1.006 --     7 C    0.972
    33   1 H    1.012 --     9 C    0.974
    34   1 H    1.021 --     9 C    0.968
    35   1 H    0.964 --    10 N    0.900
    36   1 H    1.011 --    17 C    0.984
    37   1 H    1.005 --    17 C    0.986
    38   1 H    1.015 --    17 C    0.983
    39   1 H    1.001 --    18 C    0.983
    40   1 H    1.004 --    18 C    0.986
    41   1 H    1.005 --    18 C    0.982
    42   1 H    0.956 --    19 N    0.942
    43   1 H    0.958 --    19 N    0.942
    44   1 H    1.030 --    21 C    0.970
    45   1 H    1.011 --    21 C    0.977
    46   1 H    1.004 --    21 C    0.978
    47   1 H    0.860 --    25 O    0.815
 ---------------------------------------------------------------------------

Topologies differ in total number of bonds
Writing topology from bond orders to xtbtopo.mol

 dipole moment from electron density (au)
     X       Y       Z   
  -8.2274   0.9759  -1.1841  total (Debye):   21.272

           -------------------------------------------------
          |                Geometry Summary                 |
           -------------------------------------------------

      molecular mass/u    :      349.3806376
   center of mass at/Å    :        0.3475168      -0.3241608       0.0121495
  moments of inertia/u·Å² :        0.1027135E+04   0.5666052E+04   0.6281508E+04
rotational constants/cm⁻¹ :        0.1641228E-01   0.2975199E-02   0.2683692E-02

 * 40 selected distances

     #   Z          #   Z                                           value/Å
     3   6 C        4   6 C                                       1.3535399
     4   6 C        6   6 C                                       1.4019332
     6   6 C        7   6 C                                       1.4084085
     7   6 C        8   6 C                                       1.3669831
     9   6 C       10   7 N                                       1.4701902
    10   7 N       11   6 C                                       1.3466042
    11   6 C       12   8 O                                       1.2344520
    13   6 C       14   7 N                                       1.3709962
    14   7 N       15   6 C                                       1.2930240
    16   6 C       17   6 C                                       1.5378631 (max)
    16   6 C       18   6 C                                       1.5353349
    16   6 C       19   7 N                                       1.4634341
    15   6 C       20   7 N                                       1.3768065
    20   7 N       21   6 C                                       1.4613708
    20   7 N       22   6 C                                       1.3925664
    22   6 C       23   8 O                                       1.2386807
    13   6 C       24   6 C                                       1.3761417
    24   6 C       25   8 O                                       1.3617208
     1   6 C       26   1 H                                       1.0904984
     1   6 C       27   1 H                                       1.0904317
     1   6 C       28   1 H                                       1.0905302
     2   6 C       29   1 H                                       1.1058716
     3   6 C       30   1 H                                       1.0828452
     6   6 C       31   1 H                                       1.0806585
     7   6 C       32   1 H                                       1.0894252
     9   6 C       33   1 H                                       1.0978620
     9   6 C       34   1 H                                       1.0983235
    10   7 N       35   1 H                                       1.0070048
    17   6 C       36   1 H                                       1.0893951
    17   6 C       37   1 H                                       1.0884195
    17   6 C       38   1 H                                       1.0897361
    18   6 C       39   1 H                                       1.0891101
    18   6 C       40   1 H                                       1.0898100
    18   6 C       41   1 H                                       1.0878063
    19   7 N       42   1 H                                       1.0094741
    19   7 N       43   1 H                                       1.0116026
    21   6 C       44   1 H                                       1.0861071
    21   6 C       45   1 H                                       1.0909029
    21   6 C       46   1 H                                       1.0910662
    25   8 O       47   1 H                                       0.9743454 (min)

 * 6 distinct bonds (by element types)

   Z      Z             #   av. dist./Å        max./Å        min./Å
   1 H    6 C          18     1.0904889     1.1058716     1.0806585
   6 C    6 C           7     1.4257435     1.5378631     1.3535399
   1 H    7 N           3     1.0093605     1.0116026     1.0070048
   6 C    7 N           8     1.3968740     1.4701902     1.2930240
   1 H    8 O           1     0.9743454     0.9743454     0.9743454
   6 C    8 O           3     1.2782845     1.3617208     1.2344520


optimized geometry written to: xtbopt.xyz


           -------------------------------------------------
          | TOTAL ENERGY              -80.191955066963 Eh   |
          | GRADIENT NORM               0.000209462986 Eh/α |
          | HOMO-LUMO GAP               0.175026058995 eV   |
           -------------------------------------------------

------------------------------------------------------------------------
 * finished run on 2023/06/20 at 15:06:03.223     
------------------------------------------------------------------------
 total:
 * wall-time:     0 d,  0 h,  0 min, 11.852 sec
 *  cpu-time:     0 d,  0 h,  0 min, 11.577 sec
 * ratio c/w:     0.977 speedup
 SCF:
 * wall-time:     0 d,  0 h,  0 min,  0.288 sec
 *  cpu-time:     0 d,  0 h,  0 min,  0.205 sec
 * ratio c/w:     0.714 speedup
 ANC optimizer:
 * wall-time:     0 d,  0 h,  0 min, 11.381 sec
 *  cpu-time:     0 d,  0 h,  0 min, 11.317 sec
 * ratio c/w:     0.994 speedup

