      -----------------------------------------------------------      
     |                   =====================                   |     
     |                           x T B                           |     
     |                   =====================                   |     
     |                         S. Grimme                         |     
     |          Mulliken Center for Theoretical Chemistry        |     
     |                    University of Bonn                     |     
      -----------------------------------------------------------      

   * xtb version 6.5.1 (579679a) compiled by 'ehlert@majestix' on 2022-07-11

   xtb is free software: you can redistribute it and/or modify it under
   the terms of the GNU Lesser General Public License as published by
   the Free Software Foundation, either version 3 of the License, or
   (at your option) any later version.
   
   xtb is distributed in the hope that it will be useful,
   but WITHOUT ANY WARRANTY; without even the implied warranty of
   MERCHANTABILITY or FITNESS FOR A PARTICULAR PURPOSE.  See the
   GNU Lesser General Public License for more details.
   
   Cite this work as:
   * C. Bannwarth, E. Caldeweyher, S. Ehlert, A. Hansen, P. Pracht,
     J. Seibert, S. Spicher, S. Grimme, WIREs Comput. Mol. Sci., 2020, 11,
     e01493. DOI: 10.1002/wcms.1493
   
   for GFN2-xTB:
   * C. Bannwarth, S. Ehlert and S. Grimme., J. Chem. Theory Comput., 2019,
     15, 1652-1671. DOI: 10.1021/acs.jctc.8b01176
   for GFN1-xTB:
   * S. Grimme, C. Bannwarth, P. Shushkov, J. Chem. Theory Comput., 2017,
     13, 1989-2009. DOI: 10.1021/acs.jctc.7b00118
   for GFN0-xTB:
   * P. Pracht, E. Caldeweyher, S. Ehlert, S. Grimme, ChemRxiv, 2019, preprint.
     DOI: 10.26434/chemrxiv.8326202.v1
   for GFN-FF:
   * S. Spicher and S. Grimme, Angew. Chem. Int. Ed., 2020, 59, 15665-15673.
     DOI: 10.1002/anie.202004239
   
   for ALPB and GBSA implicit solvation:
   * S. Ehlert, M. Stahn, S. Spicher, S. Grimme, J. Chem. Theory Comput.,
     2021, 17, 4250-4261. DOI: 10.1021/acs.jctc.1c00471
   
   for DFT-D4:
   * E. Caldeweyher, C. Bannwarth and S. Grimme, J. Chem. Phys., 2017,
     147, 034112. DOI: 10.1063/1.4993215
   * E. Caldeweyher, S. Ehlert, A. Hansen, H. Neugebauer, S. Spicher,
     C. Bannwarth and S. Grimme, J. Chem. Phys., 2019, 150, 154122.
     DOI: 10.1063/1.5090222
   * E. Caldeweyher, J.-M. Mewes, S. Ehlert and S. Grimme, Phys. Chem. Chem. Phys.
     2020, 22, 8499-8512. DOI: 10.1039/D0CP00502A
   
   for sTDA-xTB:
   * S. Grimme and C. Bannwarth, J. Chem. Phys., 2016, 145, 054103.
     DOI: 10.1063/1.4959605
   
   in the mass-spec context:
   * V. Asgeirsson, C. Bauer and S. Grimme, Chem. Sci., 2017, 8, 4879.
     DOI: 10.1039/c7sc00601b
   * J. Koopman and S. Grimme, ACS Omega 2019, 4, 12, 15120-15133.
     DOI: 10.1021/acsomega.9b02011
   
   for metadynamics refer to:
   * S. Grimme, J. Chem. Theory Comput., 2019, 155, 2847-2862
     DOI: 10.1021/acs.jctc.9b00143
   
   for SPH calculations refer to:
   * S. Spicher and S. Grimme, J. Chem. Theory Comput., 2021, 17, 1701-1714
     DOI: 10.1021/acs.jctc.0c01306
   
   with help from (in alphabetical order)
   P. Atkinson, C. Bannwarth, F. Bohle, G. Brandenburg, E. Caldeweyher
   M. Checinski, S. Dohm, S. Ehlert, S. Ehrlich, I. Gerasimov, C. Hölzer
   A. Katbashev, J. Koopman, C. Lavigne, S. Lehtola, F. März, M. Müller,
   F. Musil, H. Neugebauer, J. Pisarek, C. Plett, P. Pracht, F. Pultar,
   J. Seibert, P. Shushkov, S. Spicher, M. Stahn, M. Steiner, T. Strunk,
   J. Stückrath, T. Rose, and J. Unsleber
   
 * started run on 2023/06/21 at 17:22:57.829     

           -------------------------------------------------
          |                Calculation Setup                |
           -------------------------------------------------

          program call               : /lustre/hpc/kemi/ree/PhD/git/ReactivityQM/dep/xtb-6.5.1/bin/xtb --gfn 1 /lustre/hpc/kemi/ree/PhD/git/ReactivityQM/calculations/R02oxygendeprot/reac01prodN07/conf16/R02oxygendeprot_reac01prodN07_conf16_gfn1.xyz --opt --vfukui --chrg 0 --uhf 0 --alpb DMSO
          hostname                   : node070
          coordinate file            : /lustre/hpc/kemi/ree/PhD/git/ReactivityQM/calculations/R02oxygendeprot/reac01prodN07/conf16/R02oxygendeprot_reac01prodN07_conf16_gfn1.xyz
          omp threads                :                     1

   ID    Z sym.   atoms
    1    6 C      1, 3, 5, 7-10, 12, 14, 17-19, 22, 24
    2    8 O      2, 4, 13, 20, 23, 25
    3    7 N      6, 11, 15, 16, 21
    4    1 H      26-42

           -------------------------------------------------
          |                 G F N 1 - x T B                 |
           -------------------------------------------------

        Reference                      10.1021/acs.jctc.7b00118
      * Hamiltonian:
        H0-scaling (s, p, d)           1.850000    2.250000    2.000000
        zeta-weighting                 0.000000
      * Dispersion:
        s8                             2.400000
        a1                             0.630000
        a2                             5.000000
        s9                             0.000000
      * Repulsion:
        kExp                           1.500000
        rExp                           1.000000
      * Coulomb:
        alpha                          2.000000
        third order                    atomic
        anisotropic                    false
      * Halogen bond correction:
        rad-scale                      1.300000
        damping                        0.440000

      * Solvation model:               ALPB
        Solvent                        DMSO
        Parameter file                 internal GFN1-xTB/ALPB
        Dielectric constant                4.6680E+01
        Reference state                gsolv [1 M gas/solution]
        Free energy shift                  7.6243E-03 Eh       4.7843E+00 kcal/mol
        Temperature                        2.9815E+02 K
        Density                            1.1000E+00 kg/L
        Solvent mass                       7.8130E+01 g/mol
        Interaction kernel             P16
        Born radius scaling (c1)           1.7672E+00
        Born radii integrator          GBOBC
        Born offset                        0.0000E+00 a0       0.0000E+00 AA
        H-bond correction              true
        Ion screening                  false
        Surface tension                    1.0000E-05 Eh       1.5569E+01 dyn/cm
        Grid points                               230 per atom

          ...................................................
          :                      SETUP                      :
          :.................................................:
          :  # basis functions                 134          :
          :  # atomic orbitals                 134          :
          :  # shells                           84          :
          :  # electrons                       134          :
          :  # halogen bonds                     0          :
          :  max. iterations                   250          :
          :  Hamiltonian                  GFN1-xTB          :
          :  restarted?                      false          :
          :  GBSA solvation                   true          :
          :  PC potential                    false          :
          :  electronic temp.          300.0000000     K    :
          :  accuracy                    1.0000000          :
          :  -> integral cutoff          0.2500000E+02      :
          :  -> integral neglect         0.1000000E-07      :
          :  -> SCF convergence          0.1000000E-05 Eh   :
          :  -> wf. convergence          0.2000000E-04 e    :
          :  Broyden damping             0.4000000          :
          ...................................................

 iter      E             dE          RMSdq      gap      omega  full diag
   1    -83.3277546 -0.833278E+02  0.855E+00    2.69       0.0  T
   2    -83.6923291 -0.364575E+00  0.509E+00    0.96       1.0  T
   3    -83.2830579  0.409271E+00  0.244E+00    0.47       1.0  T
   4    -83.6315427 -0.348485E+00  0.124E+00    2.66       1.0  T
   5    -83.6964046 -0.648619E-01  0.595E-01    1.76       1.0  T
   6    -83.7049474 -0.854277E-02  0.422E-01    1.09       1.0  T
   7    -83.7109092 -0.596178E-02  0.262E-01    0.48       1.0  T
   8    -83.4361853  0.274724E+00  0.142E+00    0.12       1.0  T
   9    -83.7150578 -0.278873E+00  0.122E-01    0.17       1.0  T
  10    -83.7134874  0.157034E-02  0.162E-01    0.22       1.0  T
  11    -83.7138984 -0.410989E-03  0.148E-01    0.21       1.0  T
  12    -83.7150731 -0.117465E-02  0.110E-01    0.17       1.0  T
  13    -83.7159737 -0.900586E-03  0.703E-02    0.15       1.0  T
  14    -83.7165184 -0.544774E-03  0.278E-02    0.13       1.0  T
  15    -83.7165650 -0.465229E-04  0.204E-02    0.13       1.0  T
  16    -83.7166129 -0.479475E-04  0.739E-03    0.12       2.1  T
  17    -83.7166198 -0.692916E-05  0.148E-03    0.12      10.4  T
  18    -83.7166201 -0.269810E-06  0.399E-04    0.12      38.7  T
  19    -83.7166201 -0.152430E-07  0.219E-04    0.12      70.5  T
  20    -83.7166201 -0.629382E-08  0.222E-05    0.12     693.8  T
  21    -83.7166201 -0.476064E-10  0.120E-05    0.12    1288.8  T

   *** convergence criteria satisfied after 21 iterations ***

         #    Occupation            Energy/Eh            Energy/eV
      -------------------------------------------------------------
         1        2.0000           -0.9160293             -24.9264
       ...           ...                  ...                  ...
        61        2.0000           -0.4668242             -12.7029
        62        2.0000           -0.4583487             -12.4723
        63        2.0000           -0.4533454             -12.3362
        64        2.0000           -0.4468147             -12.1584
        65        2.0000           -0.4298772             -11.6976
        66        2.0000           -0.3860241             -10.5043
        67        1.8211           -0.3704777             -10.0812 (HOMO)
        68        0.1789           -0.3660688              -9.9612 (LUMO)
        69                         -0.3473992              -9.4532
        70                         -0.2801140              -7.6223
        71                         -0.2530375              -6.8855
        72                         -0.2346265              -6.3845
       ...                                ...                  ...
       134                          0.8073081              21.9680
      -------------------------------------------------------------
                  HL-Gap            0.0044089 Eh            0.1200 eV
             Fermi-level           -0.3682732 Eh          -10.0212 eV

 SCC (total)                   0 d,  0 h,  0 min,  0.187 sec
 SCC setup                      ...        0 min,  0.002 sec (  0.944%)
 Dispersion                     ...        0 min,  0.000 sec (  0.152%)
 classical contributions        ...        0 min,  0.000 sec (  0.052%)
 integral evaluation            ...        0 min,  0.024 sec ( 12.580%)
 iterations                     ...        0 min,  0.107 sec ( 56.902%)
 molecular gradient             ...        0 min,  0.054 sec ( 28.659%)
 printout                       ...        0 min,  0.001 sec (  0.691%)

         :::::::::::::::::::::::::::::::::::::::::::::::::::::
         ::                     SUMMARY                     ::
         :::::::::::::::::::::::::::::::::::::::::::::::::::::
         :: total energy             -82.953427641355 Eh    ::
         :: total w/o Gsasa/hb       -82.931651431371 Eh    ::
         :: gradient norm              0.146743411691 Eh/a0 ::
         :: HOMO-LUMO gap              0.119972481189 eV    ::
         ::.................................................::
         :: SCC energy               -83.716620134401 Eh    ::
         :: -> electrostatic           0.468718044077 Eh    ::
         :: -> Gsolv                  -0.121938077996 Eh    ::
         ::    -> Gelec               -0.100161868013 Eh    ::
         ::    -> Gsasa               -0.024986248915 Eh    ::
         ::    -> Ghb                 -0.004414240073 Eh    ::
         ::    -> Gshift               0.007624279005 Eh    ::
         :: repulsion energy           0.788320990820 Eh    ::
         :: dispersion energy         -0.025128497774 Eh    ::
         :: halogen bond corr.         0.000000000000 Eh    ::
         :: add. restraining           0.000000000000 Eh    ::
         :: total charge              -0.000000000000 e     ::
         :::::::::::::::::::::::::::::::::::::::::::::::::::::

      ----------------------------------------------------------- 
     |                   =====================                   |
     |                        A N C O P T                        |
     |                   =====================                   |
     |               Approximate Normal Coordinate               |
     |                Rational Function Optimizer                |
      ----------------------------------------------------------- 

          ...................................................
          :                      SETUP                      :
          :.................................................:
          :   optimization level            normal          :
          :   max. optcycles                   200          :
          :   ANC micro-cycles                  20          :
          :   degrees of freedom               120          :
          :.................................................:
          :   RF solver                   davidson          :
          :   write xtbopt.log                true          :
          :   linear?                        false          :
          :   energy convergence         0.5000000E-05 Eh   :
          :   grad. convergence          0.1000000E-02 Eh/α :
          :   maximium RF displ.         1.0000000          :
          :   Hlow (freq-cutoff)         0.1000000E-01      :
          :   Hmax (freq-cutoff)         5.0000000          :
          :   S6 in model hess.         20.0000000          :
          ...................................................

generating ANC from model Hessian ...
Using Lindh-Hessian (1995)
 Shifting diagonal of input Hessian by   9.828213924556545E-003
 Lowest  eigenvalues of input Hessian
    0.000000    0.000000    0.000000    0.000000    0.000000    0.000000
    0.010000    0.010216    0.010536    0.011481    0.012002    0.012406
    0.013215    0.014081    0.015075    0.015836    0.017551    0.018042
 Highest eigenvalues
    2.077407    2.086668    2.255854    2.258391    2.331908    2.464146
 

........................................................................
.............................. CYCLE    1 ..............................
........................................................................
   1    -83.7166201 -0.837166E+02  0.351E-06    0.12       0.0  T
   2    -83.7166201  0.735554E-10  0.235E-05    0.12     655.6  T
   3    -83.7166201 -0.747065E-10  0.119E-07    0.12  100000.0  T
     SCC iter.                  ...        0 min,  0.015 sec
     gradient                   ...        0 min,  0.052 sec
 * total energy  :   -82.9534276 Eh     change       -0.1884359E-10 Eh
   gradient norm :     0.1467452 Eh/α   predicted     0.0000000E+00 (-100.00%)
   displ. norm   :     0.3057455 α      lambda       -0.2148203E-01
   maximum displ.:     0.1495064 α      in ANC's #25, #23, #21, ...

........................................................................
.............................. CYCLE    2 ..............................
........................................................................
   1    -83.7376612 -0.837377E+02  0.161E-01    0.50       0.0  T
   2    -83.7257274  0.119338E-01  0.346E-01    0.07       1.0  T
   3    -83.7388225 -0.130951E-01  0.110E-01    0.32       1.0  T
   4    -83.7394363 -0.613765E-03  0.765E-02    0.24       1.0  T
   5    -83.7397073 -0.271001E-03  0.635E-02    0.13       1.0  T
   6    -83.7400979 -0.390632E-03  0.287E-02    0.14       1.0  T
   7    -83.7401924 -0.944678E-04  0.718E-03    0.16       2.1  T
   8    -83.7401984 -0.603920E-05  0.107E-03    0.16      14.5  T
   9    -83.7401984 -0.222268E-07  0.113E-03    0.16      13.6  T
  10    -83.7401985 -0.106174E-06  0.576E-04    0.16      26.8  T
  11    -83.7401986 -0.392977E-07  0.152E-05    0.16    1015.3  T
  12    -83.7401986  0.337707E-09  0.547E-05    0.16     282.3  T
     SCC iter.                  ...        0 min,  0.059 sec
     gradient                   ...        0 min,  0.053 sec
 * total energy  :   -82.9695838 Eh     change       -0.1615621E-01 Eh
   gradient norm :     0.0817412 Eh/α   predicted    -0.1176004E-01 ( -27.21%)
   displ. norm   :     0.3242237 α      lambda       -0.1201169E-01
   maximum displ.:     0.1555527 α      in ANC's #25, #21, #17, ...

........................................................................
.............................. CYCLE    3 ..............................
........................................................................
   1    -83.7636713 -0.837637E+02  0.115E-01    0.59       0.0  T
   2    -83.7643131 -0.641856E-03  0.474E-02    0.36       1.0  T
   3    -83.7644017 -0.885644E-04  0.217E-02    0.31       1.0  T
   4    -83.7644128 -0.110555E-04  0.111E-02    0.27       1.4  T
   5    -83.7644131 -0.374897E-06  0.591E-03    0.29       2.6  T
   6    -83.7644141 -0.944579E-06  0.144E-03    0.28      10.7  T
   7    -83.7644142 -0.106725E-06  0.422E-04    0.28      36.6  T
   8    -83.7644142 -0.268075E-08  0.167E-04    0.28      92.6  T
   9    -83.7644142 -0.458343E-09  0.561E-05    0.28     275.0  T
     SCC iter.                  ...        0 min,  0.044 sec
     gradient                   ...        0 min,  0.051 sec
 * total energy  :   -82.9762603 Eh     change       -0.6676450E-02 Eh
   gradient norm :     0.0252945 Eh/α   predicted    -0.6638931E-02 (  -0.56%)
   displ. norm   :     0.2038034 α      lambda       -0.1359108E-02
   maximum displ.:     0.1074097 α      in ANC's #4, #17, #21, ...

........................................................................
.............................. CYCLE    4 ..............................
........................................................................
   1    -83.7643274 -0.837643E+02  0.199E-02    0.34       0.0  T
   2    -83.7643433 -0.158722E-04  0.808E-03    0.32       1.9  T
   3    -83.7643450 -0.174900E-05  0.359E-03    0.33       4.3  T
   4    -83.7643451 -0.622873E-07  0.135E-03    0.32      11.4  T
   5    -83.7643451 -0.122871E-07  0.321E-04    0.32      48.0  T
   6    -83.7643451 -0.142718E-08  0.817E-05    0.32     188.9  T
   7    -83.7643451 -0.110688E-09  0.292E-05    0.32     528.9  T
     SCC iter.                  ...        0 min,  0.034 sec
     gradient                   ...        0 min,  0.052 sec
 * total energy  :   -82.9772668 Eh     change       -0.1006482E-02 Eh
   gradient norm :     0.0135087 Eh/α   predicted    -0.7077819E-03 ( -29.68%)
   displ. norm   :     0.2689880 α      lambda       -0.9465262E-03
   maximum displ.:     0.1723313 α      in ANC's #4, #21, #17, ...

........................................................................
.............................. CYCLE    5 ..............................
........................................................................
   1    -83.7632043 -0.837632E+02  0.198E-02    0.36       0.0  T
   2    -83.7632207 -0.163733E-04  0.890E-03    0.36       1.7  T
   3    -83.7632224 -0.167256E-05  0.461E-03    0.36       3.3  T
   4    -83.7632224 -0.654321E-07  0.149E-03    0.36      10.3  T
   5    -83.7632224 -0.130127E-07  0.267E-04    0.36      57.9  T
   6    -83.7632224 -0.139632E-08  0.816E-05    0.36     189.1  T
   7    -83.7632224 -0.946017E-10  0.260E-05    0.36     593.5  T
     SCC iter.                  ...        0 min,  0.034 sec
     gradient                   ...        0 min,  0.052 sec
 * total energy  :   -82.9778611 Eh     change       -0.5943101E-03 Eh
   gradient norm :     0.0069741 Eh/α   predicted    -0.5075236E-03 ( -14.60%)
   displ. norm   :     0.1840346 α      lambda       -0.2560695E-03
   maximum displ.:     0.1328421 α      in ANC's #4, #5, #21, ...

........................................................................
.............................. CYCLE    6 ..............................
........................................................................
   1    -83.7635419 -0.837635E+02  0.742E-03    0.36       0.0  T
   2    -83.7635441 -0.213467E-05  0.309E-03    0.37       5.0  T
   3    -83.7635443 -0.178996E-06  0.170E-03    0.37       9.1  T
   4    -83.7635443 -0.146875E-07  0.577E-04    0.37      26.7  T
   5    -83.7635443 -0.114159E-08  0.142E-04    0.37     108.6  T
   6    -83.7635443 -0.383338E-09  0.421E-05    0.37     366.8  T
     SCC iter.                  ...        0 min,  0.031 sec
     gradient                   ...        0 min,  0.054 sec
 * total energy  :   -82.9780584 Eh     change       -0.1972657E-03 Eh
   gradient norm :     0.0069720 Eh/α   predicted    -0.1323780E-03 ( -32.89%)
   displ. norm   :     0.2225579 α      lambda       -0.2521575E-03
   maximum displ.:     0.1560155 α      in ANC's #4, #5, #1, ...

........................................................................
.............................. CYCLE    7 ..............................
........................................................................
   1    -83.7643443 -0.837643E+02  0.714E-03    0.36       0.0  T
   2    -83.7643459 -0.160808E-05  0.265E-03    0.37       5.8  T
   3    -83.7643460 -0.912807E-07  0.136E-03    0.37      11.3  T
   4    -83.7643460 -0.694574E-08  0.540E-04    0.37      28.6  T
   5    -83.7643460 -0.131935E-08  0.125E-04    0.37     123.8  T
   6    -83.7643460 -0.299806E-09  0.416E-05    0.37     370.9  T
     SCC iter.                  ...        0 min,  0.031 sec
     gradient                   ...        0 min,  0.055 sec
 * total energy  :   -82.9782574 Eh     change       -0.1990471E-03 Eh
   gradient norm :     0.0053928 Eh/α   predicted    -0.1323246E-03 ( -33.52%)
   displ. norm   :     0.2694668 α      lambda       -0.2380247E-03
   maximum displ.:     0.1815559 α      in ANC's #4, #5, #1, ...

........................................................................
.............................. CYCLE    8 ..............................
........................................................................
   1    -83.7650889 -0.837651E+02  0.727E-03    0.36       0.0  T
   2    -83.7650906 -0.170187E-05  0.281E-03    0.36       5.5  T
   3    -83.7650907 -0.132195E-06  0.132E-03    0.36      11.7  T
   4    -83.7650907 -0.659679E-08  0.565E-04    0.36      27.3  T
   5    -83.7650907 -0.284064E-08  0.102E-04    0.36     151.8  T
   6    -83.7650907 -0.177295E-09  0.345E-05    0.36     447.3  T
     SCC iter.                  ...        0 min,  0.034 sec
     gradient                   ...        0 min,  0.054 sec
 * total energy  :   -82.9784421 Eh     change       -0.1847150E-03 Eh
   gradient norm :     0.0051080 Eh/α   predicted    -0.1276561E-03 ( -30.89%)
   displ. norm   :     0.2902021 α      lambda       -0.2001828E-03
   maximum displ.:     0.1899054 α      in ANC's #4, #5, #1, ...

........................................................................
.............................. CYCLE    9 ..............................
........................................................................
   1    -83.7655931 -0.837656E+02  0.578E-03    0.35       0.0  T
   2    -83.7655943 -0.121285E-05  0.232E-03    0.35       6.7  T
   3    -83.7655945 -0.132218E-06  0.106E-03    0.35      14.6  T
   4    -83.7655945 -0.651407E-08  0.408E-04    0.35      37.8  T
   5    -83.7655945 -0.115863E-08  0.881E-05    0.35     175.2  T
   6    -83.7655945 -0.119172E-09  0.259E-05    0.35     595.4  T
     SCC iter.                  ...        0 min,  0.031 sec
     gradient                   ...        0 min,  0.054 sec
 * total energy  :   -82.9785964 Eh     change       -0.1543086E-03 Eh
   gradient norm :     0.0056942 Eh/α   predicted    -0.1085214E-03 ( -29.67%)
   displ. norm   :     0.2858923 α      lambda       -0.1613209E-03
   maximum displ.:     0.1806942 α      in ANC's #4, #1, #5, ...

........................................................................
.............................. CYCLE   10 ..............................
........................................................................
   1    -83.7659945 -0.837660E+02  0.410E-03    0.35       0.0  T
   2    -83.7659950 -0.531205E-06  0.165E-03    0.35       9.3  T
   3    -83.7659951 -0.499930E-07  0.881E-04    0.35      17.5  T
   4    -83.7659951 -0.609086E-08  0.288E-04    0.35      53.7  T
   5    -83.7659951 -0.361979E-09  0.720E-05    0.35     214.4  T
   6    -83.7659951 -0.805187E-10  0.238E-05    0.35     649.5  T
     SCC iter.                  ...        0 min,  0.031 sec
     gradient                   ...        0 min,  0.055 sec
 * total energy  :   -82.9787127 Eh     change       -0.1163178E-03 Eh
   gradient norm :     0.0050019 Eh/α   predicted    -0.8725426E-04 ( -24.99%)
   displ. norm   :     0.2035991 α      lambda       -0.8856192E-04
   maximum displ.:     0.1250913 α      in ANC's #4, #1, #5, ...

........................................................................
.............................. CYCLE   11 ..............................
........................................................................
   1    -83.7664357 -0.837664E+02  0.388E-03    0.36       0.0  T
   2    -83.7664360 -0.338445E-06  0.153E-03    0.36      10.1  T
   3    -83.7664360 -0.104342E-07  0.816E-04    0.36      18.9  T
   4    -83.7664360 -0.101799E-08  0.234E-04    0.36      66.0  T
   5    -83.7664360 -0.771706E-09  0.535E-05    0.36     288.2  T
   6    -83.7664360 -0.380567E-10  0.173E-05    0.36     892.8  T
     SCC iter.                  ...        0 min,  0.031 sec
     gradient                   ...        0 min,  0.055 sec
 * total energy  :   -82.9787712 Eh     change       -0.5844576E-04 Eh
   gradient norm :     0.0030119 Eh/α   predicted    -0.4611941E-04 ( -21.09%)
   displ. norm   :     0.0886552 α      lambda       -0.2863155E-04
   maximum displ.:     0.0479318 α      in ANC's #4, #1, #7, ...

........................................................................
.............................. CYCLE   12 ..............................
........................................................................
   1    -83.7666725 -0.837667E+02  0.344E-03    0.36       0.0  T
   2    -83.7666728 -0.356330E-06  0.137E-03    0.36      11.2  T
   3    -83.7666729 -0.287749E-07  0.679E-04    0.36      22.7  T
   4    -83.7666729 -0.131563E-08  0.256E-04    0.36      60.3  T
   5    -83.7666729 -0.765070E-09  0.394E-05    0.36     392.0  T
   6    -83.7666729 -0.268301E-10  0.108E-05    0.36    1423.3  T
     SCC iter.                  ...        0 min,  0.031 sec
     gradient                   ...        0 min,  0.055 sec
 * total energy  :   -82.9787897 Eh     change       -0.1855626E-04 Eh
   gradient norm :     0.0014768 Eh/α   predicted    -0.1443009E-04 ( -22.24%)
   displ. norm   :     0.0546229 α      lambda       -0.1071345E-04
   maximum displ.:     0.0409410 α      in ANC's #1, #11, #16, ...

........................................................................
.............................. CYCLE   13 ..............................
........................................................................
   1    -83.7667475 -0.837667E+02  0.354E-03    0.37       0.0  T
   2    -83.7667480 -0.471052E-06  0.136E-03    0.37      11.3  T
   3    -83.7667480 -0.427615E-07  0.616E-04    0.37      25.0  T
   4    -83.7667480 -0.129232E-08  0.256E-04    0.37      60.3  T
   5    -83.7667480 -0.468731E-09  0.399E-05    0.37     386.4  T
   6    -83.7667480 -0.352429E-10  0.103E-05    0.37    1494.4  T
     SCC iter.                  ...        0 min,  0.031 sec
     gradient                   ...        0 min,  0.055 sec
 * total energy  :   -82.9787990 Eh     change       -0.9211604E-05 Eh
   gradient norm :     0.0012490 Eh/α   predicted    -0.5368195E-05 ( -41.72%)
   displ. norm   :     0.0414901 α      lambda       -0.6127061E-05
   maximum displ.:     0.0238578 α      in ANC's #1, #5, #4, ...

........................................................................
.............................. CYCLE   14 ..............................
........................................................................
   1    -83.7665470 -0.837665E+02  0.118E-03    0.37       0.0  T
   2    -83.7665471 -0.556884E-07  0.420E-04    0.37      36.7  T
   3    -83.7665471 -0.578078E-08  0.206E-04    0.37      74.8  T
   4    -83.7665471 -0.329152E-09  0.861E-05    0.37     179.3  T
   5    -83.7665471 -0.138556E-10  0.188E-05    0.37     822.5  T
     SCC iter.                  ...        0 min,  0.026 sec
     gradient                   ...        0 min,  0.054 sec
 * total energy  :   -82.9788060 Eh     change       -0.7024841E-05 Eh
   gradient norm :     0.0011106 Eh/α   predicted    -0.3067358E-05 ( -56.34%)
   displ. norm   :     0.0754546 α      lambda       -0.8699023E-05
   maximum displ.:     0.0383184 α      in ANC's #1, #5, #4, ...

........................................................................
.............................. CYCLE   15 ..............................
........................................................................
   1    -83.7664212 -0.837664E+02  0.124E-03    0.37       0.0  T
   2    -83.7664212 -0.365378E-07  0.484E-04    0.37      31.9  T
   3    -83.7664212 -0.147465E-08  0.254E-04    0.37      60.9  T
   4    -83.7664212 -0.209710E-09  0.852E-05    0.37     181.2  T
   5    -83.7664212 -0.839862E-10  0.205E-05    0.37     751.3  T
     SCC iter.                  ...        0 min,  0.026 sec
     gradient                   ...        0 min,  0.055 sec
 * total energy  :   -82.9788152 Eh     change       -0.9222011E-05 Eh
   gradient norm :     0.0011103 Eh/α   predicted    -0.4363730E-05 ( -52.68%)
   displ. norm   :     0.0691236 α      lambda       -0.7190098E-05
   maximum displ.:     0.0501958 α      in ANC's #1, #5, #3, ...

........................................................................
.............................. CYCLE   16 ..............................
........................................................................
   1    -83.7662767 -0.837663E+02  0.124E-03    0.37       0.0  T
   2    -83.7662768 -0.513420E-07  0.561E-04    0.37      27.5  T
   3    -83.7662768 -0.461856E-08  0.251E-04    0.37      61.4  T
   4    -83.7662768 -0.257529E-09  0.832E-05    0.37     185.6  T
   5    -83.7662768 -0.555787E-10  0.219E-05    0.37     703.9  T
     SCC iter.                  ...        0 min,  0.026 sec
     gradient                   ...        0 min,  0.055 sec
 * total energy  :   -82.9788246 Eh     change       -0.9351221E-05 Eh
   gradient norm :     0.0010976 Eh/α   predicted    -0.3605504E-05 ( -61.44%)
   displ. norm   :     0.0946348 α      lambda       -0.9996817E-05
   maximum displ.:     0.0714549 α      in ANC's #1, #5, #13, ...

........................................................................
.............................. CYCLE   17 ..............................
........................................................................
   1    -83.7663464 -0.837663E+02  0.171E-03    0.37       0.0  T
   2    -83.7663465 -0.102497E-06  0.780E-04    0.37      19.8  T
   3    -83.7663465 -0.102480E-07  0.339E-04    0.37      45.5  T
   4    -83.7663465 -0.658119E-09  0.100E-04    0.37     154.0  T
   5    -83.7663465 -0.872689E-10  0.319E-05    0.37     483.6  T
     SCC iter.                  ...        0 min,  0.026 sec
     gradient                   ...        0 min,  0.055 sec
 * total energy  :   -82.9788381 Eh     change       -0.1351495E-04 Eh
   gradient norm :     0.0009161 Eh/α   predicted    -0.5018728E-05 ( -62.87%)
   displ. norm   :     0.1467103 α      lambda       -0.1466664E-04
   maximum displ.:     0.1111188 α      in ANC's #1, #13, #3, ...

........................................................................
.............................. CYCLE   18 ..............................
........................................................................
   1    -83.7662371 -0.837662E+02  0.226E-03    0.37       0.0  T
   2    -83.7662372 -0.138954E-06  0.103E-03    0.37      15.0  T
   3    -83.7662372 -0.132601E-07  0.458E-04    0.37      33.7  T
   4    -83.7662372 -0.160776E-08  0.108E-04    0.37     142.7  T
   5    -83.7662372 -0.135316E-09  0.417E-05    0.37     370.1  T
     SCC iter.                  ...        0 min,  0.026 sec
     gradient                   ...        0 min,  0.055 sec
 * total energy  :   -82.9788572 Eh     change       -0.1911691E-04 Eh
   gradient norm :     0.0011465 Eh/α   predicted    -0.7404582E-05 ( -61.27%)
   displ. norm   :     0.1862883 α      lambda       -0.1695673E-04
   maximum displ.:     0.1422925 α      in ANC's #1, #13, #3, ...

........................................................................
.............................. CYCLE   19 ..............................
........................................................................
   1    -83.7665225 -0.837665E+02  0.252E-03    0.37       0.0  T
   2    -83.7665226 -0.110041E-06  0.115E-03    0.37      13.4  T
   3    -83.7665226 -0.113533E-07  0.507E-04    0.37      30.4  T
   4    -83.7665226 -0.275651E-08  0.105E-04    0.37     146.7  T
   5    -83.7665226 -0.121616E-09  0.485E-05    0.37     318.3  T
     SCC iter.                  ...        0 min,  0.028 sec
     gradient                   ...        0 min,  0.058 sec
 * total energy  :   -82.9788783 Eh     change       -0.2111188E-04 Eh
   gradient norm :     0.0013934 Eh/α   predicted    -0.8610681E-05 ( -59.21%)
   displ. norm   :     0.1800741 α      lambda       -0.1605175E-04
   maximum displ.:     0.1411741 α      in ANC's #1, #13, #3, ...

........................................................................
.............................. CYCLE   20 ..............................
........................................................................
   1    -83.7663914 -0.837664E+02  0.219E-03    0.37       0.0  T
   2    -83.7663914 -0.646412E-07  0.991E-04    0.37      15.6  T
   3    -83.7663914 -0.696862E-08  0.367E-04    0.37      42.0  T
   4    -83.7663914 -0.176533E-08  0.729E-05    0.37     211.7  T
   5    -83.7663914 -0.607514E-10  0.376E-05    0.37     409.9  T
     SCC iter.                  ...        0 min,  0.029 sec
     gradient                   ...        0 min,  0.060 sec
 * total energy  :   -82.9788992 Eh     change       -0.2094573E-04 Eh
   gradient norm :     0.0013925 Eh/α   predicted    -0.8144085E-05 ( -61.12%)
   displ. norm   :     0.1755337 α      lambda       -0.1606696E-04
   maximum displ.:     0.1410710 α      in ANC's #1, #13, #3, ...
 * RMSD in coord.:     0.3820109 α      energy gain  -0.2547160E-01 Eh

generating ANC from model Hessian ...
Using Lindh-Hessian (1995)
 Shifting diagonal of input Hessian by   9.834848781250280E-003
 Lowest  eigenvalues of input Hessian
    0.000000    0.000000    0.000000    0.000000    0.000000    0.000000
    0.010000    0.010192    0.010418    0.011280    0.011895    0.012246
    0.012935    0.013766    0.014447    0.016043    0.017628    0.018200
 Highest eigenvalues
    2.211522    2.230636    2.239637    2.307654    2.369329    2.437410
 

........................................................................
.............................. CYCLE   21 ..............................
........................................................................
   1    -83.7666352 -0.837666E+02  0.200E-03    0.37       0.0  T
   2    -83.7666352 -0.451588E-07  0.898E-04    0.37      17.2  T
   3    -83.7666352 -0.529488E-08  0.298E-04    0.37      51.7  T
   4    -83.7666352 -0.182339E-08  0.676E-05    0.37     228.3  T
   5    -83.7666352 -0.533618E-10  0.321E-05    0.37     480.8  T
     SCC iter.                  ...        0 min,  0.030 sec
     gradient                   ...        0 min,  0.063 sec
 * total energy  :   -82.9789208 Eh     change       -0.2150631E-04 Eh
   gradient norm :     0.0009216 Eh/α   predicted     0.0000000E+00 (-100.00%)
   displ. norm   :     0.0267955 α      lambda       -0.4996429E-05
   maximum displ.:     0.0193386 α      in ANC's #1, #5, #4, ...

........................................................................
.............................. CYCLE   22 ..............................
........................................................................
   1    -83.7667107 -0.837667E+02  0.986E-04    0.37       0.0  T
   2    -83.7667107 -0.243333E-07  0.469E-04    0.37      32.9  T
   3    -83.7667107 -0.196444E-08  0.234E-04    0.37      66.1  T
   4    -83.7667107 -0.154841E-09  0.684E-05    0.37     225.8  T
   5    -83.7667107 -0.382272E-10  0.152E-05    0.37    1016.6  T
     SCC iter.                  ...        0 min,  0.029 sec
     gradient                   ...        0 min,  0.062 sec
 * total energy  :   -82.9789273 Eh     change       -0.6588313E-05 Eh
   gradient norm :     0.0004334 Eh/α   predicted    -0.2578118E-05 ( -60.87%)
   displ. norm   :     0.0772468 α      lambda       -0.1092318E-04
   maximum displ.:     0.0514525 α      in ANC's #1, #5, #2, ...

........................................................................
.............................. CYCLE   23 ..............................
........................................................................
   1    -83.7667198 -0.837667E+02  0.165E-03    0.37       0.0  T
   2    -83.7667199 -0.991510E-07  0.796E-04    0.37      19.4  T
   3    -83.7667199 -0.959088E-08  0.378E-04    0.37      40.9  T
   4    -83.7667199 -0.323624E-09  0.122E-04    0.37     126.5  T
   5    -83.7667199 -0.128509E-09  0.289E-05    0.37     534.8  T
     SCC iter.                  ...        0 min,  0.029 sec
     gradient                   ...        0 min,  0.042 sec
 * total energy  :   -82.9789397 Eh     change       -0.1231196E-04 Eh
   gradient norm :     0.0008582 Eh/α   predicted    -0.5476474E-05 ( -55.52%)
   displ. norm   :     0.0960950 α      lambda       -0.9483171E-05
   maximum displ.:     0.0647793 α      in ANC's #1, #2, #5, ...

........................................................................
.............................. CYCLE   24 ..............................
........................................................................
   1    -83.7666252 -0.837666E+02  0.117E-03    0.37       0.0  T
   2    -83.7666252 -0.353291E-07  0.624E-04    0.37      24.7  T
   3    -83.7666252 -0.494032E-08  0.309E-04    0.37      50.0  T
   4    -83.7666252 -0.331369E-09  0.742E-05    0.37     208.0  T
   5    -83.7666252 -0.490985E-10  0.181E-05    0.37     853.6  T
     SCC iter.                  ...        0 min,  0.029 sec
     gradient                   ...        0 min,  0.048 sec
 * total energy  :   -82.9789497 Eh     change       -0.1003185E-04 Eh
   gradient norm :     0.0013336 Eh/α   predicted    -0.4771937E-05 ( -52.43%)
   displ. norm   :     0.0878308 α      lambda       -0.8067251E-05
   maximum displ.:     0.0600290 α      in ANC's #1, #2, #7, ...

........................................................................
.............................. CYCLE   25 ..............................
........................................................................
   1    -83.7665972 -0.837666E+02  0.937E-04    0.37       0.0  T
   2    -83.7665972 -0.180291E-07  0.402E-04    0.37      38.4  T
   3    -83.7665972 -0.135027E-08  0.206E-04    0.37      74.9  T
   4    -83.7665972 -0.224418E-09  0.581E-05    0.37     265.6  T
   5    -83.7665972 -0.192983E-10  0.153E-05    0.37    1011.3  T
     SCC iter.                  ...        0 min,  0.028 sec
     gradient                   ...        0 min,  0.058 sec
 * total energy  :   -82.9789594 Eh     change       -0.9726331E-05 Eh
   gradient norm :     0.0010817 Eh/α   predicted    -0.4052040E-05 ( -58.34%)
   displ. norm   :     0.0934549 α      lambda       -0.8930150E-05
   maximum displ.:     0.0658395 α      in ANC's #1, #2, #7, ...

........................................................................
.............................. CYCLE   26 ..............................
........................................................................
   1    -83.7666778 -0.837667E+02  0.121E-03    0.37       0.0  T
   2    -83.7666778 -0.473856E-07  0.462E-04    0.37      33.4  T
   3    -83.7666778 -0.324201E-08  0.241E-04    0.37      64.0  T
   4    -83.7666778 -0.196891E-09  0.763E-05    0.37     202.3  T
   5    -83.7666778 -0.356266E-10  0.192E-05    0.37     803.7  T
     SCC iter.                  ...        0 min,  0.028 sec
     gradient                   ...        0 min,  0.058 sec
 * total energy  :   -82.9789712 Eh     change       -0.1182201E-04 Eh
   gradient norm :     0.0005910 Eh/α   predicted    -0.4486488E-05 ( -62.05%)
   displ. norm   :     0.1178872 α      lambda       -0.1141113E-04
   maximum displ.:     0.0838398 α      in ANC's #1, #2, #7, ...

........................................................................
.............................. CYCLE   27 ..............................
........................................................................
   1    -83.7666550 -0.837667E+02  0.142E-03    0.37       0.0  T
   2    -83.7666550 -0.708099E-07  0.614E-04    0.37      25.1  T
   3    -83.7666550 -0.697013E-08  0.297E-04    0.37      52.0  T
   4    -83.7666550 -0.257259E-09  0.955E-05    0.37     161.6  T
   5    -83.7666550 -0.647873E-10  0.213E-05    0.37     724.8  T
     SCC iter.                  ...        0 min,  0.027 sec
     gradient                   ...        0 min,  0.058 sec
 * total energy  :   -82.9789861 Eh     change       -0.1484517E-04 Eh
   gradient norm :     0.0006376 Eh/α   predicted    -0.5742098E-05 ( -61.32%)
   displ. norm   :     0.1390049 α      lambda       -0.1216279E-04
   maximum displ.:     0.0991154 α      in ANC's #1, #2, #7, ...

........................................................................
.............................. CYCLE   28 ..............................
........................................................................
   1    -83.7666526 -0.837667E+02  0.133E-03    0.37       0.0  T
   2    -83.7666527 -0.531717E-07  0.572E-04    0.37      27.0  T
   3    -83.7666527 -0.592013E-08  0.279E-04    0.37      55.3  T
   4    -83.7666527 -0.255156E-09  0.802E-05    0.37     192.3  T
   5    -83.7666527 -0.555218E-10  0.199E-05    0.37     774.8  T
     SCC iter.                  ...        0 min,  0.027 sec
     gradient                   ...        0 min,  0.057 sec
 * total energy  :   -82.9790022 Eh     change       -0.1611474E-04 Eh
   gradient norm :     0.0011021 Eh/α   predicted    -0.6136822E-05 ( -61.92%)
   displ. norm   :     0.1467347 α      lambda       -0.1248123E-04
   maximum displ.:     0.1037924 α      in ANC's #1, #2, #7, ...

........................................................................
.............................. CYCLE   29 ..............................
........................................................................
   1    -83.7666334 -0.837666E+02  0.101E-03    0.37       0.0  T
   2    -83.7666334 -0.213264E-07  0.441E-04    0.37      35.0  T
   3    -83.7666334 -0.236527E-08  0.228E-04    0.37      67.7  T
   4    -83.7666334 -0.279442E-09  0.539E-05    0.37     286.1  T
   5    -83.7666334 -0.259490E-10  0.181E-05    0.37     854.6  T
     SCC iter.                  ...        0 min,  0.028 sec
     gradient                   ...        0 min,  0.057 sec
 * total energy  :   -82.9790194 Eh     change       -0.1719759E-04 Eh
   gradient norm :     0.0012773 Eh/α   predicted    -0.6304383E-05 ( -63.34%)
   displ. norm   :     0.1679944 α      lambda       -0.1516443E-04
   maximum displ.:     0.1181495 α      in ANC's #1, #2, #3, ...

........................................................................
.............................. CYCLE   30 ..............................
........................................................................
   1    -83.7665939 -0.837666E+02  0.114E-03    0.37       0.0  T
   2    -83.7665939 -0.257368E-07  0.447E-04    0.37      34.6  T
   3    -83.7665939 -0.227274E-08  0.237E-04    0.37      65.1  T
   4    -83.7665939 -0.501970E-09  0.614E-05    0.37     251.4  T
   5    -83.7665939 -0.243716E-10  0.204E-05    0.37     755.3  T
     SCC iter.                  ...        0 min,  0.028 sec
     gradient                   ...        0 min,  0.057 sec
 * total energy  :   -82.9790406 Eh     change       -0.2121462E-04 Eh
   gradient norm :     0.0011763 Eh/α   predicted    -0.7678948E-05 ( -63.80%)
   displ. norm   :     0.2086602 α      lambda       -0.1965335E-04
   maximum displ.:     0.1463520 α      in ANC's #1, #2, #3, ...

........................................................................
.............................. CYCLE   31 ..............................
........................................................................
   1    -83.7665287 -0.837665E+02  0.151E-03    0.37       0.0  T
   2    -83.7665288 -0.639762E-07  0.605E-04    0.37      25.5  T
   3    -83.7665288 -0.741585E-08  0.309E-04    0.37      49.9  T
   4    -83.7665288 -0.896009E-09  0.846E-05    0.37     182.5  T
   5    -83.7665288 -0.332250E-10  0.259E-05    0.37     596.2  T
     SCC iter.                  ...        0 min,  0.028 sec
     gradient                   ...        0 min,  0.057 sec
 * total energy  :   -82.9790680 Eh     change       -0.2737252E-04 Eh
   gradient norm :     0.0008387 Eh/α   predicted    -0.1001981E-04 ( -63.39%)
   displ. norm   :     0.2721606 α      lambda       -0.2547774E-04
   maximum displ.:     0.1911529 α      in ANC's #1, #2, #3, ...

........................................................................
.............................. CYCLE   32 ..............................
........................................................................
   1    -83.7663192 -0.837663E+02  0.192E-03    0.38       0.0  T
   2    -83.7663193 -0.909801E-07  0.798E-04    0.38      19.3  T
   3    -83.7663193 -0.102417E-07  0.413E-04    0.38      37.4  T
   4    -83.7663193 -0.155443E-08  0.111E-04    0.38     139.1  T
   5    -83.7663193 -0.604103E-10  0.320E-05    0.38     482.1  T
     SCC iter.                  ...        0 min,  0.028 sec
     gradient                   ...        0 min,  0.057 sec
 * total energy  :   -82.9791034 Eh     change       -0.3543540E-04 Eh
   gradient norm :     0.0008578 Eh/α   predicted    -0.1316213E-04 ( -62.86%)
   displ. norm   :     0.3275222 α      lambda       -0.2962239E-04
   maximum displ.:     0.2309160 α      in ANC's #1, #2, #3, ...

........................................................................
.............................. CYCLE   33 ..............................
........................................................................
   1    -83.7661066 -0.837661E+02  0.222E-03    0.38       0.0  T
   2    -83.7661067 -0.123234E-06  0.918E-04    0.38      16.8  T
   3    -83.7661067 -0.143696E-07  0.465E-04    0.38      33.2  T
   4    -83.7661067 -0.221014E-08  0.126E-04    0.38     122.7  T
   5    -83.7661067 -0.708411E-10  0.380E-05    0.38     406.1  T
     SCC iter.                  ...        0 min,  0.027 sec
     gradient                   ...        0 min,  0.057 sec
 * total energy  :   -82.9791440 Eh     change       -0.4059358E-04 Eh
   gradient norm :     0.0010685 Eh/α   predicted    -0.1552244E-04 ( -61.76%)
   displ. norm   :     0.3291536 α      lambda       -0.2874245E-04
   maximum displ.:     0.2342777 α      in ANC's #1, #2, #3, ...

........................................................................
.............................. CYCLE   34 ..............................
........................................................................
   1    -83.7660598 -0.837661E+02  0.186E-03    0.38       0.0  T
   2    -83.7660599 -0.737461E-07  0.835E-04    0.38      18.5  T
   3    -83.7660599 -0.773500E-08  0.397E-04    0.38      38.9  T
   4    -83.7660599 -0.208730E-08  0.107E-04    0.38     144.2  T
   5    -83.7660599 -0.599840E-10  0.317E-05    0.38     487.1  T
     SCC iter.                  ...        0 min,  0.028 sec
     gradient                   ...        0 min,  0.058 sec
 * total energy  :   -82.9791832 Eh     change       -0.3921982E-04 Eh
   gradient norm :     0.0012799 Eh/α   predicted    -0.1506564E-04 ( -61.59%)
   displ. norm   :     0.3255099 α      lambda       -0.2909252E-04
   maximum displ.:     0.2340889 α      in ANC's #1, #2, #3, ...

........................................................................
.............................. CYCLE   35 ..............................
........................................................................
   1    -83.7661302 -0.837661E+02  0.177E-03    0.38       0.0  T
   2    -83.7661302 -0.507162E-07  0.735E-04    0.38      21.0  T
   3    -83.7661302 -0.310636E-08  0.308E-04    0.38      50.1  T
   4    -83.7661302 -0.797414E-09  0.963E-05    0.38     160.2  T
   5    -83.7661302 -0.755165E-10  0.326E-05    0.38     473.4  T
     SCC iter.                  ...        0 min,  0.028 sec
     gradient                   ...        0 min,  0.058 sec
 * total energy  :   -82.9792255 Eh     change       -0.4223164E-04 Eh
   gradient norm :     0.0011295 Eh/α   predicted    -0.1523293E-04 ( -63.93%)
   displ. norm   :     0.3915222 α      lambda       -0.3735495E-04
   maximum displ.:     0.2827116 α      in ANC's #1, #2, #3, ...

........................................................................
.............................. CYCLE   36 ..............................
........................................................................
   1    -83.7660692 -0.837661E+02  0.202E-03    0.38       0.0  T
   2    -83.7660693 -0.535789E-07  0.882E-04    0.38      17.5  T
   3    -83.7660693 -0.394363E-08  0.357E-04    0.38      43.2  T
   4    -83.7660693 -0.168072E-08  0.113E-04    0.38     136.6  T
   5    -83.7660693 -0.959801E-10  0.364E-05    0.38     424.4  T
     SCC iter.                  ...        0 min,  0.027 sec
     gradient                   ...        0 min,  0.058 sec
 * total energy  :   -82.9792793 Eh     change       -0.5386066E-04 Eh
   gradient norm :     0.0011614 Eh/α   predicted    -0.1995209E-04 ( -62.96%)
   displ. norm   :     0.4231243 α      lambda       -0.4159660E-04
   maximum displ.:     0.3089729 α      in ANC's #1, #2, #3, ...

........................................................................
.............................. CYCLE   37 ..............................
........................................................................
   1    -83.7661299 -0.837661E+02  0.221E-03    0.38       0.0  T
   2    -83.7661299 -0.791771E-07  0.953E-04    0.38      16.2  T
   3    -83.7661299 -0.526876E-08  0.412E-04    0.38      37.5  T
   4    -83.7661300 -0.184018E-08  0.129E-04    0.38     119.7  T
   5    -83.7661300 -0.142109E-09  0.419E-05    0.38     368.0  T
     SCC iter.                  ...        0 min,  0.027 sec
     gradient                   ...        0 min,  0.058 sec
 * total energy  :   -82.9793363 Eh     change       -0.5703093E-04 Eh
   gradient norm :     0.0010574 Eh/α   predicted    -0.2245576E-04 ( -60.63%)
   displ. norm   :     0.4470985 α      lambda       -0.4304055E-04
   maximum displ.:     0.3301269 α      in ANC's #1, #2, #3, ...

........................................................................
.............................. CYCLE   38 ..............................
........................................................................
   1    -83.7661523 -0.837662E+02  0.242E-03    0.38       0.0  T
   2    -83.7661524 -0.863470E-07  0.105E-03    0.38      14.7  T
   3    -83.7661524 -0.688341E-08  0.475E-04    0.38      32.5  T
   4    -83.7661524 -0.272632E-08  0.139E-04    0.38     111.0  T
   5    -83.7661524 -0.115989E-09  0.445E-05    0.38     346.6  T
     SCC iter.                  ...        0 min,  0.027 sec
     gradient                   ...        0 min,  0.058 sec
 * total energy  :   -82.9793957 Eh     change       -0.5931864E-04 Eh
   gradient norm :     0.0010401 Eh/α   predicted    -0.2343408E-04 ( -60.49%)
   displ. norm   :     0.4220732 α      lambda       -0.3648447E-04
   maximum displ.:     0.3160037 α      in ANC's #1, #2, #3, ...

........................................................................
.............................. CYCLE   39 ..............................
........................................................................
   1    -83.7662432 -0.837662E+02  0.241E-03    0.38       0.0  T
   2    -83.7662433 -0.116974E-06  0.106E-03    0.38      14.6  T
   3    -83.7662433 -0.971984E-08  0.505E-04    0.38      30.6  T
   4    -83.7662433 -0.237468E-08  0.137E-04    0.38     112.3  T
   5    -83.7662433 -0.170672E-09  0.453E-05    0.38     340.7  T
     SCC iter.                  ...        0 min,  0.027 sec
     gradient                   ...        0 min,  0.057 sec
 * total energy  :   -82.9794390 Eh     change       -0.4334207E-04 Eh
   gradient norm :     0.0011804 Eh/α   predicted    -0.1968855E-04 ( -54.57%)
   displ. norm   :     0.2204901 α      lambda       -0.1584252E-04
   maximum displ.:     0.1740164 α      in ANC's #1, #2, #3, ...

........................................................................
.............................. CYCLE   40 ..............................
........................................................................
   1    -83.7673128 -0.837673E+02  0.265E-03    0.38       0.0  T
   2    -83.7673131 -0.245971E-06  0.120E-03    0.38      12.9  T
   3    -83.7673131 -0.157584E-07  0.666E-04    0.38      23.2  T
   4    -83.7673131 -0.114719E-08  0.190E-04    0.38      81.2  T
   5    -83.7673131 -0.195826E-09  0.492E-05    0.38     313.5  T
     SCC iter.                  ...        0 min,  0.028 sec
     gradient                   ...        0 min,  0.057 sec
 * total energy  :   -82.9794557 Eh     change       -0.1664537E-04 Eh
   gradient norm :     0.0012782 Eh/α   predicted    -0.8097562E-05 ( -51.35%)
   displ. norm   :     0.1532177 α      lambda       -0.9992835E-05
   maximum displ.:     0.1204754 α      in ANC's #1, #2, #3, ...

........................................................................
.............................. CYCLE   41 ..............................
........................................................................
   1    -83.7667339 -0.837667E+02  0.266E-03    0.38       0.0  T
   2    -83.7667342 -0.317314E-06  0.119E-03    0.38      13.0  T
   3    -83.7667342 -0.245277E-07  0.594E-04    0.38      26.0  T
   4    -83.7667342 -0.412840E-09  0.210E-04    0.38      73.4  T
   5    -83.7667342 -0.361965E-09  0.341E-05    0.38     453.1  T
   6    -83.7667342 -0.296012E-10  0.141E-05    0.38    1093.9  T
     SCC iter.                  ...        0 min,  0.044 sec
     gradient                   ...        0 min,  0.055 sec
 * total energy  :   -82.9794669 Eh     change       -0.1122782E-04 Eh
   gradient norm :     0.0012147 Eh/α   predicted    -0.5048940E-05 ( -55.03%)
   displ. norm   :     0.0785464 α      lambda       -0.6568351E-05
   maximum displ.:     0.0667498 α      in ANC's #1, #2, #17, ...

........................................................................
.............................. CYCLE   42 ..............................
........................................................................
   1    -83.7668858 -0.837669E+02  0.131E-03    0.38       0.0  T
   2    -83.7668859 -0.778788E-07  0.584E-04    0.38      26.4  T
   3    -83.7668859 -0.787426E-08  0.246E-04    0.38      62.8  T
   4    -83.7668859 -0.195541E-09  0.103E-04    0.38     149.2  T
   5    -83.7668859 -0.900258E-10  0.240E-05    0.38     643.6  T
     SCC iter.                  ...        0 min,  0.026 sec
     gradient                   ...        0 min,  0.054 sec
 * total energy  :   -82.9794758 Eh     change       -0.8959013E-05 Eh
   gradient norm :     0.0008053 Eh/α   predicted    -0.3293948E-05 ( -63.23%)
   displ. norm   :     0.0944754 α      lambda       -0.1030285E-04
   maximum displ.:     0.0807582 α      in ANC's #1, #17, #16, ...
 * RMSD in coord.:     0.6920140 α      energy gain  -0.5765963E-03 Eh

generating ANC from model Hessian ...
Using Lindh-Hessian (1995)
 Shifting diagonal of input Hessian by   9.843433926940981E-003
 Lowest  eigenvalues of input Hessian
    0.000000    0.000000    0.000000    0.000000    0.000000    0.000000
    0.010000    0.010309    0.010449    0.011296    0.011957    0.012365
    0.012848    0.013955    0.015041    0.016450    0.017655    0.018215
 Highest eigenvalues
    2.210733    2.230796    2.241153    2.309117    2.371236    2.438866
 

........................................................................
.............................. CYCLE   43 ..............................
........................................................................
   1    -83.7673824 -0.837674E+02  0.186E-03    0.38       0.0  T
   2    -83.7673825 -0.172507E-06  0.744E-04    0.38      20.7  T
   3    -83.7673826 -0.669795E-08  0.406E-04    0.38      38.0  T
   4    -83.7673826 -0.476788E-09  0.150E-04    0.38     102.9  T
   5    -83.7673826 -0.211429E-09  0.391E-05    0.38     394.8  T
     SCC iter.                  ...        0 min,  0.027 sec
     gradient                   ...        0 min,  0.056 sec
 * total energy  :   -82.9794887 Eh     change       -0.1283366E-04 Eh
   gradient norm :     0.0011841 Eh/α   predicted     0.0000000E+00 (-100.00%)
   displ. norm   :     0.0246427 α      lambda       -0.2492863E-05
   maximum displ.:     0.0176683 α      in ANC's #1, #2, #8, ...

........................................................................
.............................. CYCLE   44 ..............................
........................................................................
   1    -83.7669684 -0.837670E+02  0.154E-03    0.38       0.0  T
   2    -83.7669685 -0.104147E-06  0.679E-04    0.38      22.7  T
   3    -83.7669685 -0.800883E-08  0.373E-04    0.38      41.3  T
   4    -83.7669685 -0.191690E-09  0.129E-04    0.38     119.5  T
   5    -83.7669685 -0.117524E-09  0.152E-05    0.38    1012.1  T
     SCC iter.                  ...        0 min,  0.026 sec
     gradient                   ...        0 min,  0.057 sec
 * total energy  :   -82.9794941 Eh     change       -0.5409404E-05 Eh
   gradient norm :     0.0003981 Eh/α   predicted    -0.2302829E-05 ( -57.43%)
   displ. norm   :     0.0583557 α      lambda       -0.7113192E-05
   maximum displ.:     0.0387200 α      in ANC's #1, #2, #8, ...

........................................................................
.............................. CYCLE   45 ..............................
........................................................................
   1    -83.7666411 -0.837666E+02  0.157E-03    0.38       0.0  T
   2    -83.7666412 -0.106172E-06  0.660E-04    0.38      23.4  T
   3    -83.7666412 -0.114943E-07  0.300E-04    0.38      51.4  T
   4    -83.7666412 -0.226223E-09  0.114E-04    0.38     135.2  T
   5    -83.7666412 -0.643894E-10  0.208E-05    0.38     742.7  T
     SCC iter.                  ...        0 min,  0.027 sec
     gradient                   ...        0 min,  0.053 sec
 * total energy  :   -82.9795032 Eh     change       -0.9126946E-05 Eh
   gradient norm :     0.0012084 Eh/α   predicted    -0.3562809E-05 ( -60.96%)
   displ. norm   :     0.1158888 α      lambda       -0.1219239E-04
   maximum displ.:     0.0746540 α      in ANC's #1, #2, #8, ...

........................................................................
.............................. CYCLE   46 ..............................
........................................................................
   1    -83.7664217 -0.837664E+02  0.156E-03    0.38       0.0  T
   2    -83.7664218 -0.791547E-07  0.682E-04    0.38      22.6  T
   3    -83.7664218 -0.915379E-08  0.305E-04    0.38      50.7  T
   4    -83.7664218 -0.646551E-09  0.808E-05    0.38     191.0  T
   5    -83.7664218 -0.597566E-10  0.255E-05    0.38     605.6  T
     SCC iter.                  ...        0 min,  0.026 sec
     gradient                   ...        0 min,  0.053 sec
 * total energy  :   -82.9795185 Eh     change       -0.1527145E-04 Eh
   gradient norm :     0.0017799 Eh/α   predicted    -0.6218036E-05 ( -59.28%)
   displ. norm   :     0.1746033 α      lambda       -0.1660486E-04
   maximum displ.:     0.1126626 α      in ANC's #1, #2, #8, ...

........................................................................
.............................. CYCLE   47 ..............................
........................................................................
   1    -83.7663134 -0.837663E+02  0.160E-03    0.39       0.0  T
   2    -83.7663135 -0.412570E-07  0.769E-04    0.39      20.1  T
   3    -83.7663135 -0.436975E-08  0.301E-04    0.39      51.2  T
   4    -83.7663135 -0.135444E-08  0.681E-05    0.39     226.5  T
   5    -83.7663135 -0.350582E-10  0.284E-05    0.39     542.9  T
     SCC iter.                  ...        0 min,  0.026 sec
     gradient                   ...        0 min,  0.055 sec
 * total energy  :   -82.9795374 Eh     change       -0.1887755E-04 Eh
   gradient norm :     0.0018607 Eh/α   predicted    -0.8420282E-05 ( -55.40%)
   displ. norm   :     0.1701767 α      lambda       -0.1422551E-04
   maximum displ.:     0.1130760 α      in ANC's #1, #2, #8, ...

........................................................................
.............................. CYCLE   48 ..............................
........................................................................
   1    -83.7665455 -0.837665E+02  0.186E-03    0.39       0.0  T
   2    -83.7665456 -0.720327E-07  0.815E-04    0.39      18.9  T
   3    -83.7665456 -0.649655E-08  0.372E-04    0.39      41.5  T
   4    -83.7665456 -0.170033E-08  0.932E-05    0.39     165.6  T
   5    -83.7665456 -0.982965E-10  0.357E-05    0.39     432.1  T
     SCC iter.                  ...        0 min,  0.026 sec
     gradient                   ...        0 min,  0.053 sec
 * total energy  :   -82.9795541 Eh     change       -0.1673179E-04 Eh
   gradient norm :     0.0012298 Eh/α   predicted    -0.7208752E-05 ( -56.92%)
   displ. norm   :     0.1482297 α      lambda       -0.1150765E-04
   maximum displ.:     0.1027470 α      in ANC's #1, #2, #16, ...

........................................................................
.............................. CYCLE   49 ..............................
........................................................................
   1    -83.7670535 -0.837671E+02  0.213E-03    0.39       0.0  T
   2    -83.7670536 -0.120324E-06  0.908E-04    0.39      17.0  T
   3    -83.7670536 -0.136989E-07  0.444E-04    0.39      34.7  T
   4    -83.7670536 -0.161008E-08  0.117E-04    0.39     131.9  T
   5    -83.7670536 -0.129504E-09  0.401E-05    0.39     384.4  T
     SCC iter.                  ...        0 min,  0.026 sec
     gradient                   ...        0 min,  0.054 sec
 * total energy  :   -82.9795678 Eh     change       -0.1366414E-04 Eh
   gradient norm :     0.0005573 Eh/α   predicted    -0.5811804E-05 ( -57.47%)
   displ. norm   :     0.1202763 α      lambda       -0.8875817E-05
   maximum displ.:     0.0870124 α      in ANC's #1, #2, #16, ...

........................................................................
.............................. CYCLE   50 ..............................
........................................................................
   1    -83.7673583 -0.837674E+02  0.178E-03    0.39       0.0  T
   2    -83.7673584 -0.985577E-07  0.729E-04    0.39      21.2  T
   3    -83.7673584 -0.110139E-07  0.335E-04    0.39      46.1  T
   4    -83.7673584 -0.104210E-08  0.952E-05    0.39     162.0  T
   5    -83.7673584 -0.945164E-10  0.302E-05    0.39     511.6  T
     SCC iter.                  ...        0 min,  0.026 sec
     gradient                   ...        0 min,  0.054 sec
 * total energy  :   -82.9795786 Eh     change       -0.1080868E-04 Eh
   gradient norm :     0.0007463 Eh/α   predicted    -0.4467787E-05 ( -58.66%)
   displ. norm   :     0.1104640 α      lambda       -0.7983514E-05
   maximum displ.:     0.0811223 α      in ANC's #1, #2, #16, ...

........................................................................
.............................. CYCLE   51 ..............................
........................................................................
   1    -83.7674659 -0.837675E+02  0.116E-03    0.39       0.0  T
   2    -83.7674659 -0.289701E-07  0.520E-04    0.39      29.7  T
   3    -83.7674659 -0.302340E-08  0.231E-04    0.39      66.8  T
   4    -83.7674659 -0.569244E-09  0.507E-05    0.39     304.2  T
   5    -83.7674659 -0.410267E-10  0.219E-05    0.39     703.1  T
     SCC iter.                  ...        0 min,  0.026 sec
     gradient                   ...        0 min,  0.054 sec
 * total energy  :   -82.9795884 Eh     change       -0.9873819E-05 Eh
   gradient norm :     0.0009999 Eh/α   predicted    -0.4014276E-05 ( -59.34%)
   displ. norm   :     0.1047781 α      lambda       -0.6991686E-05
   maximum displ.:     0.0779982 α      in ANC's #1, #2, #16, ...

........................................................................
.............................. CYCLE   52 ..............................
........................................................................
   1    -83.7674123 -0.837674E+02  0.109E-03    0.39       0.0  T
   2    -83.7674123 -0.298515E-07  0.476E-04    0.39      32.4  T
   3    -83.7674123 -0.309140E-08  0.209E-04    0.39      73.8  T
   4    -83.7674123 -0.484306E-09  0.418E-05    0.39     369.2  T
   5    -83.7674123 -0.254090E-10  0.182E-05    0.39     847.3  T
     SCC iter.                  ...        0 min,  0.026 sec
     gradient                   ...        0 min,  0.054 sec
 * total energy  :   -82.9795972 Eh     change       -0.8732408E-05 Eh
   gradient norm :     0.0008911 Eh/α   predicted    -0.3514271E-05 ( -59.76%)
   displ. norm   :     0.0894663 α      lambda       -0.5449882E-05
   maximum displ.:     0.0677037 α      in ANC's #1, #2, #16, ...

........................................................................
.............................. CYCLE   53 ..............................
........................................................................
   1    -83.7672802 -0.837673E+02  0.121E-03    0.39       0.0  T
   2    -83.7672803 -0.490130E-07  0.494E-04    0.39      31.2  T
   3    -83.7672803 -0.538124E-08  0.217E-04    0.39      71.3  T
   4    -83.7672803 -0.392959E-09  0.614E-05    0.39     251.4  T
   5    -83.7672803 -0.363087E-10  0.202E-05    0.39     763.1  T
     SCC iter.                  ...        0 min,  0.026 sec
     gradient                   ...        0 min,  0.054 sec
 * total energy  :   -82.9796039 Eh     change       -0.6702856E-05 Eh
   gradient norm :     0.0004968 Eh/α   predicted    -0.2738312E-05 ( -59.15%)
   displ. norm   :     0.0668032 α      lambda       -0.3761150E-05
   maximum displ.:     0.0522544 α      in ANC's #1, #16, #2, ...

........................................................................
.............................. CYCLE   54 ..............................
........................................................................
   1    -83.7672180 -0.837672E+02  0.998E-04    0.39       0.0  T
   2    -83.7672180 -0.330640E-07  0.412E-04    0.39      37.4  T
   3    -83.7672180 -0.450291E-08  0.166E-04    0.39      92.7  T
   4    -83.7672180 -0.220737E-09  0.456E-05    0.39     338.7  T
     SCC iter.                  ...        0 min,  0.021 sec
     gradient                   ...        0 min,  0.054 sec
 * total energy  :   -82.9796086 Eh     change       -0.4691239E-05 Eh
   gradient norm :     0.0002811 Eh/α   predicted    -0.1886461E-05 ( -59.79%)
   displ. norm   :     0.0510707 α      lambda       -0.2949996E-05
   maximum displ.:     0.0414904 α      in ANC's #1, #16, #2, ...

   *** GEOMETRY OPTIMIZATION CONVERGED AFTER 54 ITERATIONS ***

------------------------------------------------------------------------
 total energy gain   :        -0.0261809 Eh      -16.4288 kcal/mol
 total RMSD          :         1.0034756 a0        0.5310 Å
 total power (kW/mol):        -1.2729261 (step)  -11.2700 (real)
------------------------------------------------------------------------

 ANCopt (total)                0 d,  0 h,  0 min,  6.099 sec
 optimizer setup                ...        0 min,  0.001 sec (  0.014%)
 model hessian                  ...        0 min,  0.056 sec (  0.923%)
 ANC generation                 ...        0 min,  0.008 sec (  0.132%)
 coordinate transformation      ...        0 min,  0.001 sec (  0.019%)
 single point calculation       ...        0 min,  6.013 sec ( 98.592%)
 optimization log               ...        0 min,  0.011 sec (  0.176%)
 hessian update                 ...        0 min,  0.001 sec (  0.019%)
 rational function              ...        0 min,  0.005 sec (  0.075%)

================
 final structure:
================
42
 xtb: 6.5.1 (579679a)
C            6.93303112818515       -0.06925168382478        1.48619440378680
O            5.80266368505051        0.56697145910283        0.90505502976362
C            4.75542283052015       -0.24220897724287        0.61201181851240
O            4.80827500867232       -1.44335618886334        0.84807647952522
C            3.61485708143637        0.43309360253060        0.00808061611017
N            2.58104962120166       -0.43348911304711       -0.29269281411835
C            1.50946646435514       -0.01166539699569       -0.85232097612359
C            0.41628524047745       -1.00121645994317       -1.21669274827810
C            0.22154176131270       -1.07322672550673       -2.73533832323921
C            0.78193014509028       -2.38069319636019       -0.66691362991208
N           -0.85725712812944       -0.61970339205742       -0.55704850028160
C           -1.69092843630700        0.33788242287366       -0.96158983585873
O           -1.53728862326086        1.12911908085915       -1.87368252349382
C           -2.94734153085362        0.39883517877130       -0.13555726340763
N           -3.91814347673045        1.25186529800047       -0.26563149765378
N           -4.81712233816677        0.90004929218158        0.67171610255265
C           -6.06149176812492        1.62993443681704        0.79562490554010
C           -4.38574791343393       -0.14682994659298        1.34233653176630
C           -5.03877044774880       -0.88135524687808        2.43697336357542
O           -3.20662719636964       -0.48005511685640        0.85506502753676
N            1.33484126756148        1.31540098104553       -1.18245454988558
C            2.25923939671720        2.29181821923411       -0.91140473342538
O            2.01596898373032        3.46009022431340       -1.20343164611393
C            3.54561590213780        1.82512815730204       -0.26390428723605
O            4.42568960761351        2.66887568679295       -0.01836061054851
H            6.67447785891721       -0.50425504673427        2.45659834411141
H            7.69881160570154        0.69472093440416        1.61666232469342
H            7.30825745281408       -0.86318293645584        0.83288807108276
H            0.05551329923492       -0.08670217879285       -3.16240211542335
H            1.11559437750958       -1.50350059421811       -3.18519954856303
H           -0.63154323982240       -1.70734636916711       -2.96819782170549
H            0.00154001379786       -3.09882255662474       -0.90869568297146
H            1.72229907448158       -2.70964290588374       -1.10750361321233
H            0.90615777941873       -2.33376169326874        0.41401398990770
H           -1.15001131215941       -1.19977586618036        0.21055787136290
H           -5.94110879034038        2.58888946785747        0.29731689273048
H           -6.85540304425160        1.05440087737157        0.32133117888715
H           -6.28513802234911        1.76719186998981        1.85089781288961
H           -4.32556301193085       -1.56311860191515        2.89597961657442
H           -5.88018637128970       -1.45440849094453        2.04213344241053
H           -5.42816470523109       -0.18474349041490        3.17937226523366
H            0.46930877057541        1.61125698532769       -1.60986236711594
 
 Bond Distances (Angstroems)
 ---------------------------
C1-O2=1.4213         C1-H26=1.0944        C1-H27=1.0895        C1-H28=1.0945        O2-C1=1.4213         O2-C3=1.3555         
C3-O2=1.3555         C3-O4=1.2253         C3-C5=1.4566         O4-C3=1.2253         C5-C3=1.4566         C5-N6=1.3821         
C5-C24=1.4200        N6-C5=1.3821         N6-C7=1.2804         C7-N6=1.2804         C7-C8=1.5189         C7-N21=1.3786        
C8-C7=1.5189         C8-C9=1.5328         C8-C10=1.5293        C8-N11=1.4841        C9-C8=1.5328         C9-H29=1.0877        
C9-H30=1.0894        C9-H31=1.0882        C10-C8=1.5293        C10-H32=1.0877       C10-H33=1.0893       C10-H34=1.0891       
N11-C8=1.4841        N11-C12=1.3325       N11-H35=1.0057       C12-N11=1.3325       C12-O13=1.2172       C12-C14=1.5049       
O13-C12=1.2172       C14-C12=1.5049       C14-N15=1.2989       C14-O20=1.3494       N15-C14=1.2989       N15-N16=1.3456       
N16-N15=1.3456       N16-C17=1.4479       N16-C18=1.3160       C17-N16=1.4479       C17-H36=1.0874       C17-H37=1.0893       
C17-H38=1.0874       C18-N16=1.3160       C18-C19=1.4711       C18-O20=1.3186       C19-C18=1.4711       C19-H39=1.0882       
C19-H40=1.0919       C19-H41=1.0900       O20-C14=1.3494       O20-C18=1.3186       N21-C7=1.3786        N21-C22=1.3716       
N21-H42=1.0096       C22-N21=1.3716       C22-O23=1.2285       C22-C24=1.5139       O23-C22=1.2285       C24-C5=1.4200        
C24-C22=1.5139       C24-O25=1.2437       O25-C24=1.2437       H26-C1=1.0944        H27-C1=1.0895        H28-C1=1.0945        
H29-C9=1.0877        H30-C9=1.0894        H31-C9=1.0882        H32-C10=1.0877       H33-C10=1.0893       H34-C10=1.0891       
H35-N11=1.0057       H36-C17=1.0874       H37-C17=1.0893       H38-C17=1.0874       H39-C19=1.0882       H40-C19=1.0919       
H41-C19=1.0900       H42-N21=1.0096       
 C  H  Rav=1.0896 sigma=0.0022  Rmin=1.0874  Rmax=1.0945    15
 C  C  Rav=1.4934 sigma=0.0375  Rmin=1.4200  Rmax=1.5328     8
 N  H  Rav=1.0077 sigma=0.0020  Rmin=1.0057  Rmax=1.0096     2
 N  C  Rav=1.3658 sigma=0.0637  Rmin=1.2804  Rmax=1.4841     9
 N  N  Rav=1.3456 sigma=0.0000  Rmin=1.3456  Rmax=1.3456     1
 O  C  Rav=1.2950 sigma=0.0717  Rmin=1.2172  Rmax=1.4213     8
 
 selected bond angles (degree)
 --------------------
H26-C1-O2=110.64               H27-C1-O2=107.10               H27-C1-H26=109.79              H28-C1-O2=110.69               
H28-C1-H26=108.78              H28-C1-H27=109.83              C3-O2-C1=115.82                O4-C3-O2=120.68                
C5-C3-O2=114.70                C5-C3-O4=124.62                N6-C5-C3=112.66                C24-C5-C3=124.89               
C24-C5-N6=122.44               C7-N6-C5=120.97                C8-C7-N6=119.51                N21-C7-N6=121.86               
N21-C7-C8=118.59               C9-C8-C7=111.08                C10-C8-C7=109.23               C10-C8-C9=110.13               
N11-C8-C7=110.09               N11-C8-C9=110.09               N11-C8-C10=106.10              H29-C9-C8=111.46               
H30-C9-C8=108.87               H30-C9-H29=108.74              H31-C9-C8=109.82               H31-C9-H29=108.96              
H31-C9-H30=108.96              H32-C10-C8=110.12              H33-C10-C8=109.47              H33-C10-H32=109.27             
H34-C10-C8=110.19              H34-C10-H32=109.32             H34-C10-H33=108.42             
 
 selected dihedral angles (degree)
 ---------------------------------
C3-O2-C1-H26=296.94           C3-O2-C1-H27=177.31           C3-O2-C1-H28= 57.61           O4-C3-O2-C1=  0.17            
C5-C3-O2-C1=180.46            N6-C5-C3-O2=179.02            N6-C5-C3-O4=359.33            C24-C5-C3-O2=359.47           
C24-C5-C3-O4=179.78           C7-N6-C5-C3=181.31            C7-N6-C5-C24=  0.88           C8-C7-N6-C5=177.66            
N21-C7-N6-C5=  0.12           C9-C8-C7-N6=244.72            C9-C8-C7-N21= 62.35           C10-C8-C7-N6=  6.40           
C10-C8-C7-N21=184.02          N11-C8-C7-N6=122.52           N11-C8-C7-N21=300.14          H29-C9-C8-C7=306.65           
H29-C9-C8-C10=185.51          H29-C9-C8-N11= 68.86          H30-C9-C8-C7= 66.60           H30-C9-C8-C10=305.45          
H30-C9-C8-N11=188.81          H31-C9-C8-C7=185.82           H31-C9-C8-C10= 64.67          H31-C9-C8-N11=308.02          
H32-C10-C8-C7=179.26          H32-C10-C8-C9=301.51          H32-C10-C8-N11= 60.62         H33-C10-C8-C7=299.42          
H33-C10-C8-C9= 61.68          H33-C10-C8-N11=180.79         H34-C10-C8-C7= 58.58          H34-C10-C8-C9=180.83          
H34-C10-C8-N11=299.94         
           -------------------------------------------------
          |                Final Singlepoint                |
           -------------------------------------------------

          ...................................................
          :                      SETUP                      :
          :.................................................:
          :  # basis functions                 134          :
          :  # atomic orbitals                 134          :
          :  # shells                           84          :
          :  # electrons                       134          :
          :  # halogen bonds                     0          :
          :  max. iterations                   250          :
          :  Hamiltonian                  GFN1-xTB          :
          :  restarted?                      false          :
          :  GBSA solvation                   true          :
          :  PC potential                    false          :
          :  electronic temp.          300.0000000     K    :
          :  accuracy                    1.0000000          :
          :  -> integral cutoff          0.2500000E+02      :
          :  -> integral neglect         0.1000000E-07      :
          :  -> SCF convergence          0.1000000E-05 Eh   :
          :  -> wf. convergence          0.2000000E-04 e    :
          :  Broyden damping             0.4000000          :
          ...................................................

 iter      E             dE          RMSdq      gap      omega  full diag
   1    -83.7672180 -0.837672E+02  0.151E-05    0.39       0.0  T
   2    -83.7672180 -0.120792E-11  0.824E-06    0.39    1873.5  T
   3    -83.7672180 -0.852651E-13  0.332E-06    0.39    4644.6  T

   *** convergence criteria satisfied after 3 iterations ***

         #    Occupation            Energy/Eh            Energy/eV
      -------------------------------------------------------------
         1        2.0000           -0.9361163             -25.4730
       ...           ...                  ...                  ...
        61        2.0000           -0.4667708             -12.7015
        62        2.0000           -0.4584843             -12.4760
        63        2.0000           -0.4424666             -12.0401
        64        2.0000           -0.4389657             -11.9449
        65        2.0000           -0.4204622             -11.4414
        66        2.0000           -0.3818427             -10.3905
        67        1.9990           -0.3697837             -10.0623 (HOMO)
        68        0.0010           -0.3553190              -9.6687 (LUMO)
        69                         -0.3417690              -9.3000
        70                         -0.2726004              -7.4178
        71                         -0.2454859              -6.6800
        72                         -0.2365528              -6.4369
       ...                                ...                  ...
       134                          0.7537805              20.5114
      -------------------------------------------------------------
                  HL-Gap            0.0144647 Eh            0.3936 eV
             Fermi-level           -0.3625514 Eh           -9.8655 eV

 SCC (total)                   0 d,  0 h,  0 min,  0.095 sec
 SCC setup                      ...        0 min,  0.002 sec (  1.710%)
 Dispersion                     ...        0 min,  0.000 sec (  0.242%)
 classical contributions        ...        0 min,  0.000 sec (  0.095%)
 integral evaluation            ...        0 min,  0.023 sec ( 24.008%)
 iterations                     ...        0 min,  0.016 sec ( 16.531%)
 molecular gradient             ...        0 min,  0.054 sec ( 56.070%)
 printout                       ...        0 min,  0.001 sec (  1.323%)

         :::::::::::::::::::::::::::::::::::::::::::::::::::::
         ::                     SUMMARY                     ::
         :::::::::::::::::::::::::::::::::::::::::::::::::::::
         :: total energy             -82.979608566047 Eh    ::
         :: total w/o Gsasa/hb       -82.957613313199 Eh    ::
         :: gradient norm              0.000281167653 Eh/a0 ::
         :: HOMO-LUMO gap              0.393603920662 eV    ::
         ::.................................................::
         :: SCC energy               -83.767217999880 Eh    ::
         :: -> electrostatic           0.498730073516 Eh    ::
         :: -> Gsolv                  -0.137060438086 Eh    ::
         ::    -> Gelec               -0.115065185238 Eh    ::
         ::    -> Gsasa               -0.025188638506 Eh    ::
         ::    -> Ghb                 -0.004430893346 Eh    ::
         ::    -> Gshift               0.007624279005 Eh    ::
         :: repulsion energy           0.812637757666 Eh    ::
         :: dispersion energy         -0.025028323833 Eh    ::
         :: halogen bond corr.         0.000000000000 Eh    ::
         :: add. restraining           0.000000000000 Eh    ::
         :: total charge               0.000000000000 e     ::
         :::::::::::::::::::::::::::::::::::::::::::::::::::::

           -------------------------------------------------
          |                Property Printout                |
           -------------------------------------------------

    * Orbital Energies and Occupations

         #    Occupation            Energy/Eh            Energy/eV
      -------------------------------------------------------------
         1        2.0000           -0.9361163             -25.4730
       ...           ...                  ...                  ...
        55        2.0000           -0.5047429             -13.7348
        56        2.0000           -0.5008643             -13.6292
        57        2.0000           -0.4958704             -13.4933
        58        2.0000           -0.4893884             -13.3169
        59        2.0000           -0.4823615             -13.1257
        60        2.0000           -0.4683533             -12.7445
        61        2.0000           -0.4667708             -12.7015
        62        2.0000           -0.4584843             -12.4760
        63        2.0000           -0.4424666             -12.0401
        64        2.0000           -0.4389657             -11.9449
        65        2.0000           -0.4204622             -11.4414
        66        2.0000           -0.3818427             -10.3905
        67        1.9990           -0.3697837             -10.0623 (HOMO)
        68        0.0010           -0.3553190              -9.6687 (LUMO)
        69                         -0.3417690              -9.3000
        70                         -0.2726004              -7.4178
        71                         -0.2454859              -6.6800
        72                         -0.2365528              -6.4369
        73                         -0.1995099              -5.4289
        74                         -0.1838673              -5.0033
        75                         -0.1711602              -4.6575
        76                         -0.1292548              -3.5172
        77                         -0.1238981              -3.3714
        78                         -0.1237312              -3.3669
       ...                                ...                  ...
       134                          0.7537805              20.5114
      -------------------------------------------------------------
                  HL-Gap            0.0144647 Eh            0.3936 eV
             Fermi-level           -0.3625514 Eh           -9.8655 eV

  Mulliken/CM5 charges         n(s)   n(p)   n(d)
     1C     0.17160  0.05212   0.971  2.857  0.000
     2O    -0.42994 -0.51260   1.688  4.742  0.000
     3C     0.54766  0.61254   0.975  2.477  0.000
     4O    -0.62223 -0.66569   1.734  4.888  0.000
     5C    -0.01922  0.05665   1.040  2.980  0.000
     6N    -0.37826 -0.56403   1.532  3.847  0.000
     7C     0.23578  0.38745   0.998  2.766  0.000
     8C     0.14812  0.18553   1.071  2.781  0.000
     9C    -0.10736 -0.24720   1.019  3.088  0.000
    10C    -0.10176 -0.24082   1.019  3.083  0.000
    11N    -0.32303 -0.67721   1.438  3.885  0.000
    12C     0.47915  0.59079   0.963  2.558  0.000
    13O    -0.55623 -0.60760   1.721  4.836  0.000
    14C     0.36236  0.48863   1.026  2.612  0.000
    15N    -0.18464 -0.29898   1.550  3.635  0.000
    16N     0.01696 -0.18506   1.428  3.555  0.000
    17C     0.02556 -0.05650   1.002  2.972  0.000
    18C     0.40667  0.51025   1.012  2.581  0.000
    19C    -0.11252 -0.25046   1.020  3.092  0.000
    20O    -0.30357 -0.36159   1.679  4.625  0.000
    21N    -0.31870 -0.66136   1.436  3.882  0.000
    22C     0.42587  0.52943   1.011  2.563  0.000
    23O    -0.61016 -0.64757   1.735  4.875  0.000
    24C     0.28812  0.33362   1.034  2.678  0.000
    25O    -0.63047 -0.66854   1.743  4.887  0.000
    26H     0.03385  0.09530   0.966  0.000  0.000
    27H     0.03572  0.09592   0.964  0.000  0.000
    28H     0.03487  0.09689   0.965  0.000  0.000
    29H     0.05744  0.12017   0.943  0.000  0.000
    30H     0.04959  0.10409   0.950  0.000  0.000
    31H     0.04864  0.10529   0.951  0.000  0.000
    32H     0.04521  0.10114   0.955  0.000  0.000
    33H     0.05462  0.11233   0.945  0.000  0.000
    34H     0.04962  0.10878   0.950  0.000  0.000
    35H     0.27114  0.47730   0.729  0.000  0.000
    36H     0.10600  0.17273   0.894  0.000  0.000
    37H     0.10315  0.16634   0.897  0.000  0.000
    38H     0.09501  0.15847   0.905  0.000  0.000
    39H     0.11536  0.17108   0.885  0.000  0.000
    40H     0.11936  0.17359   0.881  0.000  0.000
    41H     0.10871  0.16359   0.891  0.000  0.000
    42H     0.26194  0.47521   0.738  0.000  0.000

Wiberg/Mayer (AO) data.
largest (>0.10) Wiberg bond orders for each atom

 ---------------------------------------------------------------------------
     #   Z sym  total        # sym  WBO       # sym  WBO       # sym  WBO
 ---------------------------------------------------------------------------
     1   6 C    3.897 --    27 H    0.987    26 H    0.981    28 H    0.980
                             2 O    0.923
     2   8 O    2.163 --     3 C    1.052     1 C    0.923     4 O    0.111
     3   6 C    3.850 --     4 O    1.578     5 C    1.109     2 O    1.052
     4   8 O    1.853 --     3 C    1.578     2 O    0.111
     5   6 C    3.909 --    24 C    1.268     6 N    1.157     3 C    1.109
                            25 O    0.128
     6   7 N    3.033 --     7 C    1.629     5 C    1.157
     7   6 C    3.933 --     6 N    1.629    21 N    1.099     8 C    0.967
     8   6 C    3.913 --    10 C    1.002     9 C    0.988     7 C    0.967
                            11 N    0.890
     9   6 C    3.988 --     8 C    0.988    31 H    0.985    30 H    0.984
                            29 H    0.980
    10   6 C    3.991 --     8 C    1.002    32 H    0.986    34 H    0.982
                            33 H    0.981
    11   7 N    3.395 --    12 C    1.319    35 H    0.892     8 C    0.890
                            13 O    0.201
    12   6 C    3.926 --    13 O    1.576    11 N    1.319    14 C    0.957
    13   8 O    1.928 --    12 C    1.576    11 N    0.201
    14   6 C    3.833 --    15 N    1.613    20 O    1.050    12 C    0.957
    15   7 N    2.977 --    14 C    1.613    16 N    1.149
    16   7 N    3.632 --    18 C    1.427    15 N    1.149    17 C    0.911
    17   6 C    3.887 --    36 H    0.977    38 H    0.974    37 H    0.965
                            16 N    0.911
    18   6 C    3.841 --    16 N    1.427    20 O    1.145    19 C    1.042
    19   6 C    3.961 --    18 C    1.042    39 H    0.971    41 H    0.954
                            40 H    0.938
    20   8 O    2.372 --    18 C    1.145    14 C    1.050
    21   7 N    3.428 --    22 C    1.163     7 C    1.099    42 H    0.881
                            23 O    0.136
    22   6 C    3.879 --    23 O    1.579    21 N    1.163    24 C    0.966
    23   8 O    1.859 --    22 C    1.579    21 N    0.136
    24   6 C    3.941 --    25 O    1.525     5 C    1.268    22 C    0.966
    25   8 O    1.827 --    24 C    1.525     5 C    0.128
    26   1 H    1.013 --     1 C    0.981
    27   1 H    1.015 --     1 C    0.987
    28   1 H    1.014 --     1 C    0.980
    29   1 H    1.009 --     9 C    0.980
    30   1 H    1.002 --     9 C    0.984
    31   1 H    0.999 --     9 C    0.985
    32   1 H    0.999 --    10 C    0.986
    33   1 H    1.011 --    10 C    0.981
    34   1 H    1.007 --    10 C    0.982
    35   1 H    0.933 --    11 N    0.892
    36   1 H    0.992 --    17 C    0.977
    37   1 H    0.989 --    17 C    0.965
    38   1 H    0.990 --    17 C    0.974
    39   1 H    0.986 --    19 C    0.971
    40   1 H    0.985 --    19 C    0.938
    41   1 H    0.987 --    19 C    0.954
    42   1 H    0.949 --    21 N    0.881
 ---------------------------------------------------------------------------

Topologies differ in total number of bonds
Writing topology from bond orders to xtbtopo.mol

 dipole moment from electron density (au)
     X       Y       Z   
 -16.3363  -4.6900   3.4095  total (Debye):   44.061

           -------------------------------------------------
          |                Geometry Summary                 |
           -------------------------------------------------

      molecular mass/u    :      351.3152409
   center of mass at/Å    :        0.4377582       0.3757406      -0.1142362
  moments of inertia/u·Å² :        0.1162281E+04   0.5289848E+04   0.5549111E+04
rotational constants/cm⁻¹ :        0.1450392E-01   0.3186790E-02   0.3037898E-02

 * 37 selected distances

     #   Z          #   Z                                           value/Å
     1   6 C        2   8 O                                       1.4213493
     2   8 O        3   6 C                                       1.3554929
     3   6 C        4   8 O                                       1.2252652
     6   7 N        7   6 C                                       1.2803944
     8   6 C        9   6 C                                       1.5327737 (max)
     8   6 C       10   6 C                                       1.5293495
    11   7 N       12   6 C                                       1.3325286
    12   6 C       13   8 O                                       1.2171992
    14   6 C       15   7 N                                       1.2988597
    15   7 N       16   7 N                                       1.3455699
    16   7 N       17   6 C                                       1.4479438
    16   7 N       18   6 C                                       1.3159681
    18   6 C       19   6 C                                       1.4711207
    14   6 C       20   8 O                                       1.3494481
    18   6 C       20   8 O                                       1.3186351
     7   6 C       21   7 N                                       1.3786180
    21   7 N       22   6 C                                       1.3716307
    22   6 C       23   8 O                                       1.2285438
     5   6 C       24   6 C                                       1.4200460
    24   6 C       25   8 O                                       1.2436766
     1   6 C       26   1 H                                       1.0944230
     1   6 C       27   1 H                                       1.0895394
     1   6 C       28   1 H                                       1.0945003
     9   6 C       29   1 H                                       1.0877407
     9   6 C       30   1 H                                       1.0894223
     9   6 C       31   1 H                                       1.0881569
    10   6 C       32   1 H                                       1.0877395
    10   6 C       33   1 H                                       1.0893215
    10   6 C       34   1 H                                       1.0890545
    11   7 N       35   1 H                                       1.0056882 (min)
    17   6 C       36   1 H                                       1.0873812
    17   6 C       37   1 H                                       1.0892606
    17   6 C       38   1 H                                       1.0874090
    19   6 C       39   1 H                                       1.0881880
    19   6 C       40   1 H                                       1.0919110
    19   6 C       41   1 H                                       1.0899781
    21   7 N       42   1 H                                       1.0096311

 * 6 distinct bonds (by element types)

   Z      Z             #   av. dist./Å        max./Å        min./Å
   1 H    6 C          15     1.0896017     1.0945003     1.0873812
   6 C    6 C           4     1.4883225     1.5327737     1.4200460
   1 H    7 N           2     1.0076597     1.0096311     1.0056882
   6 C    7 N           7     1.3465633     1.4479438     1.2803944
   7 N    7 N           1     1.3455699     1.3455699     1.3455699
   6 C    8 O           8     1.2949513     1.4213493     1.2171992


optimized geometry written to: xtbopt.xyz


           -------------------------------------------------
          | TOTAL ENERGY              -82.979608566047 Eh   |
          | GRADIENT NORM               0.000281167653 Eh/α |
          | HOMO-LUMO GAP               0.393603920662 eV   |
           -------------------------------------------------

------------------------------------------------------------------------
 * finished run on 2023/06/21 at 17:23:04.321     
------------------------------------------------------------------------
 total:
 * wall-time:     0 d,  0 h,  0 min,  6.492 sec
 *  cpu-time:     0 d,  0 h,  0 min,  6.402 sec
 * ratio c/w:     0.986 speedup
 SCF:
 * wall-time:     0 d,  0 h,  0 min,  0.188 sec
 *  cpu-time:     0 d,  0 h,  0 min,  0.188 sec
 * ratio c/w:     0.998 speedup
 ANC optimizer:
 * wall-time:     0 d,  0 h,  0 min,  6.215 sec
 *  cpu-time:     0 d,  0 h,  0 min,  6.177 sec
 * ratio c/w:     0.994 speedup

