      -----------------------------------------------------------      
     |                   =====================                   |     
     |                           x T B                           |     
     |                   =====================                   |     
     |                         S. Grimme                         |     
     |          Mulliken Center for Theoretical Chemistry        |     
     |                    University of Bonn                     |     
      -----------------------------------------------------------      

   * xtb version 6.5.1 (579679a) compiled by 'ehlert@majestix' on 2022-07-11

   xtb is free software: you can redistribute it and/or modify it under
   the terms of the GNU Lesser General Public License as published by
   the Free Software Foundation, either version 3 of the License, or
   (at your option) any later version.
   
   xtb is distributed in the hope that it will be useful,
   but WITHOUT ANY WARRANTY; without even the implied warranty of
   MERCHANTABILITY or FITNESS FOR A PARTICULAR PURPOSE.  See the
   GNU Lesser General Public License for more details.
   
   Cite this work as:
   * C. Bannwarth, E. Caldeweyher, S. Ehlert, A. Hansen, P. Pracht,
     J. Seibert, S. Spicher, S. Grimme, WIREs Comput. Mol. Sci., 2020, 11,
     e01493. DOI: 10.1002/wcms.1493
   
   for GFN2-xTB:
   * C. Bannwarth, S. Ehlert and S. Grimme., J. Chem. Theory Comput., 2019,
     15, 1652-1671. DOI: 10.1021/acs.jctc.8b01176
   for GFN1-xTB:
   * S. Grimme, C. Bannwarth, P. Shushkov, J. Chem. Theory Comput., 2017,
     13, 1989-2009. DOI: 10.1021/acs.jctc.7b00118
   for GFN0-xTB:
   * P. Pracht, E. Caldeweyher, S. Ehlert, S. Grimme, ChemRxiv, 2019, preprint.
     DOI: 10.26434/chemrxiv.8326202.v1
   for GFN-FF:
   * S. Spicher and S. Grimme, Angew. Chem. Int. Ed., 2020, 59, 15665-15673.
     DOI: 10.1002/anie.202004239
   
   for ALPB and GBSA implicit solvation:
   * S. Ehlert, M. Stahn, S. Spicher, S. Grimme, J. Chem. Theory Comput.,
     2021, 17, 4250-4261. DOI: 10.1021/acs.jctc.1c00471
   
   for DFT-D4:
   * E. Caldeweyher, C. Bannwarth and S. Grimme, J. Chem. Phys., 2017,
     147, 034112. DOI: 10.1063/1.4993215
   * E. Caldeweyher, S. Ehlert, A. Hansen, H. Neugebauer, S. Spicher,
     C. Bannwarth and S. Grimme, J. Chem. Phys., 2019, 150, 154122.
     DOI: 10.1063/1.5090222
   * E. Caldeweyher, J.-M. Mewes, S. Ehlert and S. Grimme, Phys. Chem. Chem. Phys.
     2020, 22, 8499-8512. DOI: 10.1039/D0CP00502A
   
   for sTDA-xTB:
   * S. Grimme and C. Bannwarth, J. Chem. Phys., 2016, 145, 054103.
     DOI: 10.1063/1.4959605
   
   in the mass-spec context:
   * V. Asgeirsson, C. Bauer and S. Grimme, Chem. Sci., 2017, 8, 4879.
     DOI: 10.1039/c7sc00601b
   * J. Koopman and S. Grimme, ACS Omega 2019, 4, 12, 15120-15133.
     DOI: 10.1021/acsomega.9b02011
   
   for metadynamics refer to:
   * S. Grimme, J. Chem. Theory Comput., 2019, 155, 2847-2862
     DOI: 10.1021/acs.jctc.9b00143
   
   for SPH calculations refer to:
   * S. Spicher and S. Grimme, J. Chem. Theory Comput., 2021, 17, 1701-1714
     DOI: 10.1021/acs.jctc.0c01306
   
   with help from (in alphabetical order)
   P. Atkinson, C. Bannwarth, F. Bohle, G. Brandenburg, E. Caldeweyher
   M. Checinski, S. Dohm, S. Ehlert, S. Ehrlich, I. Gerasimov, C. Hölzer
   A. Katbashev, J. Koopman, C. Lavigne, S. Lehtola, F. März, M. Müller,
   F. Musil, H. Neugebauer, J. Pisarek, C. Plett, P. Pracht, F. Pultar,
   J. Seibert, P. Shushkov, S. Spicher, M. Stahn, M. Steiner, T. Strunk,
   J. Stückrath, T. Rose, and J. Unsleber
   
 * started run on 2023/06/20 at 15:14:33.584     

           -------------------------------------------------
          |                Calculation Setup                |
           -------------------------------------------------

          program call               : /lustre/hpc/kemi/ree/PhD/git/ReactivityQM/dep/xtb-6.5.1/bin/xtb --gfn 1 /lustre/hpc/kemi/ree/PhD/git/ReactivityQM/calculations/R03/reac01prodN04/conf05/R03_reac01prodN04_conf05_gfn1.xyz --opt --vfukui --chrg 1 --uhf 0 --alpb DMSO
          hostname                   : node068
          coordinate file            : /lustre/hpc/kemi/ree/PhD/git/ReactivityQM/calculations/R03/reac01prodN04/conf05/R03_reac01prodN04_conf05_gfn1.xyz
          omp threads                :                     1

   ID    Z sym.   atoms
    1    6 C      1-5, 7-9
    2    7 N      6
    3    9 F      10
    4    1 H      11-21

           -------------------------------------------------
          |                 G F N 1 - x T B                 |
           -------------------------------------------------

        Reference                      10.1021/acs.jctc.7b00118
      * Hamiltonian:
        H0-scaling (s, p, d)           1.850000    2.250000    2.000000
        zeta-weighting                 0.000000
      * Dispersion:
        s8                             2.400000
        a1                             0.630000
        a2                             5.000000
        s9                             0.000000
      * Repulsion:
        kExp                           1.500000
        rExp                           1.000000
      * Coulomb:
        alpha                          2.000000
        third order                    atomic
        anisotropic                    false
      * Halogen bond correction:
        rad-scale                      1.300000
        damping                        0.440000

      * Solvation model:               ALPB
        Solvent                        DMSO
        Parameter file                 internal GFN1-xTB/ALPB
        Dielectric constant                4.6680E+01
        Reference state                gsolv [1 M gas/solution]
        Free energy shift                  7.6243E-03 Eh       4.7843E+00 kcal/mol
        Temperature                        2.9815E+02 K
        Density                            1.1000E+00 kg/L
        Solvent mass                       7.8130E+01 g/mol
        Interaction kernel             P16
        Born radius scaling (c1)           1.7672E+00
        Born radii integrator          GBOBC
        Born offset                        0.0000E+00 a0       0.0000E+00 AA
        H-bond correction              true
        Ion screening                  false
        Surface tension                    1.0000E-05 Eh       1.5569E+01 dyn/cm
        Grid points                               230 per atom

          ...................................................
          :                      SETUP                      :
          :.................................................:
          :  # basis functions                  62          :
          :  # atomic orbitals                  62          :
          :  # shells                           42          :
          :  # electrons                        54          :
          :  # halogen bonds                     0          :
          :  max. iterations                   250          :
          :  Hamiltonian                  GFN1-xTB          :
          :  restarted?                      false          :
          :  GBSA solvation                   true          :
          :  PC potential                    false          :
          :  electronic temp.          300.0000000     K    :
          :  accuracy                    1.0000000          :
          :  -> integral cutoff          0.2500000E+02      :
          :  -> integral neglect         0.1000000E-07      :
          :  -> SCF convergence          0.1000000E-05 Eh   :
          :  -> wf. convergence          0.2000000E-04 e    :
          :  Broyden damping             0.4000000          :
          ...................................................

 iter      E             dE          RMSdq      gap      omega  full diag
   1    -31.0858535 -0.310859E+02  0.837E+00    1.69       0.0  T
   2    -31.1522003 -0.663468E-01  0.500E+00    0.33       1.0  T
   3    -31.1328632  0.193370E-01  0.131E+00    0.15       1.0  T
   4    -31.1566811 -0.238178E-01  0.296E-01    0.33       1.0  T
   5    -31.1584043 -0.172321E-02  0.730E-02    0.22       1.0  T
   6    -31.1584505 -0.462445E-04  0.224E-02    0.23       1.0  T
   7    -31.1584582 -0.760915E-05  0.698E-03    0.22       3.1  T
   8    -31.1584571  0.109253E-05  0.961E-03    0.23       2.3  T
   9    -31.1584593 -0.227046E-05  0.170E-03    0.22      12.8  T
  10    -31.1584594 -0.800910E-07  0.296E-04    0.22      73.6  T
  11    -31.1584594 -0.188760E-08  0.163E-04    0.22     133.5  T
  12    -31.1584594 -0.358572E-09  0.267E-05    0.22     818.6  T

   *** convergence criteria satisfied after 12 iterations ***

         #    Occupation            Energy/Eh            Energy/eV
      -------------------------------------------------------------
         1        2.0000           -0.9370808             -25.4993
       ...           ...                  ...                  ...
        21        2.0000           -0.5515080             -15.0073
        22        2.0000           -0.5420559             -14.7501
        23        2.0000           -0.5359867             -14.5849
        24        2.0000           -0.5276907             -14.3592
        25        2.0000           -0.5104352             -13.8896
        26        2.0000           -0.5056192             -13.7586
        27        1.9731           -0.4306340             -11.7181 (HOMO)
        28        0.0269           -0.4224739             -11.4961 (LUMO)
        29                         -0.3260299              -8.8717
        30                         -0.2469184              -6.7190
        31                         -0.1560811              -4.2472
        32                         -0.1509379              -4.1072
       ...                                ...                  ...
        62                          0.5369488              14.6111
      -------------------------------------------------------------
                  HL-Gap            0.0081600 Eh            0.2220 eV
             Fermi-level           -0.4265540 Eh          -11.6071 eV

 SCC (total)                   0 d,  0 h,  0 min,  0.037 sec
 SCC setup                      ...        0 min,  0.001 sec (  1.910%)
 Dispersion                     ...        0 min,  0.000 sec (  0.265%)
 classical contributions        ...        0 min,  0.000 sec (  0.092%)
 integral evaluation            ...        0 min,  0.008 sec ( 22.414%)
 iterations                     ...        0 min,  0.010 sec ( 27.680%)
 molecular gradient             ...        0 min,  0.017 sec ( 47.006%)
 printout                       ...        0 min,  0.000 sec (  0.587%)

         :::::::::::::::::::::::::::::::::::::::::::::::::::::
         ::                     SUMMARY                     ::
         :::::::::::::::::::::::::::::::::::::::::::::::::::::
         :: total energy             -30.764111683061 Eh    ::
         :: total w/o Gsasa/hb       -30.750660912298 Eh    ::
         :: gradient norm              0.058942423360 Eh/a0 ::
         :: HOMO-LUMO gap              0.222046056488 eV    ::
         ::.................................................::
         :: SCC energy               -31.158459414326 Eh    ::
         :: -> electrostatic           0.135811261918 Eh    ::
         :: -> Gsolv                  -0.085671368498 Eh    ::
         ::    -> Gelec               -0.072220597735 Eh    ::
         ::    -> Gsasa               -0.014166123422 Eh    ::
         ::    -> Ghb                 -0.006908926346 Eh    ::
         ::    -> Gshift               0.007624279005 Eh    ::
         :: repulsion energy           0.404299264741 Eh    ::
         :: dispersion energy         -0.009951533476 Eh    ::
         :: halogen bond corr.         0.000000000000 Eh    ::
         :: add. restraining           0.000000000000 Eh    ::
         :: total charge               1.000000000000 e     ::
         :::::::::::::::::::::::::::::::::::::::::::::::::::::

      ----------------------------------------------------------- 
     |                   =====================                   |
     |                        A N C O P T                        |
     |                   =====================                   |
     |               Approximate Normal Coordinate               |
     |                Rational Function Optimizer                |
      ----------------------------------------------------------- 

          ...................................................
          :                      SETUP                      :
          :.................................................:
          :   optimization level            normal          :
          :   max. optcycles                   200          :
          :   ANC micro-cycles                  20          :
          :   degrees of freedom                57          :
          :.................................................:
          :   RF solver                   davidson          :
          :   write xtbopt.log                true          :
          :   linear?                        false          :
          :   energy convergence         0.5000000E-05 Eh   :
          :   grad. convergence          0.1000000E-02 Eh/α :
          :   maximium RF displ.         1.0000000          :
          :   Hlow (freq-cutoff)         0.1000000E-01      :
          :   Hmax (freq-cutoff)         5.0000000          :
          :   S6 in model hess.         20.0000000          :
          ...................................................

generating ANC from model Hessian ...
Using Lindh-Hessian (1995)
 Shifting diagonal of input Hessian by   7.490771988504836E-003
 Lowest  eigenvalues of input Hessian
    0.000000    0.000000    0.000000    0.000000    0.000000    0.000000
    0.010000    0.010172    0.013523    0.015030    0.016196    0.020287
    0.022809    0.024033    0.030442    0.031927    0.043880    0.052618
 Highest eigenvalues
    1.459223    1.519224    1.650850    1.787008    1.925020    2.050909
 

........................................................................
.............................. CYCLE    1 ..............................
........................................................................
   1    -31.1584594 -0.311585E+02  0.838E-06    0.22       0.0  T
   2    -31.1584594  0.320810E-11  0.124E-05    0.22    1756.5  T
   3    -31.1584594 -0.477485E-11  0.241E-06    0.22    9049.8  T
     SCC iter.                  ...        0 min,  0.008 sec
     gradient                   ...        0 min,  0.017 sec
 * total energy  :   -30.7641117 Eh     change       -0.7545964E-11 Eh
   gradient norm :     0.0589421 Eh/α   predicted     0.0000000E+00 (-100.00%)
   displ. norm   :     0.2136687 α      lambda       -0.6249957E-02
   maximum displ.:     0.0971131 α      in ANC's #21, #4, #11, ...

........................................................................
.............................. CYCLE    2 ..............................
........................................................................
   1    -31.1587617 -0.311588E+02  0.637E-02    0.33       0.0  T
   2    -31.1588684 -0.106715E-03  0.559E-02    0.27       1.0  T
   3    -31.1589188 -0.504203E-04  0.225E-02    0.28       1.0  T
   4    -31.1589171  0.168552E-05  0.160E-02    0.27       1.4  T
   5    -31.1589197 -0.254299E-05  0.416E-03    0.28       5.2  T
   6    -31.1589198 -0.164111E-06  0.868E-04    0.28      25.1  T
   7    -31.1589198 -0.239288E-08  0.256E-04    0.28      85.1  T
   8    -31.1589198 -0.298286E-09  0.930E-05    0.28     234.6  T
   9    -31.1589198 -0.627409E-10  0.234E-05    0.28     932.3  T
     SCC iter.                  ...        0 min,  0.007 sec
     gradient                   ...        0 min,  0.017 sec
 * total energy  :   -30.7684670 Eh     change       -0.4355344E-02 Eh
   gradient norm :     0.0266650 Eh/α   predicted    -0.3268164E-02 ( -24.96%)
   displ. norm   :     0.2071613 α      lambda       -0.2135557E-02
   maximum displ.:     0.1111594 α      in ANC's #4, #1, #21, ...

........................................................................
.............................. CYCLE    3 ..............................
........................................................................
   1    -31.1599268 -0.311599E+02  0.532E-02    0.41       0.0  T
   2    -31.1599911 -0.642807E-04  0.395E-02    0.39       1.0  T
   3    -31.1600115 -0.204543E-04  0.188E-02    0.39       1.2  T
   4    -31.1600114  0.129062E-06  0.725E-03    0.39       3.0  T
   5    -31.1600118 -0.417384E-06  0.189E-03    0.39      11.5  T
   6    -31.1600119 -0.492122E-07  0.556E-04    0.39      39.3  T
   7    -31.1600119 -0.143565E-08  0.210E-04    0.39     103.9  T
   8    -31.1600119 -0.954223E-10  0.351E-05    0.39     621.7  T
   9    -31.1600119 -0.395062E-11  0.985E-06    0.39    2214.8  T
     SCC iter.                  ...        0 min,  0.007 sec
     gradient                   ...        0 min,  0.017 sec
 * total energy  :   -30.7696395 Eh     change       -0.1172430E-02 Eh
   gradient norm :     0.0069173 Eh/α   predicted    -0.1113812E-02 (  -5.00%)
   displ. norm   :     0.1054334 α      lambda       -0.1891597E-03
   maximum displ.:     0.0772613 α      in ANC's #1, #4, #6, ...

........................................................................
.............................. CYCLE    4 ..............................
........................................................................
   1    -31.1607542 -0.311608E+02  0.110E-02    0.42       0.0  T
   2    -31.1607547 -0.459509E-06  0.552E-03    0.42       4.0  T
   3    -31.1607547 -0.168520E-07  0.272E-03    0.42       8.0  T
   4    -31.1607547 -0.485441E-07  0.676E-04    0.42      32.3  T
   5    -31.1607547 -0.199594E-08  0.166E-04    0.42     131.5  T
   6    -31.1607547 -0.220087E-09  0.836E-05    0.42     261.1  T
     SCC iter.                  ...        0 min,  0.005 sec
     gradient                   ...        0 min,  0.025 sec
 * total energy  :   -30.7697861 Eh     change       -0.1466802E-03 Eh
   gradient norm :     0.0046476 Eh/α   predicted    -0.9563814E-04 ( -34.80%)
   displ. norm   :     0.1442950 α      lambda       -0.1617519E-03
   maximum displ.:     0.1072363 α      in ANC's #1, #4, #2, ...

........................................................................
.............................. CYCLE    5 ..............................
........................................................................
   1    -31.1616080 -0.311616E+02  0.968E-03    0.44       0.0  T
   2    -31.1616085 -0.503175E-06  0.498E-03    0.44       4.4  T
   3    -31.1616085 -0.899030E-08  0.270E-03    0.44       8.1  T
   4    -31.1616086 -0.533196E-07  0.101E-03    0.44      21.7  T
   5    -31.1616086 -0.956095E-08  0.164E-04    0.44     132.8  T
   6    -31.1616086 -0.188898E-09  0.579E-05    0.44     376.8  T
     SCC iter.                  ...        0 min,  0.005 sec
     gradient                   ...        0 min,  0.019 sec
 * total energy  :   -30.7698915 Eh     change       -0.1054121E-03 Eh
   gradient norm :     0.0027915 Eh/α   predicted    -0.8256033E-04 ( -21.68%)
   displ. norm   :     0.0814083 α      lambda       -0.4277815E-04
   maximum displ.:     0.0650153 α      in ANC's #1, #4, #2, ...

........................................................................
.............................. CYCLE    6 ..............................
........................................................................
   1    -31.1618362 -0.311618E+02  0.342E-03    0.44       0.0  T
   2    -31.1618363 -0.934302E-07  0.148E-03    0.44      14.7  T
   3    -31.1618363 -0.552344E-08  0.713E-04    0.44      30.6  T
   4    -31.1618363 -0.133271E-08  0.310E-04    0.44      70.4  T
   5    -31.1618363 -0.706699E-09  0.669E-05    0.44     326.4  T
   6    -31.1618363 -0.194120E-10  0.303E-05    0.44     720.4  T
     SCC iter.                  ...        0 min,  0.005 sec
     gradient                   ...        0 min,  0.018 sec
 * total energy  :   -30.7699244 Eh     change       -0.3289190E-04 Eh
   gradient norm :     0.0024549 Eh/α   predicted    -0.2153131E-04 ( -34.54%)
   displ. norm   :     0.0719697 α      lambda       -0.3276954E-04
   maximum displ.:     0.0584906 α      in ANC's #1, #3, #2, ...

........................................................................
.............................. CYCLE    7 ..............................
........................................................................
   1    -31.1619053 -0.311619E+02  0.352E-03    0.45       0.0  T
   2    -31.1619054 -0.102941E-06  0.125E-03    0.45      17.4  T
   3    -31.1619054 -0.778905E-08  0.662E-04    0.45      32.9  T
   4    -31.1619054 -0.343315E-08  0.297E-04    0.45      73.6  T
   5    -31.1619054 -0.636177E-09  0.771E-05    0.45     282.9  T
   6    -31.1619054 -0.538414E-10  0.266E-05    0.45     821.1  T
     SCC iter.                  ...        0 min,  0.005 sec
     gradient                   ...        0 min,  0.018 sec
 * total energy  :   -30.7699498 Eh     change       -0.2538787E-04 Eh
   gradient norm :     0.0016766 Eh/α   predicted    -0.1647256E-04 ( -35.12%)
   displ. norm   :     0.1060661 α      lambda       -0.2330235E-04
   maximum displ.:     0.0860000 α      in ANC's #1, #3, #2, ...

........................................................................
.............................. CYCLE    8 ..............................
........................................................................
   1    -31.1617380 -0.311617E+02  0.608E-03    0.45       0.0  T
   2    -31.1617383 -0.350626E-06  0.232E-03    0.45       9.4  T
   3    -31.1617384 -0.239130E-07  0.122E-03    0.45      17.9  T
   4    -31.1617384 -0.171700E-07  0.556E-04    0.45      39.2  T
   5    -31.1617384 -0.196524E-08  0.126E-04    0.45     173.7  T
   6    -31.1617384 -0.900897E-10  0.474E-05    0.45     460.9  T
     SCC iter.                  ...        0 min,  0.005 sec
     gradient                   ...        0 min,  0.018 sec
 * total energy  :   -30.7699710 Eh     change       -0.2113292E-04 Eh
   gradient norm :     0.0012827 Eh/α   predicted    -0.1171001E-04 ( -44.59%)
   displ. norm   :     0.0436971 α      lambda       -0.6063859E-05
   maximum displ.:     0.0331909 α      in ANC's #1, #3, #10, ...

........................................................................
.............................. CYCLE    9 ..............................
........................................................................
   1    -31.1617630 -0.311618E+02  0.269E-03    0.45       0.0  T
   2    -31.1617631 -0.815542E-07  0.112E-03    0.45      19.5  T
   3    -31.1617631 -0.798319E-08  0.509E-04    0.45      42.9  T
   4    -31.1617631 -0.241020E-08  0.186E-04    0.45     117.6  T
   5    -31.1617631 -0.761027E-10  0.477E-05    0.45     457.5  T
     SCC iter.                  ...        0 min,  0.004 sec
     gradient                   ...        0 min,  0.018 sec
 * total energy  :   -30.7699780 Eh     change       -0.7062701E-05 Eh
   gradient norm :     0.0007822 Eh/α   predicted    -0.3044235E-05 ( -56.90%)
   displ. norm   :     0.0565890 α      lambda       -0.5536922E-05
   maximum displ.:     0.0378588 α      in ANC's #1, #3, #4, ...

........................................................................
.............................. CYCLE   10 ..............................
........................................................................
   1    -31.1617872 -0.311618E+02  0.361E-03    0.46       0.0  T
   2    -31.1617873 -0.125023E-06  0.152E-03    0.46      14.3  T
   3    -31.1617873 -0.143037E-07  0.753E-04    0.46      29.0  T
   4    -31.1617873 -0.562170E-08  0.232E-04    0.46      94.0  T
   5    -31.1617873 -0.151520E-09  0.924E-05    0.46     236.1  T
   6    -31.1617873 -0.131916E-09  0.352E-05    0.46     619.9  T
     SCC iter.                  ...        0 min,  0.005 sec
     gradient                   ...        0 min,  0.018 sec
 * total energy  :   -30.7699835 Eh     change       -0.5491831E-05 Eh
   gradient norm :     0.0003603 Eh/α   predicted    -0.2775728E-05 ( -49.46%)
   displ. norm   :     0.0383403 α      lambda       -0.1826422E-05
   maximum displ.:     0.0270410 α      in ANC's #3, #1, #2, ...

........................................................................
.............................. CYCLE   11 ..............................
........................................................................
   1    -31.1617944 -0.311618E+02  0.235E-03    0.46       0.0  T
   2    -31.1617945 -0.467910E-07  0.102E-03    0.46      21.4  T
   3    -31.1617945 -0.526807E-08  0.531E-04    0.46      41.1  T
   4    -31.1617945 -0.364876E-08  0.158E-04    0.46     137.8  T
   5    -31.1617945 -0.888178E-10  0.550E-05    0.46     397.0  T
     SCC iter.                  ...        0 min,  0.004 sec
     gradient                   ...        0 min,  0.018 sec
 * total energy  :   -30.7699855 Eh     change       -0.1937326E-05 Eh
   gradient norm :     0.0004150 Eh/α   predicted    -0.9143765E-06 ( -52.80%)
   displ. norm   :     0.0271573 α      lambda       -0.1138256E-05
   maximum displ.:     0.0185104 α      in ANC's #3, #1, #2, ...

   *** GEOMETRY OPTIMIZATION CONVERGED AFTER 11 ITERATIONS ***

------------------------------------------------------------------------
 total energy gain   :        -0.0058738 Eh       -3.6858 kcal/mol
 total RMSD          :         0.1880489 a0        0.0995 Å
 total power (kW/mol):        -1.4019622 (step)  -41.0731 (real)
------------------------------------------------------------------------

 ANCopt (total)                0 d,  0 h,  0 min,  0.375 sec
 optimizer setup                ...        0 min,  0.001 sec (  0.198%)
 model hessian                  ...        0 min,  0.006 sec (  1.667%)
 ANC generation                 ...        0 min,  0.001 sec (  0.186%)
 coordinate transformation      ...        0 min,  0.000 sec (  0.021%)
 single point calculation       ...        0 min,  0.365 sec ( 97.135%)
 optimization log               ...        0 min,  0.002 sec (  0.428%)
 hessian update                 ...        0 min,  0.000 sec (  0.025%)
 rational function              ...        0 min,  0.001 sec (  0.162%)

================
 final structure:
================
21
 xtb: 6.5.1 (579679a)
C           -2.54742493192879       -1.14416775022695       -0.22707724329425
C           -1.36694917713024       -0.41916523597962        0.47140257939383
C           -0.04266348874217       -0.79655826300464       -0.05141899173932
C            0.91952673345937        0.12565324039526       -0.36921318708456
C            2.29942528358403       -0.30772906930612       -0.82377639611605
N            3.16816286810964       -0.45459660385103        0.33460058709453
C            0.62917494736094        1.49923297338003       -0.21102675510579
C           -0.59386045891913        1.95328376906724        0.27478784498772
C           -1.56089639904954        1.03007319484840        0.58002867680207
F           -2.73156090220609        1.42661472403919        1.00222199658609
H           -2.40688564889830       -2.21938704194975       -0.14748428013144
H           -3.48008789129636       -0.86019187833356        0.25555931350967
H           -2.57500238794066       -0.85654177386515       -1.27569295790325
H           -1.38718330001884       -0.80065152500421        1.51041343653789
H            0.14346865779842       -1.85763031315748       -0.17204087507754
H            2.72545771190186        0.44152546652976       -1.49491713705871
H            2.23885943916274       -1.26643990679110       -1.34293211490083
H            2.78149374853213       -1.15421026798606        0.95295684001870
H            3.20065711236281        0.41932604378197        0.84115015514098
H            1.38164464471195        2.22927706977824       -0.48940879480673
H           -0.79535656085376        3.01228514763508        0.38186430314698
 
 Bond Distances (Angstroems)
 ---------------------------
C1-C2=1.5515         C1-H11=1.0873        C1-H12=1.0879        C1-H13=1.0877        C2-C1=1.5515         C2-C3=1.4729         
C2-C9=1.4662         C2-H14=1.1070        C3-C2=1.4729         C3-C4=1.3701         C3-H15=1.0840        C4-C3=1.3701         
C4-C5=1.5161         C4-C7=1.4128         C5-C4=1.5161         C5-N6=1.4554         C5-H16=1.0924        C5-H17=1.0919        
N6-C5=1.4554         N6-H18=1.0106        N6-H19=1.0106        C7-C4=1.4128         C7-C8=1.3921         C7-H20=1.0847        
C8-C7=1.3921         C8-C9=1.3714         C8-H21=1.0833        C9-C2=1.4662         C9-C8=1.3714         C9-F10=1.3061        
F10-C9=1.3061        H11-C1=1.0873        H12-C1=1.0879        H13-C1=1.0877        H14-C2=1.1070        H15-C3=1.0840        
H16-C5=1.0924        H17-C5=1.0919        H18-N6=1.0106        H19-N6=1.0106        H20-C7=1.0847        H21-C8=1.0833        
 C  H  Rav=1.0896 sigma=0.0069  Rmin=1.0833  Rmax=1.1070     9
 C  C  Rav=1.4441 sigma=0.0637  Rmin=1.3701  Rmax=1.5515     8
 N  H  Rav=1.0106 sigma=0.0000  Rmin=1.0106  Rmax=1.0106     2
 N  C  Rav=1.4554 sigma=0.0000  Rmin=1.4554  Rmax=1.4554     1
 F  C  Rav=1.3061 sigma=0.0000  Rmin=1.3061  Rmax=1.3061     1
 
 selected bond angles (degree)
 --------------------
H11-C1-C2=109.32               H12-C1-C2=109.31               H12-C1-H11=109.66              H13-C1-C2=109.25               
H13-C1-H11=109.59              H13-C1-H12=109.69              C3-C2-C1=113.86                C9-C2-C1=113.24                
C9-C2-C3=113.48                H14-C2-C1=104.34               H14-C2-C3=105.15               H14-C2-C9=105.59               
C4-C3-C2=122.77                H15-C3-C2=116.40               H15-C3-C4=120.83               C5-C4-C3=121.08                
C7-C4-C3=118.95                C7-C4-C5=119.90                N6-C5-C4=109.48                H16-C5-C4=110.07               
H16-C5-N6=108.99               H17-C5-C4=110.06               H17-C5-N6=108.84               H17-C5-H16=109.37              
H18-N6-C5=109.18               H19-N6-C5=109.32               H19-N6-H18=107.71              C8-C7-C4=122.46                
H20-C7-C4=118.88               H20-C7-C8=118.65               C9-C8-C7=118.53                H21-C8-C7=121.11               
H21-C8-C9=120.33               C8-C9-C2=123.76                F10-C9-C2=116.27               F10-C9-C8=119.97               
 
 selected dihedral angles (degree)
 ---------------------------------
C3-C2-C1-H11= 56.41           C3-C2-C1-H12=176.45           C3-C2-C1-H13=296.49           C9-C2-C1-H11=188.03           
C9-C2-C1-H12=308.07           C9-C2-C1-H13= 68.11           H14-C2-C1-H11=302.34          H14-C2-C1-H12= 62.38          
H14-C2-C1-H13=182.41          C4-C3-C2-C1=133.11            C4-C3-C2-C9=  1.60            C4-C3-C2-H14=246.70           
H15-C3-C2-C1=312.82           H15-C3-C2-C9=181.32           H15-C3-C2-H14= 66.41          C5-C4-C3-C2=176.19            
C5-C4-C3-H15=356.49           C7-C4-C3-C2=358.99            C7-C4-C3-H15=179.28           N6-C5-C4-C3=270.39            
N6-C5-C4-C7= 87.57            H16-C5-C4-C3=150.61           H16-C5-C4-C7=327.79           H17-C5-C4-C3= 29.99           
H17-C5-C4-C7=207.17           H18-N6-C5-C4= 60.14           H18-N6-C5-H16=180.58          H18-N6-C5-H17=299.80          
H19-N6-C5-C4=302.54           H19-N6-C5-H16= 62.98          H19-N6-C5-H17=182.20          C8-C7-C4-C3=  0.94            
C8-C7-C4-C5=183.70            H20-C7-C4-C3=181.71           H20-C7-C4-C5=  4.47           C9-C8-C7-C4=358.43            
C9-C8-C7-H20=177.66           H21-C8-C7-C4=180.36           H21-C8-C7-H20=359.60          C8-C9-C2-C1=225.90            
C8-C9-C2-C3=357.71            C8-C9-C2-H14=112.35           F10-C9-C2-C1= 46.30           F10-C9-C2-C3=178.11           
F10-C9-C2-H14=292.75          C2-C9-C8-C7=  2.34            C2-C9-C8-H21=180.42           F10-C9-C8-C7=181.92           
F10-C9-C8-H21=  0.00          
           -------------------------------------------------
          |                Final Singlepoint                |
           -------------------------------------------------

          ...................................................
          :                      SETUP                      :
          :.................................................:
          :  # basis functions                  62          :
          :  # atomic orbitals                  62          :
          :  # shells                           42          :
          :  # electrons                        54          :
          :  # halogen bonds                     0          :
          :  max. iterations                   250          :
          :  Hamiltonian                  GFN1-xTB          :
          :  restarted?                      false          :
          :  GBSA solvation                   true          :
          :  PC potential                    false          :
          :  electronic temp.          300.0000000     K    :
          :  accuracy                    1.0000000          :
          :  -> integral cutoff          0.2500000E+02      :
          :  -> integral neglect         0.1000000E-07      :
          :  -> SCF convergence          0.1000000E-05 Eh   :
          :  -> wf. convergence          0.2000000E-04 e    :
          :  Broyden damping             0.4000000          :
          ...................................................

 iter      E             dE          RMSdq      gap      omega  full diag
   1    -31.1617945 -0.311618E+02  0.228E-05    0.46       0.0  T
   2    -31.1617945 -0.216360E-11  0.130E-05    0.46    1674.4  T
   3    -31.1617945 -0.291323E-12  0.753E-06    0.46    2899.6  T

   *** convergence criteria satisfied after 3 iterations ***

         #    Occupation            Energy/Eh            Energy/eV
      -------------------------------------------------------------
         1        2.0000           -0.9458192             -25.7370
       ...           ...                  ...                  ...
        21        2.0000           -0.5498096             -14.9611
        22        2.0000           -0.5392338             -14.6733
        23        2.0000           -0.5371142             -14.6156
        24        2.0000           -0.5300789             -14.4242
        25        2.0000           -0.5112033             -13.9106
        26        2.0000           -0.5030749             -13.6894
        27        1.9997           -0.4335177             -11.7966 (HOMO)
        28        0.0003           -0.4166897             -11.3387 (LUMO)
        29                         -0.3277694              -8.9191
        30                         -0.2481059              -6.7513
        31                         -0.1586966              -4.3184
        32                         -0.1516560              -4.1268
       ...                                ...                  ...
        62                          0.5383545              14.6494
      -------------------------------------------------------------
                  HL-Gap            0.0168280 Eh            0.4579 eV
             Fermi-level           -0.4251037 Eh          -11.5677 eV

 SCC (total)                   0 d,  0 h,  0 min,  0.030 sec
 SCC setup                      ...        0 min,  0.001 sec (  2.289%)
 Dispersion                     ...        0 min,  0.000 sec (  0.225%)
 classical contributions        ...        0 min,  0.000 sec (  0.083%)
 integral evaluation            ...        0 min,  0.009 sec ( 28.233%)
 iterations                     ...        0 min,  0.003 sec (  8.634%)
 molecular gradient             ...        0 min,  0.018 sec ( 59.494%)
 printout                       ...        0 min,  0.000 sec (  0.982%)

         :::::::::::::::::::::::::::::::::::::::::::::::::::::
         ::                     SUMMARY                     ::
         :::::::::::::::::::::::::::::::::::::::::::::::::::::
         :: total energy             -30.769985454126 Eh    ::
         :: total w/o Gsasa/hb       -30.757074261090 Eh    ::
         :: gradient norm              0.000415821433 Eh/a0 ::
         :: HOMO-LUMO gap              0.457912492974 eV    ::
         ::.................................................::
         :: SCC energy               -31.161794473999 Eh    ::
         :: -> electrostatic           0.137535596078 Eh    ::
         :: -> Gsolv                  -0.086697532642 Eh    ::
         ::    -> Gelec               -0.073786339607 Eh    ::
         ::    -> Gsasa               -0.014117992188 Eh    ::
         ::    -> Ghb                 -0.006417479852 Eh    ::
         ::    -> Gshift               0.007624279005 Eh    ::
         :: repulsion energy           0.401801900891 Eh    ::
         :: dispersion energy         -0.009992881018 Eh    ::
         :: halogen bond corr.         0.000000000000 Eh    ::
         :: add. restraining           0.000000000000 Eh    ::
         :: total charge               1.000000000000 e     ::
         :::::::::::::::::::::::::::::::::::::::::::::::::::::

           -------------------------------------------------
          |                Property Printout                |
           -------------------------------------------------

    * Orbital Energies and Occupations

         #    Occupation            Energy/Eh            Energy/eV
      -------------------------------------------------------------
         1        2.0000           -0.9458192             -25.7370
       ...           ...                  ...                  ...
        15        2.0000           -0.5986930             -16.2913
        16        2.0000           -0.5977188             -16.2648
        17        2.0000           -0.5825618             -15.8523
        18        2.0000           -0.5773542             -15.7106
        19        2.0000           -0.5674137             -15.4401
        20        2.0000           -0.5584701             -15.1967
        21        2.0000           -0.5498096             -14.9611
        22        2.0000           -0.5392338             -14.6733
        23        2.0000           -0.5371142             -14.6156
        24        2.0000           -0.5300789             -14.4242
        25        2.0000           -0.5112033             -13.9106
        26        2.0000           -0.5030749             -13.6894
        27        1.9997           -0.4335177             -11.7966 (HOMO)
        28        0.0003           -0.4166897             -11.3387 (LUMO)
        29                         -0.3277694              -8.9191
        30                         -0.2481059              -6.7513
        31                         -0.1586966              -4.3184
        32                         -0.1516560              -4.1268
        33                         -0.1457659              -3.9665
        34                         -0.1439230              -3.9163
        35                         -0.1324735              -3.6048
        36                         -0.1190177              -3.2386
        37                         -0.1017508              -2.7688
        38                         -0.0910549              -2.4777
       ...                                ...                  ...
        62                          0.5383545              14.6494
      -------------------------------------------------------------
                  HL-Gap            0.0168280 Eh            0.4579 eV
             Fermi-level           -0.4251037 Eh          -11.5677 eV

  Mulliken/CM5 charges         n(s)   n(p)   n(d)
     1C    -0.07486 -0.22309   1.025  3.050  0.000
     2C    -0.02900 -0.08662   1.062  2.967  0.000
     3C     0.03984 -0.01570   1.110  2.850  0.000
     4C     0.00763 -0.00395   1.100  2.892  0.000
     5C     0.08565  0.03574   1.010  2.904  0.000
     6N    -0.49464 -0.95084   1.473  4.022  0.000
     7C     0.07134  0.01834   1.106  2.822  0.000
     8C    -0.04243 -0.09343   1.064  2.978  0.000
     9C     0.32075  0.33124   1.083  2.596  0.000
    10F    -0.17768 -0.20555   1.811  5.367  0.000
    11H     0.08059  0.13301   0.919  0.000  0.000
    12H     0.08056  0.13425   0.919  0.000  0.000
    13H     0.07583  0.12889   0.924  0.000  0.000
    14H     0.16814  0.22809   0.832  0.000  0.000
    15H     0.10253  0.16022   0.897  0.000  0.000
    16H     0.05577  0.12074   0.944  0.000  0.000
    17H     0.05613  0.12124   0.944  0.000  0.000
    18H     0.22738  0.41700   0.773  0.000  0.000
    19H     0.22669  0.41638   0.773  0.000  0.000
    20H     0.10352  0.16077   0.896  0.000  0.000
    21H     0.11627  0.17330   0.884  0.000  0.000

Wiberg/Mayer (AO) data.
largest (>0.10) Wiberg bond orders for each atom

 ---------------------------------------------------------------------------
     #   Z sym  total        # sym  WBO       # sym  WBO       # sym  WBO
 ---------------------------------------------------------------------------
     1   6 C    3.963 --    13 H    0.983    11 H    0.983    12 H    0.981
                             2 C    0.914
     2   6 C    3.989 --     3 C    1.086     9 C    1.072     1 C    0.914
                            14 H    0.831
     3   6 C    3.956 --     4 C    1.557     2 C    1.086    15 H    0.963
     4   6 C    3.974 --     3 C    1.557     7 C    1.303     5 C    0.988
     5   6 C    3.973 --     6 N    0.993     4 C    0.988    17 H    0.975
                            16 H    0.974
     6   7 N    2.978 --     5 C    0.993    19 H    0.942    18 H    0.941
     7   6 C    3.943 --     8 C    1.410     4 C    1.303    20 H    0.964
     8   6 C    3.982 --     9 C    1.461     7 C    1.410    21 H    0.955
     9   6 C    3.842 --     8 C    1.461     2 C    1.072    10 F    1.033
    10   9 F    1.201 --     9 C    1.033
    11   1 H    0.992 --     1 C    0.983
    12   1 H    0.995 --     1 C    0.981
    13   1 H    0.994 --     1 C    0.983
    14   1 H    0.976 --     2 C    0.831
    15   1 H    0.989 --     3 C    0.963
    16   1 H    1.003 --     5 C    0.974
    17   1 H    1.003 --     5 C    0.975
    18   1 H    0.953 --     6 N    0.941
    19   1 H    0.953 --     6 N    0.942
    20   1 H    0.991 --     7 C    0.964
    21   1 H    0.984 --     8 C    0.955
 ---------------------------------------------------------------------------

Topologies differ in total number of bonds
Writing topology from bond orders to xtbtopo.mol

 dipole moment from electron density (au)
     X       Y       Z   
  -0.9519   0.3662   0.6210  total (Debye):    3.035

           -------------------------------------------------
          |                Geometry Summary                 |
           -------------------------------------------------

      molecular mass/u    :      140.1783418
   center of mass at/Å    :       -0.2344622       0.2932589       0.1316866
  moments of inertia/u·Å² :        0.1940325E+03   0.6006217E+03   0.7328328E+03
rotational constants/cm⁻¹ :        0.8688044E-01   0.2806697E-01   0.2300338E-01

 * 19 selected distances

     #   Z          #   Z                                           value/Å
     2   6 C        3   6 C                                       1.4729226 (max)
     3   6 C        4   6 C                                       1.3701378
     5   6 C        6   7 N                                       1.4553737
     4   6 C        7   6 C                                       1.4128159
     7   6 C        8   6 C                                       1.3921185
     2   6 C        9   6 C                                       1.4661881
     8   6 C        9   6 C                                       1.3713674
     9   6 C       10   9 F                                       1.3061195
     1   6 C       11   1 H                                       1.0872824
     1   6 C       12   1 H                                       1.0878606
     1   6 C       13   1 H                                       1.0876968
     2   6 C       14   1 H                                       1.1070163
     3   6 C       15   1 H                                       1.0840060
     5   6 C       16   1 H                                       1.0923901
     5   6 C       17   1 H                                       1.0919330
     6   7 N       18   1 H                                       1.0106122 (min)
     6   7 N       19   1 H                                       1.0106381
     7   6 C       20   1 H                                       1.0847450
     8   6 C       21   1 H                                       1.0833052

 * 5 distinct bonds (by element types)

   Z      Z             #   av. dist./Å        max./Å        min./Å
   1 H    6 C           9     1.0895817     1.1070163     1.0833052
   6 C    6 C           6     1.4142584     1.4729226     1.3701378
   1 H    7 N           2     1.0106251     1.0106381     1.0106122
   6 C    7 N           1     1.4553737     1.4553737     1.4553737
   6 C    9 F           1     1.3061195     1.3061195     1.3061195


optimized geometry written to: xtbopt.xyz


           -------------------------------------------------
          | TOTAL ENERGY              -30.769985454126 Eh   |
          | GRADIENT NORM               0.000415821433 Eh/α |
          | HOMO-LUMO GAP               0.457912492974 eV   |
           -------------------------------------------------

------------------------------------------------------------------------
 * finished run on 2023/06/20 at 15:14:34.124     
------------------------------------------------------------------------
 total:
 * wall-time:     0 d,  0 h,  0 min,  0.540 sec
 *  cpu-time:     0 d,  0 h,  0 min,  0.447 sec
 * ratio c/w:     0.829 speedup
 SCF:
 * wall-time:     0 d,  0 h,  0 min,  0.037 sec
 *  cpu-time:     0 d,  0 h,  0 min,  0.037 sec
 * ratio c/w:     0.998 speedup
 ANC optimizer:
 * wall-time:     0 d,  0 h,  0 min,  0.431 sec
 *  cpu-time:     0 d,  0 h,  0 min,  0.389 sec
 * ratio c/w:     0.903 speedup

