38
 energy: -79.621612302800 gnorm: 0.000929221950 xtb: 6.5.1 (579679a)
C            6.19371728408586        0.43845041149874        2.01203596587272
O            5.14110600660022       -0.30195060036275        1.41208204109957
C            4.09038943169686        0.42783028078112        0.95700248703969
O            4.08280260323600        1.64834085322149        1.07558852462195
C            3.02824536918223       -0.35304619451476        0.34248182541920
N            1.98951170478285        0.43256679206776       -0.12299317751592
C            0.97692184683789       -0.09244767128145       -0.70669280406705
C           -0.13844801959737        0.80328091241405       -1.22359725000793
C            0.22665731981950        2.26296349738946       -0.94438884447882
C           -0.36096871899920        0.60490771230306       -2.72734052253836
N           -1.38380922315451        0.53450326580152       -0.47928814108142
C           -2.19771593652947       -0.52087944922823       -0.64395309226980
O           -2.01387306877127       -1.47003077941992       -1.39025589060950
C           -3.39043322681463       -0.41195431195851        0.23992185257227
N           -3.60146210510684        0.50474104352952        1.13570291911094
N           -4.79900022498047        0.21487092185687        1.72016953526402
C           -5.24144583278272       -0.85961547112320        1.14136944283123
C           -6.51005789712638       -1.57150929419185        1.41093588152838
O           -4.39579384224448       -1.30573390798259        0.20110009128473
N            0.87344614075095       -1.45301352295102       -0.89768465382365
C            1.81669627505507       -2.35192026861033       -0.47570964961732
O            1.65103686883353       -3.55375691647612       -0.67466063418379
C            3.02798780956049       -1.76689353925982        0.21856869614409
O            3.91464945015969       -2.54298264670406        0.62089282242749
H            6.60763634268031        1.16555823613068        1.30638266579556
H            6.96451320901952       -0.27570354795120        2.29918151065882
H            5.83609002070234        0.97305155005916        2.89774985096008
H           -0.56944735196746        2.92023284786188       -1.28795144938587
H            1.14744973437006        2.51466885012677       -1.46845948334102
H            0.38547604177669        2.41535130027122        0.12262700339581
H            0.54657923969520        0.88388452556354       -3.26040259787740
H           -0.60084094446162       -0.42891622105733       -2.96344004460875
H           -1.17798523088827        1.23957480573736       -3.06527618576165
H           -1.68987722126479        1.25344624829487        0.15912962931606
H           -7.15938735199414       -1.51691900782838        0.53762030501480
H           -6.31368978054482       -2.62231436849817        1.61922776794672
H           -7.01101648683980       -1.11596149988303        2.26082544104659
H            0.05433876522384       -1.82762783562497       -1.35850083817820
