      -----------------------------------------------------------      
     |                   =====================                   |     
     |                           x T B                           |     
     |                   =====================                   |     
     |                         S. Grimme                         |     
     |          Mulliken Center for Theoretical Chemistry        |     
     |                    University of Bonn                     |     
      -----------------------------------------------------------      

   * xtb version 6.5.1 (579679a) compiled by 'ehlert@majestix' on 2022-07-11

   xtb is free software: you can redistribute it and/or modify it under
   the terms of the GNU Lesser General Public License as published by
   the Free Software Foundation, either version 3 of the License, or
   (at your option) any later version.
   
   xtb is distributed in the hope that it will be useful,
   but WITHOUT ANY WARRANTY; without even the implied warranty of
   MERCHANTABILITY or FITNESS FOR A PARTICULAR PURPOSE.  See the
   GNU Lesser General Public License for more details.
   
   Cite this work as:
   * C. Bannwarth, E. Caldeweyher, S. Ehlert, A. Hansen, P. Pracht,
     J. Seibert, S. Spicher, S. Grimme, WIREs Comput. Mol. Sci., 2020, 11,
     e01493. DOI: 10.1002/wcms.1493
   
   for GFN2-xTB:
   * C. Bannwarth, S. Ehlert and S. Grimme., J. Chem. Theory Comput., 2019,
     15, 1652-1671. DOI: 10.1021/acs.jctc.8b01176
   for GFN1-xTB:
   * S. Grimme, C. Bannwarth, P. Shushkov, J. Chem. Theory Comput., 2017,
     13, 1989-2009. DOI: 10.1021/acs.jctc.7b00118
   for GFN0-xTB:
   * P. Pracht, E. Caldeweyher, S. Ehlert, S. Grimme, ChemRxiv, 2019, preprint.
     DOI: 10.26434/chemrxiv.8326202.v1
   for GFN-FF:
   * S. Spicher and S. Grimme, Angew. Chem. Int. Ed., 2020, 59, 15665-15673.
     DOI: 10.1002/anie.202004239
   
   for ALPB and GBSA implicit solvation:
   * S. Ehlert, M. Stahn, S. Spicher, S. Grimme, J. Chem. Theory Comput.,
     2021, 17, 4250-4261. DOI: 10.1021/acs.jctc.1c00471
   
   for DFT-D4:
   * E. Caldeweyher, C. Bannwarth and S. Grimme, J. Chem. Phys., 2017,
     147, 034112. DOI: 10.1063/1.4993215
   * E. Caldeweyher, S. Ehlert, A. Hansen, H. Neugebauer, S. Spicher,
     C. Bannwarth and S. Grimme, J. Chem. Phys., 2019, 150, 154122.
     DOI: 10.1063/1.5090222
   * E. Caldeweyher, J.-M. Mewes, S. Ehlert and S. Grimme, Phys. Chem. Chem. Phys.
     2020, 22, 8499-8512. DOI: 10.1039/D0CP00502A
   
   for sTDA-xTB:
   * S. Grimme and C. Bannwarth, J. Chem. Phys., 2016, 145, 054103.
     DOI: 10.1063/1.4959605
   
   in the mass-spec context:
   * V. Asgeirsson, C. Bauer and S. Grimme, Chem. Sci., 2017, 8, 4879.
     DOI: 10.1039/c7sc00601b
   * J. Koopman and S. Grimme, ACS Omega 2019, 4, 12, 15120-15133.
     DOI: 10.1021/acsomega.9b02011
   
   for metadynamics refer to:
   * S. Grimme, J. Chem. Theory Comput., 2019, 155, 2847-2862
     DOI: 10.1021/acs.jctc.9b00143
   
   for SPH calculations refer to:
   * S. Spicher and S. Grimme, J. Chem. Theory Comput., 2021, 17, 1701-1714
     DOI: 10.1021/acs.jctc.0c01306
   
   with help from (in alphabetical order)
   P. Atkinson, C. Bannwarth, F. Bohle, G. Brandenburg, E. Caldeweyher
   M. Checinski, S. Dohm, S. Ehlert, S. Ehrlich, I. Gerasimov, C. Hölzer
   A. Katbashev, J. Koopman, C. Lavigne, S. Lehtola, F. März, M. Müller,
   F. Musil, H. Neugebauer, J. Pisarek, C. Plett, P. Pracht, F. Pultar,
   J. Seibert, P. Shushkov, S. Spicher, M. Stahn, M. Steiner, T. Strunk,
   J. Stückrath, T. Rose, and J. Unsleber
   
 * started run on 2023/06/20 at 14:55:25.839     

           -------------------------------------------------
          |                Calculation Setup                |
           -------------------------------------------------

          program call               : /lustre/hpc/kemi/ree/PhD/git/ReactivityQM/dep/xtb-6.5.1/bin/xtb --gfn 1 /lustre/hpc/kemi/ree/PhD/git/ReactivityQM/calculations/R01/reac01prodN03/conf12/R01_reac01prodN03_conf12_gfn1.xyz --opt --vfukui --chrg 1 --uhf 0 --alpb DMSO
          hostname                   : node312
          coordinate file            : /lustre/hpc/kemi/ree/PhD/git/ReactivityQM/calculations/R01/reac01prodN03/conf12/R01_reac01prodN03_conf12_gfn1.xyz
          omp threads                :                     1

   ID    Z sym.   atoms
    1    6 C      1, 3, 5, 7, 8, 11
    2    8 O      2, 4, 6
    3    7 N      9, 10
    4    1 H      12-20

           -------------------------------------------------
          |                 G F N 1 - x T B                 |
           -------------------------------------------------

        Reference                      10.1021/acs.jctc.7b00118
      * Hamiltonian:
        H0-scaling (s, p, d)           1.850000    2.250000    2.000000
        zeta-weighting                 0.000000
      * Dispersion:
        s8                             2.400000
        a1                             0.630000
        a2                             5.000000
        s9                             0.000000
      * Repulsion:
        kExp                           1.500000
        rExp                           1.000000
      * Coulomb:
        alpha                          2.000000
        third order                    atomic
        anisotropic                    false
      * Halogen bond correction:
        rad-scale                      1.300000
        damping                        0.440000

      * Solvation model:               ALPB
        Solvent                        DMSO
        Parameter file                 internal GFN1-xTB/ALPB
        Dielectric constant                4.6680E+01
        Reference state                gsolv [1 M gas/solution]
        Free energy shift                  7.6243E-03 Eh       4.7843E+00 kcal/mol
        Temperature                        2.9815E+02 K
        Density                            1.1000E+00 kg/L
        Solvent mass                       7.8130E+01 g/mol
        Interaction kernel             P16
        Born radius scaling (c1)           1.7672E+00
        Born radii integrator          GBOBC
        Born offset                        0.0000E+00 a0       0.0000E+00 AA
        H-bond correction              true
        Ion screening                  false
        Surface tension                    1.0000E-05 Eh       1.5569E+01 dyn/cm
        Grid points                               230 per atom

          ...................................................
          :                      SETUP                      :
          :.................................................:
          :  # basis functions                  62          :
          :  # atomic orbitals                  62          :
          :  # shells                           40          :
          :  # electrons                        60          :
          :  # halogen bonds                     0          :
          :  max. iterations                   250          :
          :  Hamiltonian                  GFN1-xTB          :
          :  restarted?                      false          :
          :  GBSA solvation                   true          :
          :  PC potential                    false          :
          :  electronic temp.          300.0000000     K    :
          :  accuracy                    1.0000000          :
          :  -> integral cutoff          0.2500000E+02      :
          :  -> integral neglect         0.1000000E-07      :
          :  -> SCF convergence          0.1000000E-05 Eh   :
          :  -> wf. convergence          0.2000000E-04 e    :
          :  Broyden damping             0.4000000          :
          ...................................................

 iter      E             dE          RMSdq      gap      omega  full diag
   1    -37.7738565 -0.377739E+02  0.794E+00    2.99       0.0  T
   2    -37.9397579 -0.165901E+00  0.469E+00    2.83       1.0  T
   3    -37.9381955  0.156234E-02  0.168E+00    2.77       1.0  T
   4    -37.9472259 -0.903041E-02  0.191E-01    2.62       1.0  T
   5    -37.9478054 -0.579496E-03  0.630E-02    2.67       1.0  T
   6    -37.9478435 -0.380697E-04  0.217E-02    2.69       1.0  T
   7    -37.9478504 -0.686464E-05  0.535E-03    2.69       4.2  T
   8    -37.9478508 -0.442541E-06  0.674E-04    2.69      33.2  T
   9    -37.9478508 -0.187670E-08  0.293E-04    2.69      76.3  T
  10    -37.9478508 -0.105835E-08  0.839E-05    2.69     266.6  T
  11    -37.9478508 -0.487788E-10  0.205E-05    2.69    1091.4  T

   *** convergence criteria satisfied after 11 iterations ***

         #    Occupation            Energy/Eh            Energy/eV
      -------------------------------------------------------------
         1        2.0000           -0.9388624             -25.5477
       ...           ...                  ...                  ...
        24        2.0000           -0.5697105             -15.5026
        25        2.0000           -0.5618279             -15.2881
        26        2.0000           -0.5579830             -15.1835
        27        2.0000           -0.5352533             -14.5650
        28        2.0000           -0.5307468             -14.4424
        29        2.0000           -0.5285099             -14.3815
        30        2.0000           -0.5161125             -14.0441 (HOMO)
        31                         -0.4170957             -11.3498 (LUMO)
        32                         -0.3387199              -9.2170
        33                         -0.2814352              -7.6582
        34                         -0.1745372              -4.7494
        35                         -0.1727715              -4.7014
       ...                                ...                  ...
        62                          0.5545113              15.0890
      -------------------------------------------------------------
                  HL-Gap            0.0990168 Eh            2.6944 eV
             Fermi-level           -0.4666041 Eh          -12.6969 eV

 SCC (total)                   0 d,  0 h,  0 min,  0.042 sec
 SCC setup                      ...        0 min,  0.001 sec (  2.129%)
 Dispersion                     ...        0 min,  0.000 sec (  0.315%)
 classical contributions        ...        0 min,  0.000 sec (  0.128%)
 integral evaluation            ...        0 min,  0.011 sec ( 24.918%)
 iterations                     ...        0 min,  0.010 sec ( 23.301%)
 molecular gradient             ...        0 min,  0.020 sec ( 48.613%)
 printout                       ...        0 min,  0.000 sec (  0.512%)

         :::::::::::::::::::::::::::::::::::::::::::::::::::::
         ::                     SUMMARY                     ::
         :::::::::::::::::::::::::::::::::::::::::::::::::::::
         :: total energy             -37.622129209844 Eh    ::
         :: total w/o Gsasa/hb       -37.611716523265 Eh    ::
         :: gradient norm              0.158365054793 Eh/a0 ::
         :: HOMO-LUMO gap              2.694385220144 eV    ::
         ::.................................................::
         :: SCC energy               -37.947850804742 Eh    ::
         :: -> electrostatic           0.221693202557 Eh    ::
         :: -> Gsolv                  -0.078329316211 Eh    ::
         ::    -> Gelec               -0.067916629632 Eh    ::
         ::    -> Gsasa               -0.014932865214 Eh    ::
         ::    -> Ghb                 -0.003104100370 Eh    ::
         ::    -> Gshift               0.007624279005 Eh    ::
         :: repulsion energy           0.333942220351 Eh    ::
         :: dispersion energy         -0.008220625453 Eh    ::
         :: halogen bond corr.         0.000000000000 Eh    ::
         :: add. restraining           0.000000000000 Eh    ::
         :: total charge               1.000000000000 e     ::
         :::::::::::::::::::::::::::::::::::::::::::::::::::::

      ----------------------------------------------------------- 
     |                   =====================                   |
     |                        A N C O P T                        |
     |                   =====================                   |
     |               Approximate Normal Coordinate               |
     |                Rational Function Optimizer                |
      ----------------------------------------------------------- 

          ...................................................
          :                      SETUP                      :
          :.................................................:
          :   optimization level            normal          :
          :   max. optcycles                   200          :
          :   ANC micro-cycles                  20          :
          :   degrees of freedom                54          :
          :.................................................:
          :   RF solver                   davidson          :
          :   write xtbopt.log                true          :
          :   linear?                        false          :
          :   energy convergence         0.5000000E-05 Eh   :
          :   grad. convergence          0.1000000E-02 Eh/α :
          :   maximium RF displ.         1.0000000          :
          :   Hlow (freq-cutoff)         0.1000000E-01      :
          :   Hmax (freq-cutoff)         5.0000000          :
          :   S6 in model hess.         20.0000000          :
          ...................................................

generating ANC from model Hessian ...
Using Lindh-Hessian (1995)
 Shifting diagonal of input Hessian by   7.472013304854282E-003
 Lowest  eigenvalues of input Hessian
    0.000000    0.000000    0.000000    0.000000    0.000000    0.000000
    0.010000    0.011557    0.012318    0.014138    0.015963    0.019125
    0.020891    0.026275    0.034451    0.043770    0.045381    0.051220
 Highest eigenvalues
    1.641698    1.792444    1.913165    1.988708    2.102475    2.303501
 

........................................................................
.............................. CYCLE    1 ..............................
........................................................................
   1    -37.9478508 -0.379479E+02  0.642E-06    2.69       0.0  T
   2    -37.9478508 -0.319744E-12  0.397E-06    2.69    5638.0  T
   3    -37.9478508 -0.568434E-13  0.210E-06    2.69   10655.7  T
     SCC iter.                  ...        0 min,  0.003 sec
     gradient                   ...        0 min,  0.022 sec
 * total energy  :   -37.6221292 Eh     change       -0.5286438E-11 Eh
   gradient norm :     0.1583649 Eh/α   predicted     0.0000000E+00 (-100.00%)
   displ. norm   :     0.2470814 α      lambda       -0.2008938E-01
   maximum displ.:     0.1402488 α      in ANC's #3, #19, #7, ...

........................................................................
.............................. CYCLE    2 ..............................
........................................................................
   1    -37.9778529 -0.379779E+02  0.153E-01    3.19       0.0  T
   2    -37.9782568 -0.403898E-03  0.681E-02    3.15       1.0  T
   3    -37.9783163 -0.594888E-04  0.340E-02    3.16       1.0  T
   4    -37.9783186 -0.231937E-05  0.146E-02    3.16       1.5  T
   5    -37.9783188 -0.207636E-06  0.217E-03    3.16      10.3  T
   6    -37.9783189 -0.975574E-07  0.513E-04    3.16      43.6  T
   7    -37.9783190 -0.331733E-08  0.165E-04    3.16     135.2  T
   8    -37.9783190 -0.864375E-10  0.573E-05    3.16     390.4  T
     SCC iter.                  ...        0 min,  0.004 sec
     gradient                   ...        0 min,  0.019 sec
 * total energy  :   -37.6368108 Eh     change       -0.1468155E-01 Eh
   gradient norm :     0.0812981 Eh/α   predicted    -0.1066714E-01 ( -27.34%)
   displ. norm   :     0.3258886 α      lambda       -0.9381481E-02
   maximum displ.:     0.2572662 α      in ANC's #3, #7, #13, ...

........................................................................
.............................. CYCLE    3 ..............................
........................................................................
   1    -37.9981007 -0.379981E+02  0.124E-01    3.64       0.0  T
   2    -37.9984115 -0.310827E-03  0.558E-02    3.60       1.0  T
   3    -37.9984517 -0.401891E-04  0.265E-02    3.61       1.0  T
   4    -37.9984525 -0.778617E-06  0.103E-02    3.61       2.2  T
   5    -37.9984526 -0.677386E-07  0.140E-03    3.61      16.0  T
   6    -37.9984526 -0.383604E-07  0.469E-04    3.61      47.7  T
   7    -37.9984526 -0.237020E-08  0.171E-04    3.61     131.0  T
   8    -37.9984526 -0.537668E-10  0.426E-05    3.61     525.2  T
     SCC iter.                  ...        0 min,  0.006 sec
     gradient                   ...        0 min,  0.021 sec
 * total energy  :   -37.6419396 Eh     change       -0.5128875E-02 Eh
   gradient norm :     0.0210560 Eh/α   predicted    -0.5191109E-02 (   1.21%)
   displ. norm   :     0.3035604 α      lambda       -0.1715580E-02
   maximum displ.:     0.2827162 α      in ANC's #3, #7, #4, ...

........................................................................
.............................. CYCLE    4 ..............................
........................................................................
   1    -37.9969342 -0.379969E+02  0.265E-02    3.64       0.0  T
   2    -37.9969401 -0.594422E-05  0.111E-02    3.63       2.0  T
   3    -37.9969405 -0.337371E-06  0.626E-03    3.64       3.6  T
   4    -37.9969406 -0.107720E-06  0.151E-03    3.63      14.8  T
   5    -37.9969406 -0.116616E-07  0.332E-04    3.63      67.3  T
   6    -37.9969406 -0.100611E-08  0.111E-04    3.63     200.6  T
   7    -37.9969406 -0.895639E-10  0.406E-05    3.63     550.4  T
     SCC iter.                  ...        0 min,  0.006 sec
     gradient                   ...        0 min,  0.021 sec
 * total energy  :   -37.6433192 Eh     change       -0.1379517E-02 Eh
   gradient norm :     0.0129174 Eh/α   predicted    -0.9368418E-03 ( -32.09%)
   displ. norm   :     0.3602554 α      lambda       -0.1407678E-02
   maximum displ.:     0.3335107 α      in ANC's #3, #4, #7, ...

........................................................................
.............................. CYCLE    5 ..............................
........................................................................
   1    -37.9959683 -0.379960E+02  0.320E-02    3.65       0.0  T
   2    -37.9959806 -0.122914E-04  0.124E-02    3.64       1.8  T
   3    -37.9959810 -0.452114E-06  0.699E-03    3.64       3.2  T
   4    -37.9959811 -0.739590E-07  0.201E-03    3.64      11.2  T
   5    -37.9959811 -0.145626E-07  0.418E-04    3.64      53.5  T
   6    -37.9959811 -0.203660E-08  0.101E-04    3.64     221.4  T
   7    -37.9959811 -0.879226E-10  0.426E-05    3.64     524.8  T
     SCC iter.                  ...        0 min,  0.006 sec
     gradient                   ...        0 min,  0.022 sec
 * total energy  :   -37.6443403 Eh     change       -0.1021185E-02 Eh
   gradient norm :     0.0084263 Eh/α   predicted    -0.7951971E-03 ( -22.13%)
   displ. norm   :     0.2754047 α      lambda       -0.5833263E-03
   maximum displ.:     0.2539756 α      in ANC's #3, #4, #6, ...

........................................................................
.............................. CYCLE    6 ..............................
........................................................................
   1    -37.9965803 -0.379966E+02  0.163E-02    3.66       0.0  T
   2    -37.9965845 -0.419428E-05  0.585E-03    3.66       3.8  T
   3    -37.9965847 -0.249040E-06  0.342E-03    3.66       6.5  T
   4    -37.9965848 -0.332528E-07  0.120E-03    3.66      18.7  T
   5    -37.9965848 -0.229006E-08  0.273E-04    3.66      81.8  T
   6    -37.9965848 -0.903327E-09  0.713E-05    3.66     313.8  T
   7    -37.9965848 -0.594298E-10  0.254E-05    3.66     878.7  T
     SCC iter.                  ...        0 min,  0.006 sec
     gradient                   ...        0 min,  0.022 sec
 * total energy  :   -37.6447905 Eh     change       -0.4501656E-03 Eh
   gradient norm :     0.0092086 Eh/α   predicted    -0.3137959E-03 ( -30.29%)
   displ. norm   :     0.2432829 α      lambda       -0.3888223E-03
   maximum displ.:     0.2188983 α      in ANC's #3, #4, #6, ...

........................................................................
.............................. CYCLE    7 ..............................
........................................................................
   1    -37.9978333 -0.379978E+02  0.101E-02    3.67       0.0  T
   2    -37.9978341 -0.777850E-06  0.463E-03    3.66       4.8  T
   3    -37.9978342 -0.341852E-07  0.245E-03    3.66       9.1  T
   4    -37.9978342 -0.140261E-07  0.589E-04    3.66      37.9  T
   5    -37.9978342 -0.240980E-08  0.134E-04    3.66     167.3  T
   6    -37.9978342 -0.265892E-09  0.374E-05    3.66     598.0  T
     SCC iter.                  ...        0 min,  0.006 sec
     gradient                   ...        0 min,  0.022 sec
 * total energy  :   -37.6450976 Eh     change       -0.3070641E-03 Eh
   gradient norm :     0.0077043 Eh/α   predicted    -0.2059753E-03 ( -32.92%)
   displ. norm   :     0.2553064 α      lambda       -0.3065845E-03
   maximum displ.:     0.2251749 α      in ANC's #3, #4, #6, ...

........................................................................
.............................. CYCLE    8 ..............................
........................................................................
   1    -37.9989223 -0.379989E+02  0.945E-03    3.67       0.0  T
   2    -37.9989224 -0.843411E-07  0.547E-03    3.66       4.1  T
   3    -37.9989224  0.388816E-08  0.133E-03    3.66      16.8  T
   4    -37.9989224 -0.133812E-07  0.265E-04    3.66      84.3  T
   5    -37.9989224 -0.518781E-09  0.779E-05    3.66     287.0  T
   6    -37.9989224 -0.372395E-10  0.180E-05    3.66    1243.4  T
     SCC iter.                  ...        0 min,  0.005 sec
     gradient                   ...        0 min,  0.022 sec
 * total energy  :   -37.6453148 Eh     change       -0.2172687E-03 Eh
   gradient norm :     0.0048208 Eh/α   predicted    -0.1632932E-03 ( -24.84%)
   displ. norm   :     0.1800896 α      lambda       -0.1188493E-03
   maximum displ.:     0.1557034 α      in ANC's #3, #6, #4, ...

........................................................................
.............................. CYCLE    9 ..............................
........................................................................
   1    -37.9998030 -0.379998E+02  0.798E-03    3.66       0.0  T
   2    -37.9998033 -0.335297E-06  0.399E-03    3.66       5.6  T
   3    -37.9998033 -0.161445E-07  0.204E-03    3.66      11.0  T
   4    -37.9998033 -0.159788E-07  0.320E-04    3.66      69.9  T
   5    -37.9998033 -0.770711E-09  0.805E-05    3.66     277.9  T
   6    -37.9998033 -0.646878E-10  0.335E-05    3.66     667.2  T
     SCC iter.                  ...        0 min,  0.006 sec
     gradient                   ...        0 min,  0.022 sec
 * total energy  :   -37.6453856 Eh     change       -0.7080253E-04 Eh
   gradient norm :     0.0025193 Eh/α   predicted    -0.6135249E-04 ( -13.35%)
   displ. norm   :     0.0526771 α      lambda       -0.1702341E-04
   maximum displ.:     0.0428289 α      in ANC's #3, #7, #6, ...

........................................................................
.............................. CYCLE   10 ..............................
........................................................................
   1    -38.0002011 -0.380002E+02  0.330E-03    3.66       0.0  T
   2    -38.0002013 -0.132943E-06  0.139E-03    3.66      16.1  T
   3    -38.0002013 -0.135321E-07  0.836E-04    3.66      26.7  T
   4    -38.0002013 -0.154117E-08  0.208E-04    3.66     107.6  T
   5    -38.0002013 -0.221561E-09  0.376E-05    3.66     594.2  T
   6    -38.0002013 -0.197247E-10  0.119E-05    3.66    1872.0  T
     SCC iter.                  ...        0 min,  0.005 sec
     gradient                   ...        0 min,  0.022 sec
 * total energy  :   -37.6453956 Eh     change       -0.9912642E-05 Eh
   gradient norm :     0.0014859 Eh/α   predicted    -0.8536221E-05 ( -13.89%)
   displ. norm   :     0.0260269 α      lambda       -0.5158125E-05
   maximum displ.:     0.0130157 α      in ANC's #3, #7, #8, ...

........................................................................
.............................. CYCLE   11 ..............................
........................................................................
   1    -38.0004018 -0.380004E+02  0.323E-03    3.66       0.0  T
   2    -38.0004020 -0.185705E-06  0.121E-03    3.66      18.6  T
   3    -38.0004020 -0.253626E-07  0.526E-04    3.66      42.5  T
   4    -38.0004020 -0.591349E-09  0.246E-04    3.66      90.9  T
   5    -38.0004020 -0.506972E-10  0.312E-05    3.66     717.5  T
   6    -38.0004020 -0.893152E-11  0.881E-06    3.66    2537.0  T
     SCC iter.                  ...        0 min,  0.006 sec
     gradient                   ...        0 min,  0.022 sec
 * total energy  :   -37.6454000 Eh     change       -0.4430742E-05 Eh
   gradient norm :     0.0007382 Eh/α   predicted    -0.2583139E-05 ( -41.70%)
   displ. norm   :     0.0269466 α      lambda       -0.2855548E-05
   maximum displ.:     0.0142072 α      in ANC's #3, #5, #1, ...

   *** GEOMETRY OPTIMIZATION CONVERGED AFTER 11 ITERATIONS ***

------------------------------------------------------------------------
 total energy gain   :        -0.0232708 Eh      -14.6026 kcal/mol
 total RMSD          :         0.4667484 a0        0.2470 Å
 total power (kW/mol):        -5.5543097 (step) -143.2483 (real)
------------------------------------------------------------------------

 ANCopt (total)                0 d,  0 h,  0 min,  0.427 sec
 optimizer setup                ...        0 min,  0.001 sec (  0.160%)
 model hessian                  ...        0 min,  0.004 sec (  0.934%)
 ANC generation                 ...        0 min,  0.001 sec (  0.135%)
 coordinate transformation      ...        0 min,  0.000 sec (  0.035%)
 single point calculation       ...        0 min,  0.416 sec ( 97.641%)
 optimization log               ...        0 min,  0.002 sec (  0.529%)
 hessian update                 ...        0 min,  0.000 sec (  0.039%)
 rational function              ...        0 min,  0.001 sec (  0.282%)

================
 final structure:
================
20
 xtb: 6.5.1 (579679a)
C           -3.53186644766764       -0.92541760246133       -0.52109939520797
O           -2.09084974108895       -0.88424782989991       -0.50816122386283
C           -1.52376613059976        0.23982731447493       -0.17298771178288
O           -2.06015619878510        1.26792070223886        0.13679796217495
C           -0.02035315883090        0.12231442908326       -0.21690563016213
O            0.62214835923969       -0.98810101507267       -0.53781329652462
C            1.92797695237560       -0.69409810558677       -0.48140903389099
C            2.94863562216272       -1.71229375543146       -0.77489987090938
N            2.10875471784798        0.55309548384740       -0.14019568354363
N            0.87609023413596        1.05345389378718        0.02117094310612
C            0.71710236372715        2.43509138905178        0.42140939146558
H           -3.91184684358000       -0.67304550762069        0.46965192782329
H           -3.90735849346636       -0.21206137658122       -1.25582581016274
H           -3.79847919779464       -1.94340221151570       -0.79455686928102
H            3.91903614432962       -1.23831643021572       -0.90251165662987
H            2.99983083386853       -2.42413606340733        0.05157161720170
H            2.67149662785106       -2.26311399431639       -1.67316273396837
H            1.50502729897967        3.01509123681280       -0.05350881948731
H           -0.26800804232358        2.78036509073605        0.11808220289631
H            0.81658509961897        2.49107335207700        1.50531669074571
 
 Bond Distances (Angstroems)
 ---------------------------
C1-O2=1.4417         C1-H12=1.0907        C1-H13=1.0907        C1-H14=1.0873        O2-C1=1.4417         O2-C3=1.3029         
C3-O2=1.3029         C3-O4=1.2003         C3-C5=1.5086         O4-C3=1.2003         C5-C3=1.5086         C5-O6=1.3224         
C5-N10=1.3143        O6-C5=1.3224         O6-C7=1.3397         C7-O6=1.3397         C7-C8=1.4713         C7-N9=1.3056         
C8-C7=1.4713         C8-H15=1.0875        C8-H16=1.0920        C8-H17=1.0895        N9-C7=1.3056         N9-N10=1.3401        
N10-C5=1.3143        N10-N9=1.3401        N10-C11=1.4472       C11-N10=1.4472       C11-H18=1.0876       C11-H19=1.0870       
C11-H20=1.0899       H12-C1=1.0907        H13-C1=1.0907        H14-C1=1.0873        H15-C8=1.0875        H16-C8=1.0920        
H17-C8=1.0895        H18-C11=1.0876       H19-C11=1.0870       H20-C11=1.0899       
 C  H  Rav=1.0891 sigma=0.0017  Rmin=1.0870  Rmax=1.0920     9
 C  C  Rav=1.4899 sigma=0.0187  Rmin=1.4713  Rmax=1.5086     2
 N  C  Rav=1.3557 sigma=0.0648  Rmin=1.3056  Rmax=1.4472     3
 N  N  Rav=1.3401 sigma=0.0000  Rmin=1.3401  Rmax=1.3401     1
 O  C  Rav=1.3214 sigma=0.0772  Rmin=1.2003  Rmax=1.4417     5
 
 selected bond angles (degree)
 --------------------
H12-C1-O2=109.48               H13-C1-O2=109.36               H13-C1-H12=109.91              H14-C1-O2=105.91               
H14-C1-H12=111.08              H14-C1-H13=111.01              C3-O2-C1=117.52                O4-C3-O2=127.65                
C5-C3-O2=111.04                C5-C3-O4=121.30                O6-C5-C3=123.82                N10-C5-C3=128.26               
N10-C5-O6=107.91               C7-O6-C5=106.21                C8-C7-O6=121.06                N9-C7-O6=110.83                
N9-C7-C8=128.11                H15-C8-C7=109.93               H16-C8-C7=109.43               H16-C8-H15=109.34              
H17-C8-C7=109.75               H17-C8-H15=110.52              H17-C8-H16=107.84              N10-N9-C7=105.12               
N9-N10-C5=109.94               C11-N10-C5=130.66              C11-N10-N9=119.39              
 
 selected dihedral angles (degree)
 ---------------------------------
C3-O2-C1-H12=301.41           C3-O2-C1-H13= 61.89           C3-O2-C1-H14=181.57           O4-C3-O2-C1=  0.22            
C5-C3-O2-C1=180.37            O6-C5-C3-O2=359.15            O6-C5-C3-O4=179.30            N10-C5-C3-O2=178.02           
N10-C5-C3-O4=358.17           C7-O6-C5-C3=179.22            C7-O6-C5-N10=  0.14           C8-C7-O6-C5=179.60            
N9-C7-O6-C5=359.92            H15-C8-C7-O6=166.98           H15-C8-C7-N9=346.60           H16-C8-C7-O6=287.07           
H16-C8-C7-N9=106.69           H17-C8-C7-O6= 45.22           H17-C8-C7-N9=224.84           N10-N9-C7-O6=  0.00           
N10-N9-C7-C8=180.33           N9-N10-C5-C3=180.82           N9-N10-C5-O6=359.84           C11-N10-C5-C3=  1.73          
C11-N10-C5-O6=180.74          C5-N10-N9-C7=  0.11           C11-N10-N9-C7=179.32          
           -------------------------------------------------
          |                Final Singlepoint                |
           -------------------------------------------------

          ...................................................
          :                      SETUP                      :
          :.................................................:
          :  # basis functions                  62          :
          :  # atomic orbitals                  62          :
          :  # shells                           40          :
          :  # electrons                        60          :
          :  # halogen bonds                     0          :
          :  max. iterations                   250          :
          :  Hamiltonian                  GFN1-xTB          :
          :  restarted?                      false          :
          :  GBSA solvation                   true          :
          :  PC potential                    false          :
          :  electronic temp.          300.0000000     K    :
          :  accuracy                    1.0000000          :
          :  -> integral cutoff          0.2500000E+02      :
          :  -> integral neglect         0.1000000E-07      :
          :  -> SCF convergence          0.1000000E-05 Eh   :
          :  -> wf. convergence          0.2000000E-04 e    :
          :  Broyden damping             0.4000000          :
          ...................................................

 iter      E             dE          RMSdq      gap      omega  full diag
   1    -38.0004020 -0.380004E+02  0.369E-06    3.66       0.0  T
   2    -38.0004020 -0.710543E-14  0.202E-06    3.66   11062.0  T
   3    -38.0004020  0.142109E-13  0.745E-07    3.66   30015.2  T

   *** convergence criteria satisfied after 3 iterations ***

         #    Occupation            Energy/Eh            Energy/eV
      -------------------------------------------------------------
         1        2.0000           -0.9438934             -25.6846
       ...           ...                  ...                  ...
        24        2.0000           -0.5695771             -15.4990
        25        2.0000           -0.5596565             -15.2290
        26        2.0000           -0.5496870             -14.9577
        27        2.0000           -0.5437985             -14.7975
        28        2.0000           -0.5324853             -14.4897
        29        2.0000           -0.5319500             -14.4751
        30        2.0000           -0.5221983             -14.2097 (HOMO)
        31                         -0.3878061             -10.5527 (LUMO)
        32                         -0.3291338              -8.9562
        33                         -0.2701361              -7.3508
        34                         -0.1748655              -4.7583
        35                         -0.1695131              -4.6127
       ...                                ...                  ...
        62                          0.7213084              19.6278
      -------------------------------------------------------------
                  HL-Gap            0.1343922 Eh            3.6570 eV
             Fermi-level           -0.4550022 Eh          -12.3812 eV

 SCC (total)                   0 d,  0 h,  0 min,  0.036 sec
 SCC setup                      ...        0 min,  0.001 sec (  2.002%)
 Dispersion                     ...        0 min,  0.000 sec (  0.285%)
 classical contributions        ...        0 min,  0.000 sec (  0.089%)
 integral evaluation            ...        0 min,  0.010 sec ( 28.362%)
 iterations                     ...        0 min,  0.003 sec (  7.153%)
 molecular gradient             ...        0 min,  0.022 sec ( 61.098%)
 printout                       ...        0 min,  0.000 sec (  0.903%)

         :::::::::::::::::::::::::::::::::::::::::::::::::::::
         ::                     SUMMARY                     ::
         :::::::::::::::::::::::::::::::::::::::::::::::::::::
         :: total energy             -37.645399983007 Eh    ::
         :: total w/o Gsasa/hb       -37.634821182148 Eh    ::
         :: gradient norm              0.000738876888 Eh/a0 ::
         :: HOMO-LUMO gap              3.656996600384 eV    ::
         ::.................................................::
         :: SCC energy               -38.000401995822 Eh    ::
         :: -> electrostatic           0.219345519742 Eh    ::
         :: -> Gsolv                  -0.077896167663 Eh    ::
         ::    -> Gelec               -0.067317366805 Eh    ::
         ::    -> Gsasa               -0.015105733157 Eh    ::
         ::    -> Ghb                 -0.003097346706 Eh    ::
         ::    -> Gshift               0.007624279005 Eh    ::
         :: repulsion energy           0.363118154077 Eh    ::
         :: dispersion energy         -0.008116141261 Eh    ::
         :: halogen bond corr.         0.000000000000 Eh    ::
         :: add. restraining           0.000000000000 Eh    ::
         :: total charge               1.000000000000 e     ::
         :::::::::::::::::::::::::::::::::::::::::::::::::::::

           -------------------------------------------------
          |                Property Printout                |
           -------------------------------------------------

    * Orbital Energies and Occupations

         #    Occupation            Energy/Eh            Energy/eV
      -------------------------------------------------------------
         1        2.0000           -0.9438934             -25.6846
       ...           ...                  ...                  ...
        18        2.0000           -0.6262840             -17.0421
        19        2.0000           -0.6069701             -16.5165
        20        2.0000           -0.6043117             -16.4442
        21        2.0000           -0.5964866             -16.2312
        22        2.0000           -0.5878151             -15.9953
        23        2.0000           -0.5752206             -15.6525
        24        2.0000           -0.5695771             -15.4990
        25        2.0000           -0.5596565             -15.2290
        26        2.0000           -0.5496870             -14.9577
        27        2.0000           -0.5437985             -14.7975
        28        2.0000           -0.5324853             -14.4897
        29        2.0000           -0.5319500             -14.4751
        30        2.0000           -0.5221983             -14.2097 (HOMO)
        31                         -0.3878061             -10.5527 (LUMO)
        32                         -0.3291338              -8.9562
        33                         -0.2701361              -7.3508
        34                         -0.1748655              -4.7583
        35                         -0.1695131              -4.6127
        36                         -0.1565047              -4.2587
        37                         -0.1099110              -2.9908
        38                         -0.1014684              -2.7611
        39                         -0.1004736              -2.7340
        40                         -0.0996500              -2.7116
        41                         -0.0919595              -2.5023
       ...                                ...                  ...
        62                          0.7213084              19.6278
      -------------------------------------------------------------
                  HL-Gap            0.1343922 Eh            3.6570 eV
             Fermi-level           -0.4550022 Eh          -12.3812 eV

  Mulliken/CM5 charges         n(s)   n(p)   n(d)
     1C     0.15508  0.03309   0.993  2.852  0.000
     2O    -0.37423 -0.45910   1.676  4.698  0.000
     3C     0.60153  0.67055   0.940  2.458  0.000
     4O    -0.50888 -0.55931   1.714  4.795  0.000
     5C     0.35579  0.47544   1.011  2.634  0.000
     6O    -0.28632 -0.33920   1.674  4.613  0.000
     7C     0.41783  0.52548   1.019  2.563  0.000
     8C    -0.10890 -0.24607   1.017  3.092  0.000
     9N    -0.21804 -0.33502   1.549  3.669  0.000
    10N     0.05944 -0.13963   1.432  3.508  0.000
    11C     0.02478 -0.05595   1.006  2.970  0.000
    12H     0.07692  0.13848   0.923  0.000  0.000
    13H     0.07698  0.13830   0.923  0.000  0.000
    14H     0.08047  0.14087   0.920  0.000  0.000
    15H     0.09871  0.15440   0.901  0.000  0.000
    16H     0.11394  0.16812   0.886  0.000  0.000
    17H     0.10851  0.16351   0.891  0.000  0.000
    18H     0.10831  0.17468   0.892  0.000  0.000
    19H     0.10511  0.17429   0.895  0.000  0.000
    20H     0.11295  0.17708   0.887  0.000  0.000

Wiberg/Mayer (AO) data.
largest (>0.10) Wiberg bond orders for each atom

 ---------------------------------------------------------------------------
     #   Z sym  total        # sym  WBO       # sym  WBO       # sym  WBO
 ---------------------------------------------------------------------------
     1   6 C    3.827 --    14 H    0.983    12 H    0.976    13 H    0.975
                             2 O    0.858
     2   8 O    2.258 --     3 C    1.192     1 C    0.858     4 O    0.160
     3   6 C    3.883 --     4 O    1.677     2 O    1.192     5 C    0.943
     4   8 O    1.982 --     3 C    1.677     2 O    0.160
     5   6 C    3.854 --    10 N    1.453     6 O    1.133     3 C    0.943
     6   8 O    2.386 --     5 C    1.133     7 C    1.084
     7   6 C    3.837 --     9 N    1.552     6 O    1.084     8 C    1.044
     8   6 C    3.968 --     7 C    1.044    15 H    0.975    17 H    0.956
                            16 H    0.940
     9   7 N    2.965 --     7 C    1.552    10 N    1.173
    10   7 N    3.669 --     5 C    1.453     9 N    1.173    11 C    0.908
    11   6 C    3.874 --    18 H    0.971    19 H    0.971    20 H    0.955
                            10 N    0.908
    12   1 H    0.998 --     1 C    0.976
    13   1 H    0.998 --     1 C    0.975
    14   1 H    1.004 --     1 C    0.983
    15   1 H    0.990 --     8 C    0.975
    16   1 H    0.987 --     8 C    0.940
    17   1 H    0.988 --     8 C    0.956
    18   1 H    0.991 --    11 C    0.971
    19   1 H    1.000 --    11 C    0.971
    20   1 H    0.988 --    11 C    0.955
 ---------------------------------------------------------------------------

Topologies differ in total number of bonds
Writing topology from bond orders to xtbtopo.mol

 dipole moment from electron density (au)
     X       Y       Z   
   1.0107  -0.4242  -0.5925  total (Debye):    3.167

           -------------------------------------------------
          |                Geometry Summary                 |
           -------------------------------------------------

      molecular mass/u    :      157.1475033
   center of mass at/Å    :       -0.0534974       0.0377992      -0.2528704
  moments of inertia/u·Å² :        0.2601917E+03   0.6353051E+03   0.8859113E+03
rotational constants/cm⁻¹ :        0.6478929E-01   0.2653470E-01   0.1902858E-01

 * 19 selected distances

     #   Z          #   Z                                           value/Å
     1   6 C        2   8 O                                       1.4416629
     2   8 O        3   6 C                                       1.3028700
     3   6 C        4   8 O                                       1.2002740
     5   6 C        6   8 O                                       1.3224268
     6   8 O        7   6 C                                       1.3397044
     7   6 C        8   6 C                                       1.4712592 (max)
     7   6 C        9   7 N                                       1.3056030
     5   6 C       10   7 N                                       1.3142725
     9   7 N       10   7 N                                       1.3400969
    10   7 N       11   6 C                                       1.4472009
     1   6 C       12   1 H                                       1.0907177
     1   6 C       13   1 H                                       1.0907312
     1   6 C       14   1 H                                       1.0872692
     8   6 C       15   1 H                                       1.0874818
     8   6 C       16   1 H                                       1.0919688
     8   6 C       17   1 H                                       1.0895345
    11   6 C       18   1 H                                       1.0875537
    11   6 C       19   1 H                                       1.0870437 (min)
    11   6 C       20   1 H                                       1.0899019

 * 5 distinct bonds (by element types)

   Z      Z             #   av. dist./Å        max./Å        min./Å
   1 H    6 C           9     1.0891336     1.0919688     1.0870437
   6 C    6 C           1     1.4712592     1.4712592     1.4712592
   6 C    7 N           3     1.3556922     1.4472009     1.3056030
   7 N    7 N           1     1.3400969     1.3400969     1.3400969
   6 C    8 O           5     1.3213876     1.4416629     1.2002740


optimized geometry written to: xtbopt.xyz


           -------------------------------------------------
          | TOTAL ENERGY              -37.645399983007 Eh   |
          | GRADIENT NORM               0.000738876888 Eh/α |
          | HOMO-LUMO GAP               3.656996600384 eV   |
           -------------------------------------------------

------------------------------------------------------------------------
 * finished run on 2023/06/20 at 14:55:26.443     
------------------------------------------------------------------------
 total:
 * wall-time:     0 d,  0 h,  0 min,  0.604 sec
 *  cpu-time:     0 d,  0 h,  0 min,  0.527 sec
 * ratio c/w:     0.873 speedup
 SCF:
 * wall-time:     0 d,  0 h,  0 min,  0.042 sec
 *  cpu-time:     0 d,  0 h,  0 min,  0.042 sec
 * ratio c/w:     0.997 speedup
 ANC optimizer:
 * wall-time:     0 d,  0 h,  0 min,  0.480 sec
 *  cpu-time:     0 d,  0 h,  0 min,  0.460 sec
 * ratio c/w:     0.957 speedup

