47
 energy: -80.187954772243 gnorm: 0.000520848282 xtb: 6.5.1 (579679a)
C           -4.14009676912561        1.54078314867582       -2.13813138638115
N           -2.94500547571852        0.99065027248374       -1.50415204436579
C           -2.97031946587037        0.20837768853434       -0.37071141265904
C           -4.27749643052198       -0.20363343276224        0.29994696375960
C           -4.85886909229380       -1.40741667870775       -0.45723524865885
C           -3.98964975309906       -0.61444722386254        1.75433726747384
N           -5.24732416515305        0.88886621720547        0.28400052441397
N           -1.89308783404339       -0.27736217551262        0.15108296979656
C           -0.64808145096646       -0.03957681927355       -0.37863942778571
C            0.45582969684177       -0.71498756043011        0.34316104236006
O            0.28774730942364       -1.22979058681036        1.45731109705804
N            1.64184610393955       -0.78499204504897       -0.30739377695081
C            2.82026047710026       -1.35084240303551        0.30515945247692
C            3.81774698569003       -0.25718223777104        0.88484593057987
C            3.01247242595207        0.64805590446104        1.84637326266578
C            4.89665952284505       -0.99315523441311        1.63968372656810
C            6.19505033155203       -1.04804778063696        1.21444150631846
C            6.59132618488402       -0.34859006011932        0.07493111663428
F            7.90847891729972       -0.41073296716867       -0.32559080888049
C            5.70350445391314        0.46572076999584       -0.63106699929915
C            4.39585870474743        0.55375076673853       -0.24653165999557
C           -0.55928392430365        0.77874723641363       -1.48711713840226
O            0.62235791496353        1.12991234343983       -2.07524821204860
C           -1.72766319077727        1.33730029059467       -2.09496240169087
O           -1.67205617075565        2.07183847164862       -3.09350437574944
H           -4.92232397414121        0.78944298321478       -2.19126981240311
H           -3.87429705997825        1.86031722183041       -3.14631400945176
H           -4.50663409798274        2.39659426025163       -1.57184546734898
H           -4.12673427023208       -2.21425497262343       -0.48855197656045
H           -5.12622996716754       -1.13793960603006       -1.47752130008011
H           -5.75354172861955       -1.76465256774886        0.05045039829074
H           -3.52590996254457        0.21157092310415        2.29247630616347
H           -3.31834911392392       -1.47257806449504        1.78246995065633
H           -4.92407003193834       -0.87614153755090        2.24736958058621
H           -6.15867712221908        0.52824977131647        0.52597172471117
H           -4.99926275719778        1.57734246887569        0.98284242786002
H            1.75874709043534       -0.32581268947484       -1.19566626652618
H            3.36368905382324       -1.93614812673983       -0.44206487546403
H            2.51070544953407       -2.01578174779993        1.11862277540386
H            2.25930827346449        1.21433622963466        1.29755963507925
H            2.51659089610078        0.05193081458013        2.61398430502998
H            3.68981716078221        1.35186667388991        2.32982045813752
H            4.59365496520903       -1.51659249430410        2.54105034967688
H            6.93359433539398       -1.61496811870846        1.77302950921706
H            6.06974601198957        1.04435156181440       -1.47361052524469
H            3.71069639743123        1.20325962948726       -0.78181485561185
H            0.40927414526316        1.71236248284226       -2.82684929937618
