42
 energy: -83.614656040619 gnorm: 0.000320327845 xtb: 6.5.1 (579679a)
C           -4.37958581754950        1.99125891520265        1.74716348391198
O           -3.61965813233204        1.77674558937313        0.56649526873794
C           -2.66633070028965        0.80747647709744        0.63628862413452
O           -2.47202245118851        0.18190210918533        1.66998221535797
C           -2.02315300306918        0.52819965204189       -0.70923348761463
C           -1.89643252847891        1.78757842874373       -1.56914768228683
N           -0.70747969300629       -0.06025900155953       -0.51738277181559
C           -0.65227044135304       -1.30974292396153       -0.23081296534128
C            0.69449667399767       -1.94368942161924        0.10480538832894
C            0.62165994398070       -2.57945843725336        1.50417793244041
C            1.04076750392268       -3.00340709110263       -0.95520141649662
N            1.68703476976204       -0.88047111187074        0.08456344051237
C            3.01414914622549       -1.05424521814628        0.39559818218940
O            3.52195048784757       -2.17531603069796        0.62692442569099
C            3.77931373864856        0.16217296292936        0.41442766671300
N            5.08151358194237        0.29772335646195        0.66993139666177
N            5.35446959195383        1.63527858538449        0.59635455322072
C            4.24946589686679        2.24300446448505        0.31047473752083
C            4.05465782058270        3.70339042053471        0.13300829639496
O            3.19971504294497        1.39535623918417        0.17539609163165
N           -1.74091378107119       -2.12273230660863       -0.20592971234542
C           -2.93839359637416       -1.80362805824187       -0.94353060564538
O           -3.67868290221587       -2.78711037864043       -1.24677700975668
C           -3.08751037048163       -0.44822114503737       -1.29326479782514
O           -4.03088735378005        0.04269804867079       -2.00763272714700
H           -3.73197662732553        2.31277347165686        2.56909705182722
H           -5.10293041532793        2.77453338899795        1.52487874903647
H           -4.90338162444645        1.07797871542779        2.04864317548005
H           -1.32329778495447        2.55184994821153       -1.04630398876754
H           -1.38459422248568        1.54009289906483       -2.49907646579639
H           -2.88386792601735        2.18213718780902       -1.80657399702359
H           -0.13394755691335       -3.36274084445758        1.52216033487644
H            1.58172052968733       -3.01967879472182        1.76868885832576
H            0.36096331321639       -1.82144502250212        2.24274515239190
H            1.11147257128739       -2.53613752264716       -1.93731079381797
H            0.26910849626769       -3.77100710775099       -0.98431879889958
H            1.99290884975753       -3.47574193308670       -0.71806956367317
H            1.32981966064718        0.05902490624091       -0.05123784912502
H            3.29256913547630        4.07233138071806        0.81990329931984
H            4.99255601512105        4.21775168095498        0.32853792299323
H            3.73021919091979        3.92594393232879       -0.88410440185765
H           -1.60321603238497       -3.11217241080263       -0.07707621245788
