      -----------------------------------------------------------      
     |                   =====================                   |     
     |                           x T B                           |     
     |                   =====================                   |     
     |                         S. Grimme                         |     
     |          Mulliken Center for Theoretical Chemistry        |     
     |                    University of Bonn                     |     
      -----------------------------------------------------------      

   * xtb version 6.5.1 (579679a) compiled by 'ehlert@majestix' on 2022-07-11

   xtb is free software: you can redistribute it and/or modify it under
   the terms of the GNU Lesser General Public License as published by
   the Free Software Foundation, either version 3 of the License, or
   (at your option) any later version.
   
   xtb is distributed in the hope that it will be useful,
   but WITHOUT ANY WARRANTY; without even the implied warranty of
   MERCHANTABILITY or FITNESS FOR A PARTICULAR PURPOSE.  See the
   GNU Lesser General Public License for more details.
   
   Cite this work as:
   * C. Bannwarth, E. Caldeweyher, S. Ehlert, A. Hansen, P. Pracht,
     J. Seibert, S. Spicher, S. Grimme, WIREs Comput. Mol. Sci., 2020, 11,
     e01493. DOI: 10.1002/wcms.1493
   
   for GFN2-xTB:
   * C. Bannwarth, S. Ehlert and S. Grimme., J. Chem. Theory Comput., 2019,
     15, 1652-1671. DOI: 10.1021/acs.jctc.8b01176
   for GFN1-xTB:
   * S. Grimme, C. Bannwarth, P. Shushkov, J. Chem. Theory Comput., 2017,
     13, 1989-2009. DOI: 10.1021/acs.jctc.7b00118
   for GFN0-xTB:
   * P. Pracht, E. Caldeweyher, S. Ehlert, S. Grimme, ChemRxiv, 2019, preprint.
     DOI: 10.26434/chemrxiv.8326202.v1
   for GFN-FF:
   * S. Spicher and S. Grimme, Angew. Chem. Int. Ed., 2020, 59, 15665-15673.
     DOI: 10.1002/anie.202004239
   
   for ALPB and GBSA implicit solvation:
   * S. Ehlert, M. Stahn, S. Spicher, S. Grimme, J. Chem. Theory Comput.,
     2021, 17, 4250-4261. DOI: 10.1021/acs.jctc.1c00471
   
   for DFT-D4:
   * E. Caldeweyher, C. Bannwarth and S. Grimme, J. Chem. Phys., 2017,
     147, 034112. DOI: 10.1063/1.4993215
   * E. Caldeweyher, S. Ehlert, A. Hansen, H. Neugebauer, S. Spicher,
     C. Bannwarth and S. Grimme, J. Chem. Phys., 2019, 150, 154122.
     DOI: 10.1063/1.5090222
   * E. Caldeweyher, J.-M. Mewes, S. Ehlert and S. Grimme, Phys. Chem. Chem. Phys.
     2020, 22, 8499-8512. DOI: 10.1039/D0CP00502A
   
   for sTDA-xTB:
   * S. Grimme and C. Bannwarth, J. Chem. Phys., 2016, 145, 054103.
     DOI: 10.1063/1.4959605
   
   in the mass-spec context:
   * V. Asgeirsson, C. Bauer and S. Grimme, Chem. Sci., 2017, 8, 4879.
     DOI: 10.1039/c7sc00601b
   * J. Koopman and S. Grimme, ACS Omega 2019, 4, 12, 15120-15133.
     DOI: 10.1021/acsomega.9b02011
   
   for metadynamics refer to:
   * S. Grimme, J. Chem. Theory Comput., 2019, 155, 2847-2862
     DOI: 10.1021/acs.jctc.9b00143
   
   for SPH calculations refer to:
   * S. Spicher and S. Grimme, J. Chem. Theory Comput., 2021, 17, 1701-1714
     DOI: 10.1021/acs.jctc.0c01306
   
   with help from (in alphabetical order)
   P. Atkinson, C. Bannwarth, F. Bohle, G. Brandenburg, E. Caldeweyher
   M. Checinski, S. Dohm, S. Ehlert, S. Ehrlich, I. Gerasimov, C. Hölzer
   A. Katbashev, J. Koopman, C. Lavigne, S. Lehtola, F. März, M. Müller,
   F. Musil, H. Neugebauer, J. Pisarek, C. Plett, P. Pracht, F. Pultar,
   J. Seibert, P. Shushkov, S. Spicher, M. Stahn, M. Steiner, T. Strunk,
   J. Stückrath, T. Rose, and J. Unsleber
   
 * started run on 2023/06/20 at 15:11:30.288     

           -------------------------------------------------
          |                Calculation Setup                |
           -------------------------------------------------

          program call               : /lustre/hpc/kemi/ree/PhD/git/ReactivityQM/dep/xtb-6.5.1/bin/xtb --gfn 1 /lustre/hpc/kemi/ree/PhD/git/ReactivityQM/calculations/R01/reac02prodN11/conf07/R01_reac02prodN11_conf07_gfn1.xyz --opt --vfukui --chrg 1 --uhf 0 --alpb DMSO
          hostname                   : node312
          coordinate file            : /lustre/hpc/kemi/ree/PhD/git/ReactivityQM/calculations/R01/reac02prodN11/conf07/R01_reac02prodN11_conf07_gfn1.xyz
          omp threads                :                     1

   ID    Z sym.   atoms
    1    6 C      1, 3, 5, 6, 8, 11-15
    2    8 O      2, 4, 7, 9
    3    7 N      10, 16, 17
    4    1 H      18-33

           -------------------------------------------------
          |                 G F N 1 - x T B                 |
           -------------------------------------------------

        Reference                      10.1021/acs.jctc.7b00118
      * Hamiltonian:
        H0-scaling (s, p, d)           1.850000    2.250000    2.000000
        zeta-weighting                 0.000000
      * Dispersion:
        s8                             2.400000
        a1                             0.630000
        a2                             5.000000
        s9                             0.000000
      * Repulsion:
        kExp                           1.500000
        rExp                           1.000000
      * Coulomb:
        alpha                          2.000000
        third order                    atomic
        anisotropic                    false
      * Halogen bond correction:
        rad-scale                      1.300000
        damping                        0.440000

      * Solvation model:               ALPB
        Solvent                        DMSO
        Parameter file                 internal GFN1-xTB/ALPB
        Dielectric constant                4.6680E+01
        Reference state                gsolv [1 M gas/solution]
        Free energy shift                  7.6243E-03 Eh       4.7843E+00 kcal/mol
        Temperature                        2.9815E+02 K
        Density                            1.1000E+00 kg/L
        Solvent mass                       7.8130E+01 g/mol
        Interaction kernel             P16
        Born radius scaling (c1)           1.7672E+00
        Born radii integrator          GBOBC
        Born offset                        0.0000E+00 a0       0.0000E+00 AA
        H-bond correction              true
        Ion screening                  false
        Surface tension                    1.0000E-05 Eh       1.5569E+01 dyn/cm
        Grid points                               230 per atom

          ...................................................
          :                      SETUP                      :
          :.................................................:
          :  # basis functions                 100          :
          :  # atomic orbitals                 100          :
          :  # shells                           66          :
          :  # electrons                        94          :
          :  # halogen bonds                     0          :
          :  max. iterations                   250          :
          :  Hamiltonian                  GFN1-xTB          :
          :  restarted?                      false          :
          :  GBSA solvation                   true          :
          :  PC potential                    false          :
          :  electronic temp.          300.0000000     K    :
          :  accuracy                    1.0000000          :
          :  -> integral cutoff          0.2500000E+02      :
          :  -> integral neglect         0.1000000E-07      :
          :  -> SCF convergence          0.1000000E-05 Eh   :
          :  -> wf. convergence          0.2000000E-04 e    :
          :  Broyden damping             0.4000000          :
          ...................................................

 iter      E             dE          RMSdq      gap      omega  full diag
   1    -58.0734213 -0.580734E+02  0.803E+00    1.79       0.0  T
   2    -58.3366569 -0.263236E+00  0.485E+00    0.95       1.0  T
   3    -58.3228212  0.138357E-01  0.185E+00    0.90       1.0  T
   4    -58.3558172 -0.329959E-01  0.215E-01    0.76       1.0  T
   5    -58.3569442 -0.112705E-02  0.902E-02    0.75       1.0  T
   6    -58.3571343 -0.190120E-03  0.237E-02    0.78       1.0  T
   7    -58.3571458 -0.114655E-04  0.740E-03    0.78       2.4  T
   8    -58.3571468 -0.103261E-05  0.248E-03    0.78       7.0  T
   9    -58.3571469 -0.102653E-06  0.658E-04    0.78      26.4  T
  10    -58.3571469 -0.375303E-08  0.156E-04    0.78     111.7  T
  11    -58.3571469 -0.304127E-09  0.558E-05    0.78     311.9  T

   *** convergence criteria satisfied after 11 iterations ***

         #    Occupation            Energy/Eh            Energy/eV
      -------------------------------------------------------------
         1        2.0000           -0.9190592             -25.0089
       ...           ...                  ...                  ...
        41        2.0000           -0.5227214             -14.2240
        42        2.0000           -0.5107177             -13.8973
        43        2.0000           -0.5095996             -13.8669
        44        2.0000           -0.5064647             -13.7816
        45        2.0000           -0.4967798             -13.5181
        46        2.0000           -0.4809592             -13.0876
        47        2.0000           -0.4365852             -11.8801 (HOMO)
        48        0.0000           -0.4078561             -11.0983 (LUMO)
        49                         -0.3391585              -9.2290
        50                         -0.3097561              -8.4289
        51                         -0.2229294              -6.0662
        52                         -0.1803933              -4.9088
       ...                                ...                  ...
       100                          0.6757231              18.3874
      -------------------------------------------------------------
                  HL-Gap            0.0287291 Eh            0.7818 eV
             Fermi-level           -0.4222207 Eh          -11.4892 eV

 SCC (total)                   0 d,  0 h,  0 min,  0.108 sec
 SCC setup                      ...        0 min,  0.002 sec (  1.452%)
 Dispersion                     ...        0 min,  0.000 sec (  0.261%)
 classical contributions        ...        0 min,  0.000 sec (  0.083%)
 integral evaluation            ...        0 min,  0.030 sec ( 27.618%)
 iterations                     ...        0 min,  0.022 sec ( 20.830%)
 molecular gradient             ...        0 min,  0.053 sec ( 49.112%)
 printout                       ...        0 min,  0.001 sec (  0.596%)

         :::::::::::::::::::::::::::::::::::::::::::::::::::::
         ::                     SUMMARY                     ::
         :::::::::::::::::::::::::::::::::::::::::::::::::::::
         :: total energy             -57.792561801623 Eh    ::
         :: total w/o Gsasa/hb       -57.772509515519 Eh    ::
         :: gradient norm              0.118286797931 Eh/a0 ::
         :: HOMO-LUMO gap              0.781758475752 eV    ::
         ::.................................................::
         :: SCC energy               -58.357146948630 Eh    ::
         :: -> electrostatic           0.309751994161 Eh    ::
         :: -> Gsolv                  -0.101238521468 Eh    ::
         ::    -> Gelec               -0.081186235364 Eh    ::
         ::    -> Gsasa               -0.017899774502 Eh    ::
         ::    -> Ghb                 -0.009776790607 Eh    ::
         ::    -> Gshift               0.007624279005 Eh    ::
         :: repulsion energy           0.584229940492 Eh    ::
         :: dispersion energy         -0.019644793485 Eh    ::
         :: halogen bond corr.         0.000000000000 Eh    ::
         :: add. restraining           0.000000000000 Eh    ::
         :: total charge               1.000000000000 e     ::
         :::::::::::::::::::::::::::::::::::::::::::::::::::::

      ----------------------------------------------------------- 
     |                   =====================                   |
     |                        A N C O P T                        |
     |                   =====================                   |
     |               Approximate Normal Coordinate               |
     |                Rational Function Optimizer                |
      ----------------------------------------------------------- 

          ...................................................
          :                      SETUP                      :
          :.................................................:
          :   optimization level            normal          :
          :   max. optcycles                   200          :
          :   ANC micro-cycles                  20          :
          :   degrees of freedom                93          :
          :.................................................:
          :   RF solver                   davidson          :
          :   write xtbopt.log                true          :
          :   linear?                        false          :
          :   energy convergence         0.5000000E-05 Eh   :
          :   grad. convergence          0.1000000E-02 Eh/α :
          :   maximium RF displ.         1.0000000          :
          :   Hlow (freq-cutoff)         0.1000000E-01      :
          :   Hmax (freq-cutoff)         5.0000000          :
          :   S6 in model hess.         20.0000000          :
          ...................................................

generating ANC from model Hessian ...
Using Lindh-Hessian (1995)
 Shifting diagonal of input Hessian by   9.393668809114733E-003
 Lowest  eigenvalues of input Hessian
    0.000000    0.000000    0.000000    0.000000    0.000000    0.000000
    0.010000    0.010626    0.011215    0.011674    0.013294    0.014427
    0.015776    0.016829    0.018069    0.019078    0.019350    0.020145
 Highest eigenvalues
    1.722102    1.873421    2.014703    2.119112    2.327997    2.350078
 

........................................................................
.............................. CYCLE    1 ..............................
........................................................................
   1    -58.3571469 -0.583571E+02  0.186E-05    0.78       0.0  T
   2    -58.3571469 -0.236611E-11  0.873E-06    0.78    1994.5  T
   3    -58.3571469 -0.426326E-12  0.540E-06    0.78    3221.8  T
     SCC iter.                  ...        0 min,  0.007 sec
     gradient                   ...        0 min,  0.052 sec
 * total energy  :   -57.7925618 Eh     change       -0.4772716E-10 Eh
   gradient norm :     0.1182870 Eh/α   predicted     0.0000000E+00 (-100.00%)
   displ. norm   :     0.3099497 α      lambda       -0.1761994E-01
   maximum displ.:     0.1309991 α      in ANC's #19, #27, #13, ...

........................................................................
.............................. CYCLE    2 ..............................
........................................................................
   1    -58.3733670 -0.583734E+02  0.938E-02    0.97       0.0  T
   2    -58.3735837 -0.216724E-03  0.463E-02    0.98       1.0  T
   3    -58.3736234 -0.397263E-04  0.204E-02    0.99       1.0  T
   4    -58.3736253 -0.182974E-05  0.948E-03    0.99       1.8  T
   5    -58.3736257 -0.418786E-06  0.228E-03    0.99       7.6  T
   6    -58.3736258 -0.135757E-06  0.370E-04    0.99      47.0  T
   7    -58.3736258 -0.118496E-08  0.162E-04    0.99     107.2  T
   8    -58.3736258 -0.161720E-09  0.603E-05    0.99     288.8  T
     SCC iter.                  ...        0 min,  0.016 sec
     gradient                   ...        0 min,  0.054 sec
 * total energy  :   -57.8051469 Eh     change       -0.1258509E-01 Eh
   gradient norm :     0.0582886 Eh/α   predicted    -0.9663866E-02 ( -23.21%)
   displ. norm   :     0.3330355 α      lambda       -0.7295736E-02
   maximum displ.:     0.1604477 α      in ANC's #19, #13, #7, ...

........................................................................
.............................. CYCLE    3 ..............................
........................................................................
   1    -58.3831230 -0.583831E+02  0.833E-02    1.12       0.0  T
   2    -58.3833131 -0.190073E-03  0.394E-02    1.12       1.0  T
   3    -58.3833332 -0.200754E-04  0.185E-02    1.12       1.0  T
   4    -58.3833342 -0.100380E-05  0.926E-03    1.12       1.9  T
   5    -58.3833346 -0.473494E-06  0.200E-03    1.12       8.7  T
   6    -58.3833348 -0.114210E-06  0.328E-04    1.12      53.0  T
   7    -58.3833348 -0.100360E-08  0.168E-04    1.12     103.3  T
   8    -58.3833348 -0.122746E-09  0.569E-05    1.12     306.0  T
     SCC iter.                  ...        0 min,  0.016 sec
     gradient                   ...        0 min,  0.043 sec
 * total energy  :   -57.8095179 Eh     change       -0.4371054E-02 Eh
   gradient norm :     0.0170579 Eh/α   predicted    -0.4054552E-02 (  -7.24%)
   displ. norm   :     0.2127167 α      lambda       -0.1184552E-02
   maximum displ.:     0.1159705 α      in ANC's #13, #19, #7, ...

........................................................................
.............................. CYCLE    4 ..............................
........................................................................
   1    -58.3840006 -0.583840E+02  0.223E-02    1.13       0.0  T
   2    -58.3840157 -0.150276E-04  0.115E-02    1.14       1.5  T
   3    -58.3840171 -0.147106E-05  0.586E-03    1.13       3.0  T
   4    -58.3840172 -0.748168E-07  0.310E-03    1.14       5.6  T
   5    -58.3840173 -0.100280E-06  0.631E-04    1.14      27.6  T
   6    -58.3840173 -0.593574E-08  0.132E-04    1.14     132.0  T
   7    -58.3840173 -0.205496E-09  0.685E-05    1.14     254.2  T
     SCC iter.                  ...        0 min,  0.010 sec
     gradient                   ...        0 min,  0.030 sec
 * total energy  :   -57.8103521 Eh     change       -0.8341819E-03 Eh
   gradient norm :     0.0109254 Eh/α   predicted    -0.6191078E-03 ( -25.78%)
   displ. norm   :     0.2134725 α      lambda       -0.6565669E-03
   maximum displ.:     0.1218799 α      in ANC's #13, #7, #19, ...

........................................................................
.............................. CYCLE    5 ..............................
........................................................................
   1    -58.3838866 -0.583839E+02  0.207E-02    1.13       0.0  T
   2    -58.3838991 -0.125037E-04  0.120E-02    1.13       1.5  T
   3    -58.3839039 -0.477417E-05  0.436E-03    1.13       4.0  T
   4    -58.3839039 -0.567092E-07  0.189E-03    1.13       9.2  T
   5    -58.3839039 -0.217435E-08  0.441E-04    1.13      39.5  T
   6    -58.3839040 -0.340133E-08  0.955E-05    1.13     182.3  T
   7    -58.3839040 -0.116437E-09  0.443E-05    1.13     393.0  T
     SCC iter.                  ...        0 min,  0.010 sec
     gradient                   ...        0 min,  0.030 sec
 * total energy  :   -57.8107707 Eh     change       -0.4185324E-03 Eh
   gradient norm :     0.0075781 Eh/α   predicted    -0.3432451E-03 ( -17.99%)
   displ. norm   :     0.1312950 α      lambda       -0.2048019E-03
   maximum displ.:     0.0738446 α      in ANC's #13, #7, #1, ...

........................................................................
.............................. CYCLE    6 ..............................
........................................................................
   1    -58.3843026 -0.583843E+02  0.118E-02    1.12       0.0  T
   2    -58.3843060 -0.343817E-05  0.653E-03    1.13       2.7  T
   3    -58.3843076 -0.156020E-05  0.231E-03    1.13       7.5  T
   4    -58.3843076 -0.223085E-07  0.933E-04    1.13      18.7  T
   5    -58.3843076 -0.190379E-08  0.191E-04    1.13      91.1  T
   6    -58.3843076 -0.920430E-09  0.529E-05    1.13     329.2  T
     SCC iter.                  ...        0 min,  0.009 sec
     gradient                   ...        0 min,  0.030 sec
 * total energy  :   -57.8109131 Eh     change       -0.1424125E-03 Eh
   gradient norm :     0.0054146 Eh/α   predicted    -0.1041667E-03 ( -26.86%)
   displ. norm   :     0.1395647 α      lambda       -0.1480467E-03
   maximum displ.:     0.0723142 α      in ANC's #13, #1, #16, ...

........................................................................
.............................. CYCLE    7 ..............................
........................................................................
   1    -58.3849920 -0.583850E+02  0.956E-03    1.12       0.0  T
   2    -58.3849939 -0.192957E-05  0.514E-03    1.13       3.4  T
   3    -58.3849947 -0.721055E-06  0.241E-03    1.13       7.2  T
   4    -58.3849947 -0.328870E-07  0.845E-04    1.13      20.6  T
   5    -58.3849947 -0.136075E-08  0.173E-04    1.13     100.8  T
   6    -58.3849947 -0.703444E-09  0.471E-05    1.13     369.8  T
     SCC iter.                  ...        0 min,  0.009 sec
     gradient                   ...        0 min,  0.048 sec
 * total energy  :   -57.8110195 Eh     change       -0.1063828E-03 Eh
   gradient norm :     0.0041738 Eh/α   predicted    -0.7546588E-04 ( -29.06%)
   displ. norm   :     0.1527594 α      lambda       -0.1185398E-03
   maximum displ.:     0.0797284 α      in ANC's #1, #13, #4, ...

........................................................................
.............................. CYCLE    8 ..............................
........................................................................
   1    -58.3856496 -0.583856E+02  0.725E-03    1.12       0.0  T
   2    -58.3856506 -0.104270E-05  0.373E-03    1.13       4.7  T
   3    -58.3856508 -0.141156E-06  0.212E-03    1.13       8.2  T
   4    -58.3856508 -0.361400E-07  0.765E-04    1.13      22.8  T
   5    -58.3856508 -0.172245E-08  0.144E-04    1.13     121.1  T
   6    -58.3856508 -0.379778E-09  0.444E-05    1.13     392.1  T
     SCC iter.                  ...        0 min,  0.013 sec
     gradient                   ...        0 min,  0.056 sec
 * total energy  :   -57.8111048 Eh     change       -0.8536632E-04 Eh
   gradient norm :     0.0037630 Eh/α   predicted    -0.6065533E-04 ( -28.95%)
   displ. norm   :     0.1566969 α      lambda       -0.8939610E-04
   maximum displ.:     0.0905419 α      in ANC's #1, #4, #13, ...

........................................................................
.............................. CYCLE    9 ..............................
........................................................................
   1    -58.3861776 -0.583862E+02  0.519E-03    1.13       0.0  T
   2    -58.3861782 -0.535472E-06  0.242E-03    1.13       7.2  T
   3    -58.3861782 -0.121926E-07  0.121E-03    1.13      14.4  T
   4    -58.3861782 -0.144409E-08  0.371E-04    1.13      47.0  T
   5    -58.3861782 -0.147016E-08  0.670E-05    1.13     259.7  T
   6    -58.3861782 -0.575398E-10  0.324E-05    1.13     536.5  T
     SCC iter.                  ...        0 min,  0.013 sec
     gradient                   ...        0 min,  0.056 sec
 * total energy  :   -57.8111702 Eh     change       -0.6533996E-04 Eh
   gradient norm :     0.0033635 Eh/α   predicted    -0.4579774E-04 ( -29.91%)
   displ. norm   :     0.1516531 α      lambda       -0.6640412E-04
   maximum displ.:     0.0936802 α      in ANC's #1, #4, #5, ...

........................................................................
.............................. CYCLE   10 ..............................
........................................................................
   1    -58.3864172 -0.583864E+02  0.468E-03    1.13       0.0  T
   2    -58.3864177 -0.440452E-06  0.200E-03    1.13       8.7  T
   3    -58.3864177 -0.127187E-07  0.117E-03    1.13      14.9  T
   4    -58.3864177 -0.696466E-08  0.448E-04    1.13      38.8  T
   5    -58.3864177 -0.210699E-08  0.990E-05    1.13     175.9  T
   6    -58.3864177 -0.206093E-09  0.275E-05    1.13     633.2  T
     SCC iter.                  ...        0 min,  0.013 sec
     gradient                   ...        0 min,  0.056 sec
 * total energy  :   -57.8112184 Eh     change       -0.4823258E-04 Eh
   gradient norm :     0.0027768 Eh/α   predicted    -0.3396641E-04 ( -29.58%)
   displ. norm   :     0.1175947 α      lambda       -0.4147811E-04
   maximum displ.:     0.0802906 α      in ANC's #1, #5, #3, ...

........................................................................
.............................. CYCLE   11 ..............................
........................................................................
   1    -58.3865407 -0.583865E+02  0.390E-03    1.13       0.0  T
   2    -58.3865410 -0.243857E-06  0.187E-03    1.13       9.3  T
   3    -58.3865410 -0.612773E-08  0.957E-04    1.13      18.2  T
   4    -58.3865410 -0.723393E-08  0.387E-04    1.12      45.0  T
   5    -58.3865410 -0.809344E-09  0.750E-05    1.13     232.0  T
   6    -58.3865410 -0.141370E-09  0.230E-05    1.13     756.0  T
     SCC iter.                  ...        0 min,  0.013 sec
     gradient                   ...        0 min,  0.056 sec
 * total energy  :   -57.8112491 Eh     change       -0.3073115E-04 Eh
   gradient norm :     0.0020635 Eh/α   predicted    -0.2102624E-04 ( -31.58%)
   displ. norm   :     0.0846706 α      lambda       -0.2644031E-04
   maximum displ.:     0.0636185 α      in ANC's #1, #5, #3, ...

........................................................................
.............................. CYCLE   12 ..............................
........................................................................
   1    -58.3865319 -0.583865E+02  0.299E-03    1.12       0.0  T
   2    -58.3865320 -0.153601E-06  0.157E-03    1.12      11.1  T
   3    -58.3865320 -0.876422E-08  0.767E-04    1.12      22.7  T
   4    -58.3865320 -0.329070E-08  0.301E-04    1.12      57.8  T
   5    -58.3865320 -0.107396E-08  0.595E-05    1.12     292.8  T
   6    -58.3865320 -0.661728E-10  0.176E-05    1.12     986.3  T
     SCC iter.                  ...        0 min,  0.013 sec
     gradient                   ...        0 min,  0.056 sec
 * total energy  :   -57.8112697 Eh     change       -0.2052687E-04 Eh
   gradient norm :     0.0014440 Eh/α   predicted    -0.1331786E-04 ( -35.12%)
   displ. norm   :     0.1079464 α      lambda       -0.2140528E-04
   maximum displ.:     0.0817809 α      in ANC's #1, #5, #4, ...

........................................................................
.............................. CYCLE   13 ..............................
........................................................................
   1    -58.3865959 -0.583866E+02  0.334E-03    1.12       0.0  T
   2    -58.3865961 -0.211119E-06  0.192E-03    1.12       9.1  T
   3    -58.3865961 -0.237461E-07  0.998E-04    1.12      17.4  T
   4    -58.3865961 -0.435124E-08  0.326E-04    1.12      53.4  T
   5    -58.3865961 -0.129153E-08  0.947E-05    1.12     183.9  T
   6    -58.3865961 -0.158657E-09  0.190E-05    1.12     918.5  T
     SCC iter.                  ...        0 min,  0.013 sec
     gradient                   ...        0 min,  0.056 sec
 * total energy  :   -57.8112918 Eh     change       -0.2212732E-04 Eh
   gradient norm :     0.0017752 Eh/α   predicted    -0.1076239E-04 ( -51.36%)
   displ. norm   :     0.0754673 α      lambda       -0.1397006E-04
   maximum displ.:     0.0554621 α      in ANC's #1, #4, #2, ...

........................................................................
.............................. CYCLE   14 ..............................
........................................................................
   1    -58.3862631 -0.583863E+02  0.234E-03    1.12       0.0  T
   2    -58.3862632 -0.119776E-06  0.129E-03    1.12      13.5  T
   3    -58.3862632 -0.320751E-07  0.687E-04    1.12      25.3  T
   4    -58.3862632 -0.366268E-08  0.218E-04    1.12      79.9  T
   5    -58.3862632 -0.108521E-09  0.581E-05    1.12     299.8  T
   6    -58.3862632 -0.594227E-10  0.151E-05    1.12    1149.6  T
     SCC iter.                  ...        0 min,  0.013 sec
     gradient                   ...        0 min,  0.056 sec
 * total energy  :   -57.8113087 Eh     change       -0.1694191E-04 Eh
   gradient norm :     0.0017413 Eh/α   predicted    -0.7003124E-05 ( -58.66%)
   displ. norm   :     0.1167293 α      lambda       -0.2088425E-04
   maximum displ.:     0.0776004 α      in ANC's #1, #4, #2, ...

........................................................................
.............................. CYCLE   15 ..............................
........................................................................
   1    -58.3868320 -0.583868E+02  0.377E-03    1.12       0.0  T
   2    -58.3868322 -0.141759E-06  0.166E-03    1.12      10.5  T
   3    -58.3868322 -0.206880E-07  0.101E-03    1.12      17.2  T
   4    -58.3868322 -0.101973E-07  0.295E-04    1.12      59.0  T
   5    -58.3868322 -0.855749E-09  0.661E-05    1.12     263.4  T
   6    -58.3868322 -0.718359E-10  0.174E-05    1.12     998.7  T
     SCC iter.                  ...        0 min,  0.013 sec
     gradient                   ...        0 min,  0.055 sec
 * total energy  :   -57.8113256 Eh     change       -0.1684551E-04 Eh
   gradient norm :     0.0023795 Eh/α   predicted    -0.1050625E-04 ( -37.63%)
   displ. norm   :     0.0500064 α      lambda       -0.1300919E-04
   maximum displ.:     0.0401490 α      in ANC's #1, #2, #5, ...

........................................................................
.............................. CYCLE   16 ..............................
........................................................................
   1    -58.3864024 -0.583864E+02  0.200E-03    1.12       0.0  T
   2    -58.3864025 -0.531933E-07  0.107E-03    1.12      16.3  T
   3    -58.3864025  0.722267E-10  0.485E-04    1.12      35.9  T
   4    -58.3864025 -0.386289E-08  0.210E-04    1.12      83.0  T
   5    -58.3864025 -0.419789E-09  0.338E-05    1.12     515.4  T
   6    -58.3864025 -0.113971E-10  0.855E-06    1.12    2036.2  T
     SCC iter.                  ...        0 min,  0.013 sec
     gradient                   ...        0 min,  0.055 sec
 * total energy  :   -57.8113354 Eh     change       -0.9856078E-05 Eh
   gradient norm :     0.0011427 Eh/α   predicted    -0.6528375E-05 ( -33.76%)
   displ. norm   :     0.0649715 α      lambda       -0.8171338E-05
   maximum displ.:     0.0558829 α      in ANC's #1, #2, #5, ...

........................................................................
.............................. CYCLE   17 ..............................
........................................................................
   1    -58.3860177 -0.583860E+02  0.193E-03    1.12       0.0  T
   2    -58.3860178 -0.905464E-07  0.100E-03    1.12      17.4  T
   3    -58.3860178 -0.301896E-08  0.465E-04    1.12      37.4  T
   4    -58.3860178 -0.613468E-09  0.253E-04    1.12      68.7  T
   5    -58.3860178 -0.742510E-09  0.346E-05    1.12     503.1  T
   6    -58.3860178 -0.275264E-10  0.114E-05    1.12    1532.6  T
     SCC iter.                  ...        0 min,  0.013 sec
     gradient                   ...        0 min,  0.055 sec
 * total energy  :   -57.8113445 Eh     change       -0.9029872E-05 Eh
   gradient norm :     0.0013581 Eh/α   predicted    -0.4094474E-05 ( -54.66%)
   displ. norm   :     0.0452076 α      lambda       -0.5774459E-05
   maximum displ.:     0.0390510 α      in ANC's #1, #2, #4, ...

........................................................................
.............................. CYCLE   18 ..............................
........................................................................
   1    -58.3861390 -0.583861E+02  0.130E-03    1.12       0.0  T
   2    -58.3861390 -0.275140E-07  0.676E-04    1.12      25.8  T
   3    -58.3861390 -0.744686E-08  0.424E-04    1.12      41.0  T
   4    -58.3861390 -0.170179E-08  0.112E-04    1.12     155.0  T
   5    -58.3861390 -0.628120E-10  0.275E-05    1.12     632.2  T
     SCC iter.                  ...        0 min,  0.011 sec
     gradient                   ...        0 min,  0.055 sec
 * total energy  :   -57.8113521 Eh     change       -0.7603292E-05 Eh
   gradient norm :     0.0010208 Eh/α   predicted    -0.2891569E-05 ( -61.97%)
   displ. norm   :     0.0597196 α      lambda       -0.7531609E-05
   maximum displ.:     0.0476927 α      in ANC's #1, #2, #4, ...

........................................................................
.............................. CYCLE   19 ..............................
........................................................................
   1    -58.3862311 -0.583862E+02  0.178E-03    1.12       0.0  T
   2    -58.3862312 -0.401358E-07  0.833E-04    1.12      20.9  T
   3    -58.3862312 -0.177166E-08  0.409E-04    1.12      42.6  T
   4    -58.3862312 -0.194234E-08  0.172E-04    1.12     100.9  T
   5    -58.3862312 -0.405926E-09  0.357E-05    1.12     488.1  T
     SCC iter.                  ...        0 min,  0.010 sec
     gradient                   ...        0 min,  0.055 sec
 * total energy  :   -57.8113612 Eh     change       -0.9134158E-05 Eh
   gradient norm :     0.0009504 Eh/α   predicted    -0.3773718E-05 ( -58.69%)
   displ. norm   :     0.0771542 α      lambda       -0.7902896E-05
   maximum displ.:     0.0590086 α      in ANC's #1, #2, #12, ...

........................................................................
.............................. CYCLE   20 ..............................
........................................................................
   1    -58.3864836 -0.583865E+02  0.180E-03    1.13       0.0  T
   2    -58.3864837 -0.160569E-06  0.946E-04    1.12      18.4  T
   3    -58.3864837 -0.176005E-07  0.464E-04    1.12      37.5  T
   4    -58.3864837 -0.119974E-08  0.263E-04    1.12      66.1  T
   5    -58.3864837 -0.218222E-09  0.509E-05    1.12     341.8  T
   6    -58.3864837 -0.512159E-10  0.141E-05    1.12    1237.5  T
     SCC iter.                  ...        0 min,  0.013 sec
     gradient                   ...        0 min,  0.055 sec
 * total energy  :   -57.8113702 Eh     change       -0.9005208E-05 Eh
   gradient norm :     0.0015378 Eh/α   predicted    -0.3964975E-05 ( -55.97%)
   displ. norm   :     0.0772002 α      lambda       -0.6238968E-05
   maximum displ.:     0.0577929 α      in ANC's #1, #2, #12, ...
 * RMSD in coord.:     0.3053080 α      energy gain  -0.1880839E-01 Eh

generating ANC from model Hessian ...
Using Lindh-Hessian (1995)
 Shifting diagonal of input Hessian by   9.408763350315784E-003
 Lowest  eigenvalues of input Hessian
    0.000000    0.000000    0.000000    0.000000    0.000000    0.000000
    0.010000    0.010767    0.011468    0.011561    0.013421    0.014132
    0.015228    0.016907    0.018265    0.019467    0.019757    0.020093
 Highest eigenvalues
    1.695848    1.902741    2.057426    2.194498    2.362670    2.414304
 

........................................................................
.............................. CYCLE   21 ..............................
........................................................................
   1    -58.3863790 -0.583864E+02  0.144E-03    1.12       0.0  T
   2    -58.3863791 -0.536375E-07  0.722E-04    1.12      24.1  T
   3    -58.3863791 -0.158043E-07  0.279E-04    1.12      62.4  T
   4    -58.3863791 -0.829722E-09  0.118E-04    1.12     148.0  T
   5    -58.3863791 -0.236611E-10  0.310E-05    1.12     562.0  T
     SCC iter.                  ...        0 min,  0.011 sec
     gradient                   ...        0 min,  0.055 sec
 * total energy  :   -57.8113783 Eh     change       -0.8148596E-05 Eh
   gradient norm :     0.0010423 Eh/α   predicted     0.0000000E+00 (-100.00%)
   displ. norm   :     0.0193592 α      lambda       -0.2470869E-05
   maximum displ.:     0.0161834 α      in ANC's #1, #2, #23, ...

........................................................................
.............................. CYCLE   22 ..............................
........................................................................
   1    -58.3862860 -0.583863E+02  0.112E-03    1.12       0.0  T
   2    -58.3862860 -0.368703E-07  0.690E-04    1.12      25.2  T
   3    -58.3862860 -0.935523E-08  0.366E-04    1.12      47.6  T
   4    -58.3862860 -0.372438E-09  0.125E-04    1.12     138.8  T
   5    -58.3862860 -0.486864E-10  0.254E-05    1.12     686.5  T
     SCC iter.                  ...        0 min,  0.011 sec
     gradient                   ...        0 min,  0.056 sec
 * total energy  :   -57.8113823 Eh     change       -0.3964522E-05 Eh
   gradient norm :     0.0004978 Eh/α   predicted    -0.1666801E-05 ( -57.96%)
   displ. norm   :     0.0400877 α      lambda       -0.4593770E-05
   maximum displ.:     0.0309102 α      in ANC's #1, #2, #23, ...

   *** GEOMETRY OPTIMIZATION CONVERGED AFTER 22 ITERATIONS ***

------------------------------------------------------------------------
 total energy gain   :        -0.0188205 Eh      -11.8100 kcal/mol
 total RMSD          :         0.3072810 a0        0.1626 Å
 total power (kW/mol):        -2.2460562 (step)  -24.7141 (real)
------------------------------------------------------------------------

 ANCopt (total)                0 d,  0 h,  0 min,  1.999 sec
 optimizer setup                ...        0 min,  0.001 sec (  0.042%)
 model hessian                  ...        0 min,  0.057 sec (  2.873%)
 ANC generation                 ...        0 min,  0.003 sec (  0.162%)
 coordinate transformation      ...        0 min,  0.001 sec (  0.032%)
 single point calculation       ...        0 min,  1.926 sec ( 96.316%)
 optimization log               ...        0 min,  0.006 sec (  0.275%)
 hessian update                 ...        0 min,  0.001 sec (  0.027%)
 rational function              ...        0 min,  0.003 sec (  0.153%)

================
 final structure:
================
33
 xtb: 6.5.1 (579679a)
C            3.94131274028072        1.13832643695561        2.20158969068970
O            2.75625848995702        0.75592487782281        1.48334271554633
C            2.65455322331931       -0.50439601918099        1.13037394498700
O            3.48903785873992       -1.35685794891251        1.36544828432678
C            1.39478242544304       -0.82860630077972        0.40207658583531
C            1.15517398702158       -2.10781465688402       -0.01975089354395
O            1.98179810059662       -3.12498970661129        0.14101789391471
C           -0.07532132044723       -2.42337573895458       -0.75256439268865
O           -0.37745187465768       -3.41977797617237       -1.32501036152037
N           -1.10733953170869       -1.32964034692355       -0.67735357828323
C           -2.06623323789504       -1.76085593356655        0.39482020687688
C           -0.60001403461104        0.04496869399389       -0.41027960657744
C           -1.50715883742619        1.19592374768347       -0.78146025870639
C           -1.89526836537984        1.09730043083693       -2.26248472081660
C           -0.77578972101850        2.51530469452834       -0.50304459641555
N           -2.72170005651374        1.08730909611192        0.02252068652086
N            0.53705081894035        0.21355631255377        0.10710425185923
H            3.82453205512352        2.19207877265702        2.44419716635089
H            4.81915143694795        0.98137545530762        1.57193322197703
H            4.02955927363706        0.53928394167626        3.10985555528815
H            2.79268416914389       -2.83299288711832        0.63442646718987
H           -1.62332549594175       -1.34859592161129       -1.56004299143319
H           -2.41621667802538       -2.75844202743912        0.13992856604632
H           -2.88199975495486       -1.04014484825359        0.39208598006732
H           -1.54706782026836       -1.75618392242694        1.34865843527561
H           -1.00706676934977        1.01074387862706       -2.88628988642864
H           -2.44085973515958        1.99529813325387       -2.54824469767865
H           -2.54182267091759        0.23695447176577       -2.42964431798982
H           -1.44509228830079        3.34702324869998       -0.71397568963730
H            0.10809322174553        2.59520271682042       -1.13475200689751
H           -0.46928841213063        2.56066133386258        0.54058371924077
H           -2.54040639761366        1.42123361271183        0.96014229871725
H           -3.44456479857709        1.66420537896518       -0.38520667209360
 
 Bond Distances (Angstroems)
 ---------------------------
C1-O2=1.4375         C1-H18=1.0876        C1-H19=1.0917        C1-H20=1.0916        O2-C1=1.4375         O2-C3=1.3128         
C3-O2=1.3128         C3-O4=1.2159         C3-C5=1.4908         O4-C3=1.2159         C5-C3=1.4908         C5-C6=1.3681         
C5-N17=1.3816        C6-C5=1.3681         C6-O7=1.3205         C6-C8=1.4665         O7-C6=1.3205         O7-H21=0.9931        
C8-C6=1.4665         C8-O9=1.1882         C8-N10=1.5056        O9-C8=1.1882         N10-C8=1.5056        N10-C11=1.5017       
N10-C12=1.4894       N10-H22=1.0226       C11-N10=1.5017       C11-H23=1.0875       C11-H24=1.0885       C11-H25=1.0860       
C12-N10=1.4894       C12-C13=1.5117       C12-N17=1.2606       C13-C12=1.5117       C13-C14=1.5342       C13-C15=1.5340       
C13-N16=1.4606       C14-C13=1.5342       C14-H26=1.0888       C14-H27=1.0889       C14-H28=1.0891       C15-C13=1.5340       
C15-H29=1.0882       C15-H30=1.0894       C15-H31=1.0887       N16-C13=1.4606       N16-H32=1.0117       N16-H33=1.0107       
N17-C5=1.3816        N17-C12=1.2606       H18-C1=1.0876        H19-C1=1.0917        H20-C1=1.0916        H21-O7=0.9931        
H22-N10=1.0226       H23-C11=1.0875       H24-C11=1.0885       H25-C11=1.0860       H26-C14=1.0888       H27-C14=1.0889       
H28-C14=1.0891       H29-C15=1.0882       H30-C15=1.0894       H31-C15=1.0887       H32-N16=1.0117       H33-N16=1.0107       
 C  H  Rav=1.0888 sigma=0.0015  Rmin=1.0860  Rmax=1.0917    12
 C  C  Rav=1.4842 sigma=0.0571  Rmin=1.3681  Rmax=1.5342     6
 N  H  Rav=1.0150 sigma=0.0054  Rmin=1.0107  Rmax=1.0226     3
 N  C  Rav=1.4332 sigma=0.0879  Rmin=1.2606  Rmax=1.5056     6
 O  H  Rav=0.9931 sigma=0.0000  Rmin=0.9931  Rmax=0.9931     1
 O  C  Rav=1.2950 sigma=0.0883  Rmin=1.1882  Rmax=1.4375     5
 
 selected bond angles (degree)
 --------------------
H18-C1-O2=106.30               H19-C1-O2=109.66               H19-C1-H18=110.75              H20-C1-O2=109.66               
H20-C1-H18=110.78              H20-C1-H19=109.63              C3-O2-C1=116.97                O4-C3-O2=124.61                
C5-C3-O2=113.93                C5-C3-O4=121.46                C6-C5-C3=120.13                N17-C5-C3=117.70               
N17-C5-C6=122.06               O7-C6-C5=124.96                C8-C6-C5=120.15                C8-C6-O7=114.85                
H21-O7-C6=110.19               O9-C8-C6=129.39                N10-C8-C6=113.19               N10-C8-O9=117.32               
C11-N10-C8=105.35              C12-N10-C8=116.48              C12-N10-C11=110.76             H22-N10-C8=106.81              
H22-N10-C11=106.78             H22-N10-C12=110.11             
 
 selected dihedral angles (degree)
 ---------------------------------
C3-O2-C1-H18=182.58           C3-O2-C1-H19= 62.81           C3-O2-C1-H20=302.38           O4-C3-O2-C1=359.78            
C5-C3-O2-C1=179.43            C6-C5-C3-O2=180.29            C6-C5-C3-O4=359.95            N17-C5-C3-O2=  4.08           
N17-C5-C3-O4=183.74           O7-C6-C5-C3=358.58            O7-C6-C5-N17=174.62           C8-C6-C5-C3=180.85            
C8-C6-C5-N17=356.89           H21-O7-C6-C5=  1.53           H21-O7-C6-C8=179.36           O9-C8-C6-C5=170.15            
O9-C8-C6-O7=352.21            N10-C8-C6-C5=346.34           N10-C8-C6-O7=168.40           C11-N10-C8-C6=261.14          
C11-N10-C8-O9= 77.82          C12-N10-C8-C6= 24.34          C12-N10-C8-O9=201.02          H22-N10-C8-C6=147.82          
H22-N10-C8-O9=324.51          
           -------------------------------------------------
          |                Final Singlepoint                |
           -------------------------------------------------

          ...................................................
          :                      SETUP                      :
          :.................................................:
          :  # basis functions                 100          :
          :  # atomic orbitals                 100          :
          :  # shells                           66          :
          :  # electrons                        94          :
          :  # halogen bonds                     0          :
          :  max. iterations                   250          :
          :  Hamiltonian                  GFN1-xTB          :
          :  restarted?                      false          :
          :  GBSA solvation                   true          :
          :  PC potential                    false          :
          :  electronic temp.          300.0000000     K    :
          :  accuracy                    1.0000000          :
          :  -> integral cutoff          0.2500000E+02      :
          :  -> integral neglect         0.1000000E-07      :
          :  -> SCF convergence          0.1000000E-05 Eh   :
          :  -> wf. convergence          0.2000000E-04 e    :
          :  Broyden damping             0.4000000          :
          ...................................................

 iter      E             dE          RMSdq      gap      omega  full diag
   1    -58.3862860 -0.583863E+02  0.608E-06    1.12       0.0  T
   2    -58.3862860 -0.611067E-12  0.284E-06    1.12    6122.2  T
   3    -58.3862860 -0.852651E-13  0.157E-06    1.12   11093.6  T

   *** convergence criteria satisfied after 3 iterations ***

         #    Occupation            Energy/Eh            Energy/eV
      -------------------------------------------------------------
         1        2.0000           -0.9043586             -24.6089
       ...           ...                  ...                  ...
        41        2.0000           -0.5228554             -14.2276
        42        2.0000           -0.5167373             -14.0611
        43        2.0000           -0.5101930             -13.8831
        44        2.0000           -0.5055308             -13.7562
        45        2.0000           -0.4894004             -13.3173
        46        2.0000           -0.4803151             -13.0700
        47        2.0000           -0.4398988             -11.9703 (HOMO)
        48                         -0.3986789             -10.8486 (LUMO)
        49                         -0.3290290              -8.9533
        50                         -0.2980564              -8.1105
        51                         -0.2143876              -5.8338
        52                         -0.1726683              -4.6985
       ...                                ...                  ...
       100                          0.7265071              19.7693
      -------------------------------------------------------------
                  HL-Gap            0.0412198 Eh            1.1216 eV
             Fermi-level           -0.4192888 Eh          -11.4094 eV

 SCC (total)                   0 d,  0 h,  0 min,  0.090 sec
 SCC setup                      ...        0 min,  0.001 sec (  1.628%)
 Dispersion                     ...        0 min,  0.000 sec (  0.248%)
 classical contributions        ...        0 min,  0.000 sec (  0.087%)
 integral evaluation            ...        0 min,  0.025 sec ( 27.679%)
 iterations                     ...        0 min,  0.007 sec (  7.578%)
 molecular gradient             ...        0 min,  0.056 sec ( 62.010%)
 printout                       ...        0 min,  0.001 sec (  0.710%)

         :::::::::::::::::::::::::::::::::::::::::::::::::::::
         ::                     SUMMARY                     ::
         :::::::::::::::::::::::::::::::::::::::::::::::::::::
         :: total energy             -57.811382308999 Eh    ::
         :: total w/o Gsasa/hb       -57.791180330061 Eh    ::
         :: gradient norm              0.000499021077 Eh/a0 ::
         :: HOMO-LUMO gap              1.121649059185 eV    ::
         ::.................................................::
         :: SCC energy               -58.386286003871 Eh    ::
         :: -> electrostatic           0.303018620436 Eh    ::
         :: -> Gsolv                  -0.099471397939 Eh    ::
         ::    -> Gelec               -0.079269419002 Eh    ::
         ::    -> Gsasa               -0.018132485904 Eh    ::
         ::    -> Ghb                 -0.009693772038 Eh    ::
         ::    -> Gshift               0.007624279005 Eh    ::
         :: repulsion energy           0.594503057449 Eh    ::
         :: dispersion energy         -0.019599362577 Eh    ::
         :: halogen bond corr.         0.000000000000 Eh    ::
         :: add. restraining           0.000000000000 Eh    ::
         :: total charge               1.000000000000 e     ::
         :::::::::::::::::::::::::::::::::::::::::::::::::::::

           -------------------------------------------------
          |                Property Printout                |
           -------------------------------------------------

    * Orbital Energies and Occupations

         #    Occupation            Energy/Eh            Energy/eV
      -------------------------------------------------------------
         1        2.0000           -0.9043586             -24.6089
       ...           ...                  ...                  ...
        35        2.0000           -0.5586299             -15.2011
        36        2.0000           -0.5421809             -14.7535
        37        2.0000           -0.5381188             -14.6430
        38        2.0000           -0.5335398             -14.5184
        39        2.0000           -0.5306401             -14.4395
        40        2.0000           -0.5267596             -14.3339
        41        2.0000           -0.5228554             -14.2276
        42        2.0000           -0.5167373             -14.0611
        43        2.0000           -0.5101930             -13.8831
        44        2.0000           -0.5055308             -13.7562
        45        2.0000           -0.4894004             -13.3173
        46        2.0000           -0.4803151             -13.0700
        47        2.0000           -0.4398988             -11.9703 (HOMO)
        48                         -0.3986789             -10.8486 (LUMO)
        49                         -0.3290290              -8.9533
        50                         -0.2980564              -8.1105
        51                         -0.2143876              -5.8338
        52                         -0.1726683              -4.6985
        53                         -0.1640825              -4.4649
        54                         -0.1480995              -4.0300
        55                         -0.1383425              -3.7645
        56                         -0.1294658              -3.5229
        57                         -0.1182464              -3.2176
        58                         -0.1130052              -3.0750
       ...                                ...                  ...
       100                          0.7265071              19.7693
      -------------------------------------------------------------
                  HL-Gap            0.0412198 Eh            1.1216 eV
             Fermi-level           -0.4192888 Eh          -11.4094 eV

  Mulliken/CM5 charges         n(s)   n(p)   n(d)
     1C     0.15827  0.03690   0.988  2.854  0.000
     2O    -0.38743 -0.47084   1.680  4.708  0.000
     3C     0.58671  0.65211   0.959  2.454  0.000
     4O    -0.55200 -0.61830   1.722  4.830  0.000
     5C     0.07942  0.15329   1.050  2.871  0.000
     6C     0.25909  0.29231   1.018  2.723  0.000
     7O    -0.47994 -0.66645   1.694  4.786  0.000
     8C     0.48512  0.57007   1.031  2.484  0.000
     9O    -0.43096 -0.47698   1.715  4.716  0.000
    10N    -0.18122 -0.56664   1.486  3.695  0.000
    11C     0.03071 -0.06577   1.025  2.945  0.000
    12C     0.27014  0.40762   1.063  2.667  0.000
    13C     0.14409  0.17720   1.066  2.790  0.000
    14C    -0.11780 -0.25962   1.027  3.090  0.000
    15C    -0.11248 -0.25283   1.023  3.089  0.000
    16N    -0.51618 -0.97897   1.478  4.039  0.000
    17N    -0.29516 -0.48591   1.512  3.783  0.000
    18H     0.06724  0.12757   0.933  0.000  0.000
    19H     0.06650  0.12793   0.934  0.000  0.000
    20H     0.06664  0.12857   0.933  0.000  0.000
    21H     0.43270  0.61894   0.567  0.000  0.000
    22H     0.30642  0.50642   0.694  0.000  0.000
    23H     0.10045  0.16566   0.900  0.000  0.000
    24H     0.09651  0.16995   0.903  0.000  0.000
    25H     0.08506  0.14994   0.915  0.000  0.000
    26H     0.05542  0.10999   0.945  0.000  0.000
    27H     0.07521  0.13032   0.925  0.000  0.000
    28H     0.05338  0.11173   0.947  0.000  0.000
    29H     0.06119  0.11656   0.939  0.000  0.000
    30H     0.05172  0.10786   0.948  0.000  0.000
    31H     0.05348  0.11233   0.947  0.000  0.000
    32H     0.23883  0.42963   0.761  0.000  0.000
    33H     0.24888  0.43942   0.751  0.000  0.000

Wiberg/Mayer (AO) data.
largest (>0.10) Wiberg bond orders for each atom

 ---------------------------------------------------------------------------
     #   Z sym  total        # sym  WBO       # sym  WBO       # sym  WBO
 ---------------------------------------------------------------------------
     1   6 C    3.848 --    18 H    0.985    20 H    0.977    19 H    0.977
                             2 O    0.876
     2   8 O    2.239 --     3 C    1.169     1 C    0.876     4 O    0.140
     3   6 C    3.861 --     4 O    1.615     2 O    1.169     5 C    0.999
     4   8 O    1.965 --     3 C    1.615     2 O    0.140
     5   6 C    3.962 --     6 C    1.514    17 N    1.112     3 C    0.999
                             7 O    0.114
     6   6 C    3.931 --     5 C    1.514     7 O    1.162     8 C    1.035
     7   8 O    2.125 --     6 C    1.162    21 H    0.747     5 C    0.114
     8   6 C    3.860 --     9 O    1.815     6 C    1.035    10 N    0.855
     9   8 O    2.074 --     8 C    1.815
    10   7 N    3.601 --    12 C    0.869    22 H    0.865    11 C    0.857
                             8 C    0.855
    11   6 C    3.857 --    25 H    0.985    23 H    0.978    24 H    0.960
                            10 N    0.857
    12   6 C    3.882 --    17 N    1.792    13 C    0.979    10 N    0.869
    13   6 C    3.957 --    15 C    0.988    12 C    0.979    14 C    0.978
                            16 N    0.976
    14   6 C    3.989 --    26 H    0.985    13 C    0.978    27 H    0.977
                            28 H    0.977
    15   6 C    3.990 --    13 C    0.988    30 H    0.983    29 H    0.983
                            31 H    0.983
    16   7 N    2.991 --    13 C    0.976    32 H    0.933    33 H    0.926
    17   7 N    3.086 --    12 C    1.792     5 C    1.112
    18   1 H    1.007 --     1 C    0.985
    19   1 H    1.002 --     1 C    0.977
    20   1 H    1.002 --     1 C    0.977
    21   1 H    0.829 --     7 O    0.747
    22   1 H    0.923 --    10 N    0.865
    23   1 H    0.991 --    11 C    0.978
    24   1 H    1.021 --    11 C    0.960
    25   1 H    0.991 --    11 C    0.985
    26   1 H    0.998 --    14 C    0.985
    27   1 H    0.995 --    14 C    0.977
    28   1 H    0.998 --    14 C    0.977
    29   1 H    0.999 --    15 C    0.983
    30   1 H    1.001 --    15 C    0.983
    31   1 H    1.005 --    15 C    0.983
    32   1 H    0.947 --    16 N    0.933
    33   1 H    0.941 --    16 N    0.926
 ---------------------------------------------------------------------------

Topologies differ in total number of bonds
Writing topology from bond orders to xtbtopo.mol

 dipole moment from electron density (au)
     X       Y       Z   
  -1.8727   0.9550  -0.0170  total (Debye):    5.343

           -------------------------------------------------
          |                Geometry Summary                 |
           -------------------------------------------------

      molecular mass/u    :      242.2521403
   center of mass at/Å    :        0.4102275      -0.5179257       0.0463498
  moments of inertia/u·Å² :        0.8159778E+03   0.1333172E+04   0.1945832E+04
rotational constants/cm⁻¹ :        0.2065942E-01   0.1264476E-01   0.8663456E-02

 * 27 selected distances

     #   Z          #   Z                                           value/Å
     1   6 C        2   8 O                                       1.4375200
     2   8 O        3   6 C                                       1.3127604
     3   6 C        4   8 O                                       1.2158603
     5   6 C        6   6 C                                       1.3681100
     6   6 C        7   8 O                                       1.3205300
     8   6 C        9   8 O                                       1.1881898
    10   7 N       11   6 C                                       1.5016594
    13   6 C       14   6 C                                       1.5342065 (max)
    13   6 C       15   6 C                                       1.5340087
    13   6 C       16   7 N                                       1.4605798
    12   6 C       17   7 N                                       1.2605652
     1   6 C       18   1 H                                       1.0876076
     1   6 C       19   1 H                                       1.0916510
     1   6 C       20   1 H                                       1.0915981
     7   8 O       21   1 H                                       0.9931015 (min)
    10   7 N       22   1 H                                       1.0226151
    11   6 C       23   1 H                                       1.0874909
    11   6 C       24   1 H                                       1.0885344
    11   6 C       25   1 H                                       1.0859844
    14   6 C       26   1 H                                       1.0888192
    14   6 C       27   1 H                                       1.0889118
    14   6 C       28   1 H                                       1.0891144
    15   6 C       29   1 H                                       1.0882159
    15   6 C       30   1 H                                       1.0893517
    15   6 C       31   1 H                                       1.0886508
    16   7 N       32   1 H                                       1.0116855
    16   7 N       33   1 H                                       1.0107347

 * 6 distinct bonds (by element types)

   Z      Z             #   av. dist./Å        max./Å        min./Å
   1 H    6 C          12     1.0888275     1.0916510     1.0859844
   6 C    6 C           3     1.4787750     1.5342065     1.3681100
   1 H    7 N           3     1.0150117     1.0226151     1.0107347
   6 C    7 N           3     1.4076015     1.5016594     1.2605652
   1 H    8 O           1     0.9931015     0.9931015     0.9931015
   6 C    8 O           5     1.2949721     1.4375200     1.1881898


optimized geometry written to: xtbopt.xyz


           -------------------------------------------------
          | TOTAL ENERGY              -57.811382308999 Eh   |
          | GRADIENT NORM               0.000499021077 Eh/α |
          | HOMO-LUMO GAP               1.121649059185 eV   |
           -------------------------------------------------

------------------------------------------------------------------------
 * finished run on 2023/06/20 at 15:11:32.614     
------------------------------------------------------------------------
 total:
 * wall-time:     0 d,  0 h,  0 min,  2.326 sec
 *  cpu-time:     0 d,  0 h,  0 min,  2.230 sec
 * ratio c/w:     0.959 speedup
 SCF:
 * wall-time:     0 d,  0 h,  0 min,  0.108 sec
 *  cpu-time:     0 d,  0 h,  0 min,  0.102 sec
 * ratio c/w:     0.947 speedup
 ANC optimizer:
 * wall-time:     0 d,  0 h,  0 min,  2.097 sec
 *  cpu-time:     0 d,  0 h,  0 min,  2.086 sec
 * ratio c/w:     0.995 speedup

