38
 energy: -79.614974425913 gnorm: 0.000479369482 xtb: 6.5.1 (579679a)
C            5.84836750931029       -1.17558296576847       -0.56965550149893
O            4.50066399735909       -0.74123308075397       -0.40796923479464
C            4.25331144917396        0.04128300031233        0.65173680636152
O            5.13917776058821        0.35632459738026        1.43603446858660
C            2.85335429342497        0.46981111704852        0.76908851657927
N            1.97830271471429        0.03478497927068       -0.18839525985737
C            0.73077702085025        0.43501609643617       -0.06712368913929
C           -0.22846376734822        0.00432716331580       -1.17543230220402
C           -0.38639718892391        1.17710000010444       -2.14807959240990
C            0.28433143034705       -1.24125843232431       -1.90243502885143
N           -1.55448378759788       -0.26466365181435       -0.60514033015175
C           -1.76345840676271       -1.16305899040336        0.36815666734684
O           -0.90648581079999       -1.85218955931248        0.90118657930486
C           -3.19542339457057       -1.24947733242190        0.77796961786097
N           -3.69572920917076       -1.95584043372704        1.74376056990657
N           -5.03981085786157       -1.71244667871532        1.75517637100330
C           -5.27394359406258       -0.87376618562572        0.79634972795368
C           -6.57520399345773       -0.29603364130578        0.39478471907798
O           -4.15027023774727       -0.53699931252699        0.14034508586634
N            0.22308468429721        1.22654069163291        0.86907954235989
C            1.02103299801649        1.69559971061735        1.86969525763693
O            0.58560884703052        2.42725023452562        2.77489746980877
C            2.43194080811848        1.27950433422704        1.80144792946565
O            3.25319676752654        1.73301946308181        2.77668582262194
H            6.51814794037324       -0.31538803012895       -0.64930715977277
H            5.88356916930242       -1.76274689626354       -1.48539206959158
H            6.15572388656045       -1.78866470412628        0.28182584968770
H           -1.08400719043471        0.92408135119510       -2.94453941232279
H            0.57922834281660        1.41739034571925       -2.59047350578702
H           -0.75633485970278        2.05208954156241       -1.61382722525951
H            1.24969222913873       -1.01970623561508       -2.35497994567052
H            0.41062217178139       -2.06394410026135       -1.19906637278240
H           -0.41689852256459       -1.53859208339729       -2.68007016311307
H           -2.34547896803827        0.19228632046190       -1.02336512110339
H           -6.73087978239302       -0.43705701482925       -0.67375120852107
H           -6.58806682077887        0.77504951530062        0.59828348425618
H           -7.37644145588465       -0.77789095857574        0.94932064228935
H            4.16764682737226        1.42012782570465        2.62317799485598
