47
 energy: -80.194586929495 gnorm: 0.000554293678 xtb: 6.5.1 (579679a)
C            3.39925764172815       -1.97348784550274       -0.89013063209762
C            3.20252207044652       -0.64021749763727       -0.11682002892541
C            3.90031195598889       -0.70412957609759        1.22044228182955
C            4.96873377108719        0.08287094108857        1.47970938400920
F            5.59668767583705       -0.07228628971006        2.68547686619765
C            5.46841184367202        1.08479957960847        0.63438658062364
C            4.74174691911019        1.31946240031182       -0.54571189020167
C            3.68097052711847        0.54665914019926       -0.93328265807662
C            2.84142768816662        0.92796102172340       -2.11965739778841
N            1.51576266613763        1.34946139620855       -1.62269014170251
C            0.55959723477835        0.38962963228526       -1.45153805665203
O            0.50326750934758       -0.61414555530308       -2.17466781438775
C           -0.48430968699291        0.66189739065055       -0.43032063009610
N           -1.55545301835811       -0.19753557561357       -0.48936236233411
C           -2.55919055140430       -0.11746503245075        0.31937145141790
C           -3.70325013332977       -1.09751663537586        0.07171725293622
C           -3.25770518626163       -2.14697806273206       -0.96006238162687
C           -4.91658411563814       -0.33619641237792       -0.48068066649800
N           -4.08551786977709       -1.76797216548635        1.31547085206650
N           -2.61741018933171        0.83694092543331        1.30885895674548
C           -3.72178166299212        1.00349456124138        2.25085611010751
C           -1.59315122535340        1.77088629969266        1.45010024116918
O           -1.63823052970433        2.65218418424058        2.32190067611711
C           -0.49814842691657        1.64682557391627        0.53519428280165
O            0.49557982608357        2.56520908378338        0.70556402304161
H            4.44752249807701       -2.09560810147622       -1.16514280869428
H            3.10352294076086       -2.81526848801008       -0.26226762514815
H            2.79262999747429       -1.98503720479434       -1.79663892876631
H            2.10537880974279       -0.54697044097215        0.04670660567375
H            3.54366497525874       -1.42394693893533        1.94754331766475
H            6.33005080224747        1.67550112878697        0.90984563303607
H            5.04543124197438        2.15124753214488       -1.17897898331722
H            2.67969730477335        0.10213095046465       -2.82191805333767
H            3.28565029851515        1.76565770121530       -2.66789108532383
H            1.56981389053281        2.07452882816321       -0.92067554300434
H           -2.37508701578096       -2.67602918931582       -0.60231802519870
H           -3.01939384833348       -1.67030888165386       -1.91073824569599
H           -4.06151885548831       -2.86474343298528       -1.11313549621842
H           -5.32296788491533        0.34759372601881        0.26162251346250
H           -5.69657978804159       -1.04332929437740       -0.75923884587313
H           -4.62993251905310        0.23357206205370       -1.36447379753500
H           -3.36703120150661       -2.42702159164147        1.58609085354297
H           -4.93536408206512       -2.29030471893468        1.15997142678398
H           -4.25492482352256        0.06567105117781        2.37836663770618
H           -3.30858478443395        1.32143659503036        3.20920891895759
H           -4.40157706235345        1.77635696593416        1.88846641940379
H            0.22605237269420        3.15451925999803        1.43345781320505
