16
 energy: -34.111282425184 gnorm: 0.000780492167 xtb: 6.5.1 (579679a)
C           -1.74269551612800       -1.32902822968231       -0.34963052777145
C           -0.44917071065444       -0.63611512606698       -0.13044041603976
O            0.73406302884906       -1.30823699284404       -0.16016206971375
C            1.71882407818276       -0.26937813017172        0.07830370553120
C            3.01074153455452       -0.59331651498551        0.13919979651521
O            3.75279990833634       -1.57167739013855        0.03089252232506
Cl           4.01461416262631        1.13737005002922        0.50181571355580
N            1.05005328556542        0.96851137390860        0.22997647906810
N           -0.23208293830559        0.63664652329973        0.08251003424422
C           -1.22737072080952        1.67730291406664        0.17964151226527
H           -1.65831875996000       -2.36519714677496       -0.02491219634849
H           -2.53522050351946       -0.84007471758043        0.21407814403447
H           -2.02317907812870       -1.32358163289260       -1.40588686342064
H           -0.70946277036625        2.63106989602867        0.25256181143638
H           -1.84101877022511        1.52136586390025        1.06628959561520
H           -1.86257623001757        1.66434025990392       -0.70423724129671
