42
 energy: -83.596076924157 gnorm: 0.000667377014 xtb: 6.5.1 (579679a)
C           -5.65951150008762        1.74831984422843        1.87188473986749
O           -4.53260673931098        0.95148202197442        1.58380388253939
C           -3.52752583355753        1.59126004240290        0.85438090775171
O           -3.69186355824912        2.79227294949444        0.55230218389842
C           -2.40198004191656        0.79584188385098        0.53817051651912
C           -2.22355762075889       -0.63382673182138        0.86921523402410
O           -3.11116702393806       -1.33220911381135        1.45740435141975
C           -1.01112810308941       -1.17530992021585        0.43036906057074
O           -0.60056132619649       -2.49488682838178        0.64613914734527
C           -1.45818817515232       -3.49818980843731        0.12728307343951
N           -0.01270141221916       -0.40348156080172       -0.19334236757911
C           -0.32785876974258        0.90676282245105       -0.52550426336439
C            0.76527393828844        1.66280600951213       -1.25940650312985
C            0.63264212354587        3.16842513092307       -1.00798138747392
C            0.68375597596214        1.36571925122978       -2.76120341133552
N            2.07470906185387        1.18715333394318       -0.77921350744257
C            2.13532995160149        0.85364923864093        0.59504108355159
O            1.62231018167256        1.58445459271637        1.47147811883028
C            2.93127526304129       -0.29732985538657        0.89004380392235
N            3.22067753663658       -0.80410013396116        2.08820094805757
N            4.00047827243720       -1.90826423592776        1.86463437636494
C            4.14885622344753       -2.02618870963308        0.58783919418201
C            4.92979938184609       -3.06204206842572       -0.13221042633293
O            3.50649828576937       -1.05799280081490       -0.11099689524983
N           -1.40666818221163        1.48463099697290       -0.15226461820935
H           -6.14315628029012        2.10716237846241        0.95417880642363
H           -5.39204231375521        2.62183649624074        2.48111750539868
H           -6.36565380350032        1.12884043013234        2.42754991448608
H           -1.62621543090946       -3.36365299177508       -0.94888378254127
H           -0.96403254787520       -4.45839603745551        0.29023605611717
H           -2.42949419587469       -3.50184159528876        0.64030499464285
H            0.61491722205221       -0.90353929396302       -0.80192415299598
H            1.39783886197268        3.70767283223998       -1.56421500277870
H            0.74973048111375        3.38180133830848        0.05510260135917
H           -0.35204085154221        3.50853223855362       -1.32969441858175
H           -0.26433068708839        1.72478652112535       -3.16029945181004
H            1.49716184361799        1.85906845024508       -3.29132012245800
H            0.75237891561140        0.29335320099557       -2.93920775671788
H            2.45643513049062        0.46140758795196       -1.36977726394661
H            4.27805433828844       -3.66576287298701       -0.76394366080442
H            5.67610025314236       -2.59327582231620       -0.77322192123796
H            5.42806115487073       -3.70694921120485        0.58793141327309
