      -----------------------------------------------------------      
     |                   =====================                   |     
     |                           x T B                           |     
     |                   =====================                   |     
     |                         S. Grimme                         |     
     |          Mulliken Center for Theoretical Chemistry        |     
     |                    University of Bonn                     |     
      -----------------------------------------------------------      

   * xtb version 6.5.1 (579679a) compiled by 'ehlert@majestix' on 2022-07-11

   xtb is free software: you can redistribute it and/or modify it under
   the terms of the GNU Lesser General Public License as published by
   the Free Software Foundation, either version 3 of the License, or
   (at your option) any later version.
   
   xtb is distributed in the hope that it will be useful,
   but WITHOUT ANY WARRANTY; without even the implied warranty of
   MERCHANTABILITY or FITNESS FOR A PARTICULAR PURPOSE.  See the
   GNU Lesser General Public License for more details.
   
   Cite this work as:
   * C. Bannwarth, E. Caldeweyher, S. Ehlert, A. Hansen, P. Pracht,
     J. Seibert, S. Spicher, S. Grimme, WIREs Comput. Mol. Sci., 2020, 11,
     e01493. DOI: 10.1002/wcms.1493
   
   for GFN2-xTB:
   * C. Bannwarth, S. Ehlert and S. Grimme., J. Chem. Theory Comput., 2019,
     15, 1652-1671. DOI: 10.1021/acs.jctc.8b01176
   for GFN1-xTB:
   * S. Grimme, C. Bannwarth, P. Shushkov, J. Chem. Theory Comput., 2017,
     13, 1989-2009. DOI: 10.1021/acs.jctc.7b00118
   for GFN0-xTB:
   * P. Pracht, E. Caldeweyher, S. Ehlert, S. Grimme, ChemRxiv, 2019, preprint.
     DOI: 10.26434/chemrxiv.8326202.v1
   for GFN-FF:
   * S. Spicher and S. Grimme, Angew. Chem. Int. Ed., 2020, 59, 15665-15673.
     DOI: 10.1002/anie.202004239
   
   for ALPB and GBSA implicit solvation:
   * S. Ehlert, M. Stahn, S. Spicher, S. Grimme, J. Chem. Theory Comput.,
     2021, 17, 4250-4261. DOI: 10.1021/acs.jctc.1c00471
   
   for DFT-D4:
   * E. Caldeweyher, C. Bannwarth and S. Grimme, J. Chem. Phys., 2017,
     147, 034112. DOI: 10.1063/1.4993215
   * E. Caldeweyher, S. Ehlert, A. Hansen, H. Neugebauer, S. Spicher,
     C. Bannwarth and S. Grimme, J. Chem. Phys., 2019, 150, 154122.
     DOI: 10.1063/1.5090222
   * E. Caldeweyher, J.-M. Mewes, S. Ehlert and S. Grimme, Phys. Chem. Chem. Phys.
     2020, 22, 8499-8512. DOI: 10.1039/D0CP00502A
   
   for sTDA-xTB:
   * S. Grimme and C. Bannwarth, J. Chem. Phys., 2016, 145, 054103.
     DOI: 10.1063/1.4959605
   
   in the mass-spec context:
   * V. Asgeirsson, C. Bauer and S. Grimme, Chem. Sci., 2017, 8, 4879.
     DOI: 10.1039/c7sc00601b
   * J. Koopman and S. Grimme, ACS Omega 2019, 4, 12, 15120-15133.
     DOI: 10.1021/acsomega.9b02011
   
   for metadynamics refer to:
   * S. Grimme, J. Chem. Theory Comput., 2019, 155, 2847-2862
     DOI: 10.1021/acs.jctc.9b00143
   
   for SPH calculations refer to:
   * S. Spicher and S. Grimme, J. Chem. Theory Comput., 2021, 17, 1701-1714
     DOI: 10.1021/acs.jctc.0c01306
   
   with help from (in alphabetical order)
   P. Atkinson, C. Bannwarth, F. Bohle, G. Brandenburg, E. Caldeweyher
   M. Checinski, S. Dohm, S. Ehlert, S. Ehrlich, I. Gerasimov, C. Hölzer
   A. Katbashev, J. Koopman, C. Lavigne, S. Lehtola, F. März, M. Müller,
   F. Musil, H. Neugebauer, J. Pisarek, C. Plett, P. Pracht, F. Pultar,
   J. Seibert, P. Shushkov, S. Spicher, M. Stahn, M. Steiner, T. Strunk,
   J. Stückrath, T. Rose, and J. Unsleber
   
 * started run on 2023/06/20 at 15:03:28.591     

           -------------------------------------------------
          |                Calculation Setup                |
           -------------------------------------------------

          program call               : /lustre/hpc/kemi/ree/PhD/git/ReactivityQM/dep/xtb-6.5.1/bin/xtb --gfn 1 /lustre/hpc/kemi/ree/PhD/git/ReactivityQM/calculations/R01/reac02prodN01/conf01/R01_reac02prodN01_conf01_gfn1.xyz --opt --vfukui --chrg 1 --uhf 0 --alpb DMSO
          hostname                   : node312
          coordinate file            : /lustre/hpc/kemi/ree/PhD/git/ReactivityQM/calculations/R01/reac02prodN01/conf01/R01_reac02prodN01_conf01_gfn1.xyz
          omp threads                :                     1

   ID    Z sym.   atoms
    1    6 C      1, 3, 5, 6, 8-11, 14, 16
    2    8 O      2, 4, 15, 17
    3    7 N      7, 12, 13
    4    1 H      18-33

           -------------------------------------------------
          |                 G F N 1 - x T B                 |
           -------------------------------------------------

        Reference                      10.1021/acs.jctc.7b00118
      * Hamiltonian:
        H0-scaling (s, p, d)           1.850000    2.250000    2.000000
        zeta-weighting                 0.000000
      * Dispersion:
        s8                             2.400000
        a1                             0.630000
        a2                             5.000000
        s9                             0.000000
      * Repulsion:
        kExp                           1.500000
        rExp                           1.000000
      * Coulomb:
        alpha                          2.000000
        third order                    atomic
        anisotropic                    false
      * Halogen bond correction:
        rad-scale                      1.300000
        damping                        0.440000

      * Solvation model:               ALPB
        Solvent                        DMSO
        Parameter file                 internal GFN1-xTB/ALPB
        Dielectric constant                4.6680E+01
        Reference state                gsolv [1 M gas/solution]
        Free energy shift                  7.6243E-03 Eh       4.7843E+00 kcal/mol
        Temperature                        2.9815E+02 K
        Density                            1.1000E+00 kg/L
        Solvent mass                       7.8130E+01 g/mol
        Interaction kernel             P16
        Born radius scaling (c1)           1.7672E+00
        Born radii integrator          GBOBC
        Born offset                        0.0000E+00 a0       0.0000E+00 AA
        H-bond correction              true
        Ion screening                  false
        Surface tension                    1.0000E-05 Eh       1.5569E+01 dyn/cm
        Grid points                               230 per atom

          ...................................................
          :                      SETUP                      :
          :.................................................:
          :  # basis functions                 100          :
          :  # atomic orbitals                 100          :
          :  # shells                           66          :
          :  # electrons                        94          :
          :  # halogen bonds                     0          :
          :  max. iterations                   250          :
          :  Hamiltonian                  GFN1-xTB          :
          :  restarted?                      false          :
          :  GBSA solvation                   true          :
          :  PC potential                    false          :
          :  electronic temp.          300.0000000     K    :
          :  accuracy                    1.0000000          :
          :  -> integral cutoff          0.2500000E+02      :
          :  -> integral neglect         0.1000000E-07      :
          :  -> SCF convergence          0.1000000E-05 Eh   :
          :  -> wf. convergence          0.2000000E-04 e    :
          :  Broyden damping             0.4000000          :
          ...................................................

 iter      E             dE          RMSdq      gap      omega  full diag
   1    -58.1207948 -0.581208E+02  0.804E+00    1.87       0.0  T
   2    -58.3436166 -0.222822E+00  0.481E+00    0.55       1.0  T
   3    -58.3054644  0.381522E-01  0.177E+00    0.56       1.0  T
   4    -58.3515070 -0.460426E-01  0.472E-01    0.35       1.0  T
   5    -58.3624173 -0.109102E-01  0.741E-02    0.32       1.0  T
   6    -58.3625822 -0.164909E-03  0.262E-02    0.35       1.0  T
   7    -58.3625935 -0.113017E-04  0.612E-03    0.35       2.8  T
   8    -58.3625938 -0.302350E-06  0.224E-03    0.35       7.8  T
   9    -58.3625938 -0.436536E-07  0.945E-04    0.35      18.4  T
  10    -58.3625938 -0.871336E-08  0.297E-04    0.35      58.7  T
  11    -58.3625938 -0.737025E-09  0.822E-05    0.35     211.8  T
  12    -58.3625938 -0.300702E-10  0.372E-05    0.35     467.5  T

   *** convergence criteria satisfied after 12 iterations ***

         #    Occupation            Energy/Eh            Energy/eV
      -------------------------------------------------------------
         1        2.0000           -0.8970203             -24.4092
       ...           ...                  ...                  ...
        41        2.0000           -0.5146494             -14.0043
        42        2.0000           -0.5116588             -13.9229
        43        2.0000           -0.5035328             -13.7018
        44        2.0000           -0.4946088             -13.4590
        45        2.0000           -0.4789135             -13.0319
        46        2.0000           -0.4717749             -12.8376
        47        1.9977           -0.4224121             -11.4944 (HOMO)
        48        0.0023           -0.4095610             -11.1447 (LUMO)
        49                         -0.3269700              -8.8973
        50                         -0.3029894              -8.2448
        51                         -0.2099371              -5.7127
        52                         -0.1609694              -4.3802
       ...                                ...                  ...
       100                          0.6091747              16.5765
      -------------------------------------------------------------
                  HL-Gap            0.0128511 Eh            0.3497 eV
             Fermi-level           -0.4159865 Eh          -11.3196 eV

 SCC (total)                   0 d,  0 h,  0 min,  0.109 sec
 SCC setup                      ...        0 min,  0.002 sec (  1.398%)
 Dispersion                     ...        0 min,  0.000 sec (  0.246%)
 classical contributions        ...        0 min,  0.000 sec (  0.081%)
 integral evaluation            ...        0 min,  0.020 sec ( 18.389%)
 iterations                     ...        0 min,  0.034 sec ( 31.306%)
 molecular gradient             ...        0 min,  0.052 sec ( 47.996%)
 printout                       ...        0 min,  0.001 sec (  0.544%)

         :::::::::::::::::::::::::::::::::::::::::::::::::::::
         ::                     SUMMARY                     ::
         :::::::::::::::::::::::::::::::::::::::::::::::::::::
         :: total energy             -57.814226804434 Eh    ::
         :: total w/o Gsasa/hb       -57.791577043298 Eh    ::
         :: gradient norm              0.172614155585 Eh/a0 ::
         :: HOMO-LUMO gap              0.349695642770 eV    ::
         ::.................................................::
         :: SCC energy               -58.362593820795 Eh    ::
         :: -> electrostatic           0.284392195010 Eh    ::
         :: -> Gsolv                  -0.092216963074 Eh    ::
         ::    -> Gelec               -0.069567201937 Eh    ::
         ::    -> Gsasa               -0.018626020484 Eh    ::
         ::    -> Ghb                 -0.011648019657 Eh    ::
         ::    -> Gshift               0.007624279005 Eh    ::
         :: repulsion energy           0.567410941130 Eh    ::
         :: dispersion energy         -0.019043924769 Eh    ::
         :: halogen bond corr.         0.000000000000 Eh    ::
         :: add. restraining           0.000000000000 Eh    ::
         :: total charge               1.000000000000 e     ::
         :::::::::::::::::::::::::::::::::::::::::::::::::::::

      ----------------------------------------------------------- 
     |                   =====================                   |
     |                        A N C O P T                        |
     |                   =====================                   |
     |               Approximate Normal Coordinate               |
     |                Rational Function Optimizer                |
      ----------------------------------------------------------- 

          ...................................................
          :                      SETUP                      :
          :.................................................:
          :   optimization level            normal          :
          :   max. optcycles                   200          :
          :   ANC micro-cycles                  20          :
          :   degrees of freedom                93          :
          :.................................................:
          :   RF solver                   davidson          :
          :   write xtbopt.log                true          :
          :   linear?                        false          :
          :   energy convergence         0.5000000E-05 Eh   :
          :   grad. convergence          0.1000000E-02 Eh/α :
          :   maximium RF displ.         1.0000000          :
          :   Hlow (freq-cutoff)         0.1000000E-01      :
          :   Hmax (freq-cutoff)         5.0000000          :
          :   S6 in model hess.         20.0000000          :
          ...................................................

generating ANC from model Hessian ...
Using Lindh-Hessian (1995)
 Shifting diagonal of input Hessian by   9.436652236647190E-003
 Lowest  eigenvalues of input Hessian
    0.000000    0.000000    0.000000    0.000000    0.000000    0.000000
    0.010000    0.010245    0.011715    0.011900    0.013176    0.014549
    0.014649    0.016036    0.017516    0.018700    0.019047    0.019228
 Highest eigenvalues
    1.773440    1.880546    1.978638    1.997144    2.206728    2.395478
 

........................................................................
.............................. CYCLE    1 ..............................
........................................................................
   1    -58.3625938 -0.583626E+02  0.588E-06    0.35       0.0  T
   2    -58.3625938 -0.632383E-12  0.219E-06    0.35    7951.4  T
   3    -58.3625938 -0.355271E-13  0.127E-06    0.35   13674.5  T
     SCC iter.                  ...        0 min,  0.006 sec
     gradient                   ...        0 min,  0.053 sec
 * total energy  :   -57.8142268 Eh     change       -0.1067235E-10 Eh
   gradient norm :     0.1726140 Eh/α   predicted     0.0000000E+00 (-100.00%)
   displ. norm   :     0.3788458 α      lambda       -0.3312783E-01
   maximum displ.:     0.1348379 α      in ANC's #18, #16, #25, ...

........................................................................
.............................. CYCLE    2 ..............................
........................................................................
   1    -58.4018702 -0.584019E+02  0.164E-01    0.88       0.0  T
   2    -58.4027496 -0.879343E-03  0.714E-02    0.78       1.0  T
   3    -58.4028397 -0.901183E-04  0.356E-02    0.80       1.0  T
   4    -58.4028407 -0.956763E-06  0.825E-03    0.79       2.1  T
   5    -58.4028410 -0.297312E-06  0.143E-03    0.79      12.2  T
   6    -58.4028410 -0.501947E-07  0.501E-04    0.79      34.8  T
   7    -58.4028410 -0.372181E-08  0.225E-04    0.79      77.3  T
   8    -58.4028410 -0.484548E-09  0.852E-05    0.79     204.2  T
   9    -58.4028410 -0.168271E-09  0.223E-05    0.79     780.3  T
     SCC iter.                  ...        0 min,  0.017 sec
     gradient                   ...        0 min,  0.054 sec
 * total energy  :   -57.8384435 Eh     change       -0.2421669E-01 Eh
   gradient norm :     0.0804383 Eh/α   predicted    -0.1896809E-01 ( -21.67%)
   displ. norm   :     0.3525741 α      lambda       -0.1294009E-01
   maximum displ.:     0.1472520 α      in ANC's #18, #16, #31, ...

........................................................................
.............................. CYCLE    3 ..............................
........................................................................
   1    -58.4239794 -0.584240E+02  0.126E-01    1.27       0.0  T
   2    -58.4245464 -0.567082E-03  0.572E-02    1.21       1.0  T
   3    -58.4245949 -0.484480E-04  0.291E-02    1.22       1.0  T
   4    -58.4245947  0.207358E-06  0.833E-03    1.22       2.1  T
   5    -58.4245957 -0.105662E-05  0.244E-03    1.22       7.1  T
   6    -58.4245960 -0.254078E-06  0.455E-04    1.22      38.3  T
   7    -58.4245960 -0.292711E-08  0.207E-04    1.22      84.2  T
   8    -58.4245960 -0.255291E-09  0.648E-05    1.22     268.6  T
   9    -58.4245960 -0.445155E-10  0.158E-05    1.22    1103.4  T
     SCC iter.                  ...        0 min,  0.017 sec
     gradient                   ...        0 min,  0.055 sec
 * total energy  :   -57.8453468 Eh     change       -0.6903324E-02 Eh
   gradient norm :     0.0235402 Eh/α   predicted    -0.7274330E-02 (   5.37%)
   displ. norm   :     0.2400029 α      lambda       -0.2014595E-02
   maximum displ.:     0.1148627 α      in ANC's #16, #18, #19, ...

........................................................................
.............................. CYCLE    4 ..............................
........................................................................
   1    -58.4214605 -0.584215E+02  0.245E-02    1.20       0.0  T
   2    -58.4214739 -0.134351E-04  0.116E-02    1.21       1.5  T
   3    -58.4214763 -0.238824E-05  0.620E-03    1.21       2.8  T
   4    -58.4214766 -0.268510E-06  0.230E-03    1.21       7.6  T
   5    -58.4214766 -0.351934E-07  0.487E-04    1.21      35.7  T
   6    -58.4214766 -0.526677E-08  0.119E-04    1.21     145.8  T
   7    -58.4214766 -0.142869E-09  0.385E-05    1.21     451.6  T
     SCC iter.                  ...        0 min,  0.014 sec
     gradient                   ...        0 min,  0.055 sec
 * total energy  :   -57.8467582 Eh     change       -0.1411431E-02 Eh
   gradient norm :     0.0117728 Eh/α   predicted    -0.1065328E-02 ( -24.52%)
   displ. norm   :     0.1976318 α      lambda       -0.7901978E-03
   maximum displ.:     0.0909869 α      in ANC's #16, #18, #19, ...

........................................................................
.............................. CYCLE    5 ..............................
........................................................................
   1    -58.4209730 -0.584210E+02  0.213E-02    1.21       0.0  T
   2    -58.4209855 -0.124713E-04  0.108E-02    1.22       1.6  T
   3    -58.4209894 -0.388528E-05  0.479E-03    1.22       3.6  T
   4    -58.4209895 -0.127046E-06  0.194E-03    1.22       9.0  T
   5    -58.4209895 -0.521830E-08  0.311E-04    1.22      56.0  T
   6    -58.4209895 -0.267503E-08  0.103E-04    1.22     169.3  T
   7    -58.4209895 -0.940332E-10  0.391E-05    1.22     445.1  T
     SCC iter.                  ...        0 min,  0.014 sec
     gradient                   ...        0 min,  0.055 sec
 * total energy  :   -57.8472429 Eh     change       -0.4846055E-03 Eh
   gradient norm :     0.0053196 Eh/α   predicted    -0.4105596E-03 ( -15.28%)
   displ. norm   :     0.0948643 α      lambda       -0.1420649E-03
   maximum displ.:     0.0369281 α      in ANC's #3, #11, #4, ...

........................................................................
.............................. CYCLE    6 ..............................
........................................................................
   1    -58.4218001 -0.584218E+02  0.843E-03    1.22       0.0  T
   2    -58.4218018 -0.170766E-05  0.430E-03    1.22       4.1  T
   3    -58.4218022 -0.454996E-06  0.241E-03    1.22       7.2  T
   4    -58.4218023 -0.337598E-07  0.851E-04    1.22      20.5  T
   5    -58.4218023 -0.104558E-08  0.125E-04    1.22     139.6  T
   6    -58.4218023 -0.477499E-09  0.381E-05    1.22     456.9  T
     SCC iter.                  ...        0 min,  0.012 sec
     gradient                   ...        0 min,  0.054 sec
 * total energy  :   -57.8473467 Eh     change       -0.1038695E-03 Eh
   gradient norm :     0.0036401 Eh/α   predicted    -0.7167697E-04 ( -30.99%)
   displ. norm   :     0.1283549 α      lambda       -0.1185337E-03
   maximum displ.:     0.0594656 α      in ANC's #3, #6, #4, ...

........................................................................
.............................. CYCLE    7 ..............................
........................................................................
   1    -58.4227611 -0.584228E+02  0.749E-03    1.22       0.0  T
   2    -58.4227620 -0.862934E-06  0.374E-03    1.22       4.7  T
   3    -58.4227621 -0.866320E-07  0.239E-03    1.21       7.3  T
   4    -58.4227621 -0.521466E-07  0.738E-04    1.21      23.6  T
   5    -58.4227621 -0.282697E-08  0.118E-04    1.21     148.0  T
   6    -58.4227621 -0.372758E-09  0.332E-05    1.21     524.0  T
     SCC iter.                  ...        0 min,  0.012 sec
     gradient                   ...        0 min,  0.052 sec
 * total energy  :   -57.8474300 Eh     change       -0.8330897E-04 Eh
   gradient norm :     0.0026949 Eh/α   predicted    -0.6024593E-04 ( -27.68%)
   displ. norm   :     0.1314912 α      lambda       -0.7421903E-04
   maximum displ.:     0.0662248 α      in ANC's #3, #6, #4, ...

........................................................................
.............................. CYCLE    8 ..............................
........................................................................
   1    -58.4232514 -0.584233E+02  0.493E-03    1.21       0.0  T
   2    -58.4232517 -0.263903E-06  0.237E-03    1.21       7.4  T
   3    -58.4232517 -0.706976E-08  0.119E-03    1.21      14.6  T
   4    -58.4232517 -0.167959E-08  0.376E-04    1.21      46.3  T
   5    -58.4232517 -0.361587E-08  0.819E-05    1.21     212.6  T
   6    -58.4232517 -0.203499E-09  0.204E-05    1.21     853.9  T
     SCC iter.                  ...        0 min,  0.011 sec
     gradient                   ...        0 min,  0.052 sec
 * total energy  :   -57.8474828 Eh     change       -0.5274296E-04 Eh
   gradient norm :     0.0026914 Eh/α   predicted    -0.3776011E-04 ( -28.41%)
   displ. norm   :     0.1257257 α      lambda       -0.4997441E-04
   maximum displ.:     0.0675846 α      in ANC's #3, #6, #1, ...

........................................................................
.............................. CYCLE    9 ..............................
........................................................................
   1    -58.4233285 -0.584233E+02  0.389E-03    1.21       0.0  T
   2    -58.4233288 -0.290347E-06  0.188E-03    1.21       9.2  T
   3    -58.4233289 -0.676955E-07  0.102E-03    1.21      17.0  T
   4    -58.4233289 -0.861623E-08  0.358E-04    1.20      48.7  T
   5    -58.4233289 -0.780027E-09  0.719E-05    1.20     242.1  T
   6    -58.4233289 -0.891660E-10  0.204E-05    1.20     854.7  T
     SCC iter.                  ...        0 min,  0.012 sec
     gradient                   ...        0 min,  0.052 sec
 * total energy  :   -57.8475186 Eh     change       -0.3581042E-04 Eh
   gradient norm :     0.0024886 Eh/α   predicted    -0.2539092E-04 ( -29.10%)
   displ. norm   :     0.1072958 α      lambda       -0.3274673E-04
   maximum displ.:     0.0574595 α      in ANC's #3, #1, #6, ...

........................................................................
.............................. CYCLE   10 ..............................
........................................................................
   1    -58.4231428 -0.584231E+02  0.319E-03    1.20       0.0  T
   2    -58.4231430 -0.226826E-06  0.163E-03    1.20      10.7  T
   3    -58.4231431 -0.624231E-07  0.911E-04    1.20      19.1  T
   4    -58.4231431 -0.439214E-08  0.289E-04    1.20      60.1  T
   5    -58.4231431 -0.480327E-09  0.565E-05    1.20     307.9  T
   6    -58.4231431 -0.635509E-10  0.149E-05    1.20    1171.8  T
     SCC iter.                  ...        0 min,  0.011 sec
     gradient                   ...        0 min,  0.052 sec
 * total energy  :   -57.8475428 Eh     change       -0.2424254E-04 Eh
   gradient norm :     0.0017561 Eh/α   predicted    -0.1656281E-04 ( -31.68%)
   displ. norm   :     0.1396292 α      lambda       -0.2279387E-04
   maximum displ.:     0.0828389 α      in ANC's #1, #3, #2, ...

........................................................................
.............................. CYCLE   11 ..............................
........................................................................
   1    -58.4227963 -0.584228E+02  0.370E-03    1.20       0.0  T
   2    -58.4227965 -0.268486E-06  0.203E-03    1.20       8.6  T
   3    -58.4227966 -0.530438E-07  0.126E-03    1.20      13.8  T
   4    -58.4227966 -0.831974E-08  0.332E-04    1.20      52.4  T
   5    -58.4227966 -0.104531E-08  0.698E-05    1.20     249.5  T
   6    -58.4227966 -0.116607E-09  0.167E-05    1.20    1044.3  T
     SCC iter.                  ...        0 min,  0.011 sec
     gradient                   ...        0 min,  0.052 sec
 * total energy  :   -57.8475639 Eh     change       -0.2104713E-04 Eh
   gradient norm :     0.0013353 Eh/α   predicted    -0.1149791E-04 ( -45.37%)
   displ. norm   :     0.1401728 α      lambda        0.1190952E-04
   maximum displ.:     0.0831987 α      in ANC's #1, #3, #2, ...

........................................................................
.............................. CYCLE   12 ..............................
........................................................................
   1    -58.4222667 -0.584223E+02  0.379E-03    1.20       0.0  T
   2    -58.4222670 -0.293078E-06  0.212E-03    1.20       8.2  T
   3    -58.4222671 -0.589483E-07  0.130E-03    1.20      13.3  T
   4    -58.4222671 -0.826708E-08  0.346E-04    1.20      50.3  T
   5    -58.4222671 -0.112905E-08  0.706E-05    1.20     246.6  T
   6    -58.4222671 -0.129901E-09  0.165E-05    1.20    1053.7  T
     SCC iter.                  ...        0 min,  0.018 sec
     gradient                   ...        0 min,  0.050 sec
 * total energy  :   -57.8475581 Eh     change        0.5811315E-05 Eh
   gradient norm :     0.0030639 Eh/α   predicted     0.6006583E-05 (   3.36%)
   displ. norm   :     0.0475202 α      lambda       -0.2084189E-04
   maximum displ.:     0.0255264 α      in ANC's #3, #6, #4, ...

........................................................................
.............................. CYCLE   13 ..............................
........................................................................
   1    -58.4226622 -0.584227E+02  0.212E-03    1.20       0.0  T
   2    -58.4226623 -0.943700E-07  0.108E-03    1.20      16.1  T
   3    -58.4226623 -0.209054E-07  0.635E-04    1.20      27.4  T
   4    -58.4226623 -0.176627E-08  0.201E-04    1.20      86.5  T
   5    -58.4226623 -0.405187E-09  0.337E-05    1.20     516.0  T
   6    -58.4226623 -0.325926E-10  0.748E-06    1.20    2326.3  T
     SCC iter.                  ...        0 min,  0.011 sec
     gradient                   ...        0 min,  0.052 sec
 * total energy  :   -57.8475749 Eh     change       -0.1680242E-04 Eh
   gradient norm :     0.0021066 Eh/α   predicted    -0.1044545E-04 ( -37.83%)
   displ. norm   :     0.0664142 α      lambda       -0.3210719E-04
   maximum displ.:     0.0299384 α      in ANC's #4, #6, #3, ...

........................................................................
.............................. CYCLE   14 ..............................
........................................................................
   1    -58.4229903 -0.584230E+02  0.341E-03    1.20       0.0  T
   2    -58.4229905 -0.187603E-06  0.155E-03    1.20      11.2  T
   3    -58.4229905 -0.262590E-07  0.950E-04    1.20      18.3  T
   4    -58.4229905 -0.474465E-08  0.295E-04    1.20      59.0  T
   5    -58.4229905 -0.129616E-08  0.592E-05    1.20     294.1  T
   6    -58.4229905 -0.847038E-10  0.119E-05    1.20    1467.3  T
     SCC iter.                  ...        0 min,  0.011 sec
     gradient                   ...        0 min,  0.052 sec
 * total energy  :   -57.8475953 Eh     change       -0.2042294E-04 Eh
   gradient norm :     0.0007901 Eh/α   predicted    -0.1612660E-04 ( -21.04%)
   displ. norm   :     0.0926590 α      lambda       -0.1359134E-04
   maximum displ.:     0.0531298 α      in ANC's #2, #1, #4, ...

........................................................................
.............................. CYCLE   15 ..............................
........................................................................
   1    -58.4234617 -0.584235E+02  0.195E-03    1.20       0.0  T
   2    -58.4234618 -0.581427E-07  0.919E-04    1.20      18.9  T
   3    -58.4234618 -0.745333E-08  0.518E-04    1.20      33.6  T
   4    -58.4234618 -0.113636E-08  0.160E-04    1.20     108.5  T
   5    -58.4234618 -0.494815E-09  0.377E-05    1.20     461.5  T
     SCC iter.                  ...        0 min,  0.010 sec
     gradient                   ...        0 min,  0.052 sec
 * total energy  :   -57.8476096 Eh     change       -0.1428450E-04 Eh
   gradient norm :     0.0014670 Eh/α   predicted    -0.6822288E-05 ( -52.24%)
   displ. norm   :     0.1267940 α      lambda       -0.1581201E-04
   maximum displ.:     0.0817394 α      in ANC's #1, #2, #3, ...

........................................................................
.............................. CYCLE   16 ..............................
........................................................................
   1    -58.4231729 -0.584232E+02  0.199E-03    1.20       0.0  T
   2    -58.4231729 -0.640581E-07  0.102E-03    1.20      17.1  T
   3    -58.4231729 -0.188564E-07  0.552E-04    1.20      31.5  T
   4    -58.4231730 -0.309878E-08  0.140E-04    1.20     124.1  T
   5    -58.4231730 -0.289972E-10  0.327E-05    1.20     533.0  T
     SCC iter.                  ...        0 min,  0.010 sec
     gradient                   ...        0 min,  0.052 sec
 * total energy  :   -57.8476298 Eh     change       -0.2018929E-04 Eh
   gradient norm :     0.0012702 Eh/α   predicted    -0.7963675E-05 ( -60.55%)
   displ. norm   :     0.1923699 α      lambda       -0.2251091E-04
   maximum displ.:     0.1238047 α      in ANC's #1, #2, #3, ...

........................................................................
.............................. CYCLE   17 ..............................
........................................................................
   1    -58.4230258 -0.584230E+02  0.324E-03    1.20       0.0  T
   2    -58.4230260 -0.252216E-06  0.167E-03    1.20      10.4  T
   3    -58.4230261 -0.775115E-07  0.903E-04    1.20      19.3  T
   4    -58.4230261 -0.537172E-08  0.272E-04    1.20      64.0  T
   5    -58.4230261 -0.220538E-09  0.660E-05    1.20     263.7  T
   6    -58.4230261 -0.675797E-10  0.196E-05    1.20     889.8  T
     SCC iter.                  ...        0 min,  0.011 sec
     gradient                   ...        0 min,  0.052 sec
 * total energy  :   -57.8476535 Eh     change       -0.2378621E-04 Eh
   gradient norm :     0.0010096 Eh/α   predicted    -0.1144088E-04 ( -51.90%)
   displ. norm   :     0.1401865 α      lambda       -0.1216088E-04
   maximum displ.:     0.0914170 α      in ANC's #1, #2, #3, ...

........................................................................
.............................. CYCLE   18 ..............................
........................................................................
   1    -58.4229582 -0.584230E+02  0.171E-03    1.20       0.0  T
   2    -58.4229582 -0.178137E-07  0.925E-04    1.20      18.8  T
   3    -58.4229582 -0.655803E-09  0.405E-04    1.20      43.0  T
   4    -58.4229582 -0.956128E-09  0.922E-05    1.20     188.8  T
   5    -58.4229582 -0.150202E-09  0.305E-05    1.20     570.9  T
     SCC iter.                  ...        0 min,  0.010 sec
     gradient                   ...        0 min,  0.052 sec
 * total energy  :   -57.8476675 Eh     change       -0.1395359E-04 Eh
   gradient norm :     0.0009559 Eh/α   predicted    -0.6138108E-05 ( -56.01%)
   displ. norm   :     0.1386039 α      lambda       -0.1130067E-04
   maximum displ.:     0.0922403 α      in ANC's #1, #2, #3, ...

........................................................................
.............................. CYCLE   19 ..............................
........................................................................
   1    -58.4230257 -0.584230E+02  0.136E-03    1.20       0.0  T
   2    -58.4230258 -0.206588E-07  0.703E-04    1.20      24.7  T
   3    -58.4230258 -0.137199E-08  0.359E-04    1.20      48.4  T
   4    -58.4230258 -0.419178E-09  0.604E-05    1.20     288.3  T
   5    -58.4230258 -0.625420E-10  0.249E-05    1.20     698.5  T
     SCC iter.                  ...        0 min,  0.012 sec
     gradient                   ...        0 min,  0.052 sec
 * total energy  :   -57.8476821 Eh     change       -0.1454979E-04 Eh
   gradient norm :     0.0007875 Eh/α   predicted    -0.5701442E-05 ( -60.81%)
   displ. norm   :     0.2423610 α      lambda       -0.1911655E-04
   maximum displ.:     0.1640363 α      in ANC's #2, #1, #3, ...

........................................................................
.............................. CYCLE   20 ..............................
........................................................................
   1    -58.4229497 -0.584229E+02  0.208E-03    1.20       0.0  T
   2    -58.4229497 -0.316495E-07  0.107E-03    1.20      16.3  T
   3    -58.4229497 -0.135933E-08  0.434E-04    1.20      40.1  T
   4    -58.4229497 -0.644320E-09  0.847E-05    1.20     205.6  T
   5    -58.4229497 -0.111484E-09  0.281E-05    1.20     620.0  T
     SCC iter.                  ...        0 min,  0.007 sec
     gradient                   ...        0 min,  0.051 sec
 * total energy  :   -57.8477060 Eh     change       -0.2390143E-04 Eh
   gradient norm :     0.0010165 Eh/α   predicted    -0.9810428E-05 ( -58.95%)
   displ. norm   :     0.3539118 α      lambda       -0.2649004E-04
   maximum displ.:     0.2421352 α      in ANC's #2, #1, #3, ...
 * RMSD in coord.:     0.3841746 α      energy gain  -0.3347915E-01 Eh

generating ANC from model Hessian ...
Using Lindh-Hessian (1995)
 Shifting diagonal of input Hessian by   9.441092915835617E-003
 Lowest  eigenvalues of input Hessian
    0.000000    0.000000    0.000000    0.000000    0.000000    0.000000
    0.010000    0.010215    0.011396    0.011948    0.013366    0.014485
    0.014851    0.015164    0.016908    0.018301    0.018871    0.019501
 Highest eigenvalues
    1.936603    2.003407    2.092795    2.235440    2.311932    2.464150
 

........................................................................
.............................. CYCLE   21 ..............................
........................................................................
   1    -58.4225413 -0.584225E+02  0.334E-03    1.20       0.0  T
   2    -58.4225414 -0.170548E-06  0.176E-03    1.20       9.9  T
   3    -58.4225415 -0.237097E-07  0.993E-04    1.20      17.5  T
   4    -58.4225415 -0.130388E-07  0.239E-04    1.20      72.7  T
   5    -58.4225415 -0.364800E-09  0.599E-05    1.20     290.4  T
   6    -58.4225415 -0.433289E-10  0.221E-05    1.20     787.6  T
     SCC iter.                  ...        0 min,  0.012 sec
     gradient                   ...        0 min,  0.049 sec
 * total energy  :   -57.8477352 Eh     change       -0.2928671E-04 Eh
   gradient norm :     0.0017413 Eh/α   predicted     0.0000000E+00 (-100.00%)
   displ. norm   :     0.0276110 α      lambda       -0.1194734E-04
   maximum displ.:     0.0127411 α      in ANC's #12, #2, #5, ...

........................................................................
.............................. CYCLE   22 ..............................
........................................................................
   1    -58.4232320 -0.584232E+02  0.233E-03    1.20       0.0  T
   2    -58.4232320 -0.448332E-07  0.117E-03    1.20      14.9  T
   3    -58.4232320 -0.584535E-09  0.554E-04    1.20      31.4  T
   4    -58.4232320 -0.116578E-08  0.134E-04    1.20     129.6  T
   5    -58.4232320 -0.477186E-09  0.294E-05    1.20     592.9  T
     SCC iter.                  ...        0 min,  0.010 sec
     gradient                   ...        0 min,  0.055 sec
 * total energy  :   -57.8477469 Eh     change       -0.1167978E-04 Eh
   gradient norm :     0.0005589 Eh/α   predicted    -0.6019461E-05 ( -48.46%)
   displ. norm   :     0.0454002 α      lambda       -0.7790140E-05
   maximum displ.:     0.0236255 α      in ANC's #12, #2, #5, ...

........................................................................
.............................. CYCLE   23 ..............................
........................................................................
   1    -58.4233789 -0.584234E+02  0.118E-03    1.20       0.0  T
   2    -58.4233790 -0.273166E-07  0.533E-04    1.20      32.7  T
   3    -58.4233790 -0.237929E-08  0.312E-04    1.20      55.8  T
   4    -58.4233790 -0.487930E-09  0.114E-04    1.20     152.9  T
   5    -58.4233790 -0.194390E-09  0.242E-05    1.20     719.1  T
     SCC iter.                  ...        0 min,  0.010 sec
     gradient                   ...        0 min,  0.055 sec
 * total energy  :   -57.8477560 Eh     change       -0.9037400E-05 Eh
   gradient norm :     0.0008461 Eh/α   predicted    -0.3914411E-05 ( -56.69%)
   displ. norm   :     0.0838472 α      lambda       -0.1004526E-04
   maximum displ.:     0.0455459 α      in ANC's #12, #2, #5, ...

........................................................................
.............................. CYCLE   24 ..............................
........................................................................
   1    -58.4232102 -0.584232E+02  0.121E-03    1.19       0.0  T
   2    -58.4232102 -0.264600E-07  0.555E-04    1.19      31.4  T
   3    -58.4232102 -0.187288E-08  0.303E-04    1.19      57.4  T
   4    -58.4232102 -0.537739E-09  0.109E-04    1.19     160.1  T
   5    -58.4232102 -0.199528E-09  0.364E-05    1.19     478.3  T
     SCC iter.                  ...        0 min,  0.010 sec
     gradient                   ...        0 min,  0.055 sec
 * total energy  :   -57.8477659 Eh     change       -0.9986802E-05 Eh
   gradient norm :     0.0008997 Eh/α   predicted    -0.5053001E-05 ( -49.40%)
   displ. norm   :     0.0597037 α      lambda       -0.4682210E-05
   maximum displ.:     0.0318293 α      in ANC's #2, #12, #1, ...

........................................................................
.............................. CYCLE   25 ..............................
........................................................................
   1    -58.4231360 -0.584231E+02  0.792E-04    1.19       0.0  T
   2    -58.4231360 -0.593121E-08  0.393E-04    1.19      44.2  T
   3    -58.4231360 -0.222464E-09  0.180E-04    1.19      96.4  T
   4    -58.4231360 -0.120416E-09  0.611E-05    1.19     285.0  T
     SCC iter.                  ...        0 min,  0.008 sec
     gradient                   ...        0 min,  0.055 sec
 * total energy  :   -57.8477710 Eh     change       -0.5011689E-05 Eh
   gradient norm :     0.0005462 Eh/α   predicted    -0.2344995E-05 ( -53.21%)
   displ. norm   :     0.0522171 α      lambda       -0.3538741E-05
   maximum displ.:     0.0309257 α      in ANC's #2, #1, #12, ...

........................................................................
.............................. CYCLE   26 ..............................
........................................................................
   1    -58.4230886 -0.584231E+02  0.983E-04    1.19       0.0  T
   2    -58.4230886 -0.119064E-07  0.496E-04    1.19      35.1  T
   3    -58.4230886 -0.109181E-08  0.284E-04    1.19      61.3  T
   4    -58.4230886 -0.718750E-09  0.842E-05    1.19     206.8  T
   5    -58.4230886 -0.113353E-09  0.159E-05    1.19    1096.3  T
     SCC iter.                  ...        0 min,  0.010 sec
     gradient                   ...        0 min,  0.055 sec
 * total energy  :   -57.8477749 Eh     change       -0.3981084E-05 Eh
   gradient norm :     0.0003552 Eh/α   predicted    -0.1775309E-05 ( -55.41%)
   displ. norm   :     0.0510217 α      lambda       -0.3165022E-05
   maximum displ.:     0.0321563 α      in ANC's #2, #1, #12, ...

   *** GEOMETRY OPTIMIZATION CONVERGED AFTER 26 ITERATIONS ***

------------------------------------------------------------------------
 total energy gain   :        -0.0335481 Eh      -21.0518 kcal/mol
 total RMSD          :         0.3989506 a0        0.2111 Å
 total power (kW/mol):        -3.3877159 (step)  -36.8482 (real)
------------------------------------------------------------------------

 ANCopt (total)                0 d,  0 h,  0 min,  2.390 sec
 optimizer setup                ...        0 min,  0.001 sec (  0.029%)
 model hessian                  ...        0 min,  0.044 sec (  1.824%)
 ANC generation                 ...        0 min,  0.003 sec (  0.133%)
 coordinate transformation      ...        0 min,  0.001 sec (  0.026%)
 single point calculation       ...        0 min,  2.331 sec ( 97.501%)
 optimization log               ...        0 min,  0.006 sec (  0.244%)
 hessian update                 ...        0 min,  0.001 sec (  0.022%)
 rational function              ...        0 min,  0.003 sec (  0.121%)

================
 final structure:
================
33
 xtb: 6.5.1 (579679a)
C            1.69993380386208       -1.80854411421542       -1.33140567758994
O            2.62152859082163       -1.21668658901422       -0.39857644017751
C            2.37780329882826       -0.28311826971466        0.45658584571968
O            3.37155860772901        0.11071001529065        1.17370342649718
C            4.67156497644552       -0.48344770866725        1.00480872552838
C            1.09828621777618        0.35587082414597        0.67429034166309
N            0.04329686525926       -0.13692279109804       -0.05345285665324
C           -1.13802881933535        0.37087626864504        0.06257487097754
C           -2.26612684116294       -0.18561338065046       -0.77697709844855
C           -3.56093725807379       -0.31328628906686        0.04177089698122
C           -2.47238300146586        0.74673379256462       -1.98042396546557
N           -1.83444105578635       -1.48710503205335       -1.27020606657247
N           -1.38515215593232        1.42901806317059        0.89304584904456
C           -0.42845256609088        2.00533425909134        1.68479042359494
O           -0.64147598183889        2.93809795272505        2.43588629891578
C            0.90792568355943        1.40242710735949        1.55375353759133
O            1.85523015649865        1.93311890338378        2.30112127796021
H            1.27733733645329       -1.04137117377996       -1.97969180094177
H            0.89658663368278       -2.31295918238068       -0.79553520445297
H            2.29153641212921       -2.52088419789471       -1.90555734178260
H            4.60626243892877       -1.55792059879026        1.17839486191593
H            5.31341998726568       -0.00676716318749        1.74224678330922
H            5.02879082029194       -0.29252247951315       -0.00766991305054
H           -3.95354225285749        0.66722626396605        0.30709193301268
H           -3.37725998918420       -0.88303435785091        0.95101351129217
H           -4.30805398975461       -0.83411320183226       -0.55459414478404
H           -1.56096324221656        0.78331240793212       -2.57601488539943
H           -2.72132043501829        1.75146154734270       -1.64350122977946
H           -3.28541789916539        0.36719057498367       -2.59716647355657
H           -1.75859014210847       -2.12796962700654       -0.49028486532238
H           -2.53649679279305       -1.84987395973264       -1.90179323151162
H           -2.31485306838526        1.81939073204751        0.96228121821646
H            1.48243466163777        2.66137540380040        2.83949239326690
 
 Bond Distances (Angstroems)
 ---------------------------
C1-O2=1.4387         C1-H18=1.0897        C1-H19=1.0895        C1-H20=1.0895        O2-C1=1.4387         O2-C3=1.2893         
C3-O2=1.2893         C3-O4=1.2872         C3-C6=1.4467         O4-C3=1.2872         O4-C5=1.4393         C5-O4=1.4393         
C5-H21=1.0904        C5-H22=1.0877        C5-H23=1.0905        C6-C3=1.4467         C6-N7=1.3731         C6-C16=1.3802        
N7-C6=1.3731         N7-C8=1.2911         C8-N7=1.2911         C8-C9=1.5123         C8-N13=1.3676        C9-C8=1.5123         
C9-C10=1.5373        C9-C11=1.5363        C9-N12=1.4572        C10-C9=1.5373        C10-H24=1.0890       C10-H25=1.0886       
C10-H26=1.0886       C11-C9=1.5363        C11-H27=1.0894       C11-H28=1.0886       C11-H29=1.0888       N12-C9=1.4572        
N12-H30=1.0123       N12-H31=1.0116       N13-C8=1.3676        N13-C14=1.3690       N13-H32=1.0107       C14-N13=1.3690       
C14-O15=1.2164       C14-C16=1.4719       O15-C14=1.2164       C16-C6=1.3802        C16-C14=1.4719       C16-O17=1.3182       
O17-C16=1.3182       O17-H33=0.9794       H18-C1=1.0897        H19-C1=1.0895        H20-C1=1.0895        H21-C5=1.0904        
H22-C5=1.0877        H23-C5=1.0905        H24-C10=1.0890       H25-C10=1.0886       H26-C10=1.0886       H27-C11=1.0894       
H28-C11=1.0886       H29-C11=1.0888       H30-N12=1.0123       H31-N12=1.0116       H32-N13=1.0107       H33-O17=0.9794       
 C  H  Rav=1.0892 sigma=0.0008  Rmin=1.0877  Rmax=1.0905    12
 C  C  Rav=1.4808 sigma=0.0557  Rmin=1.3802  Rmax=1.5373     6
 N  H  Rav=1.0115 sigma=0.0007  Rmin=1.0107  Rmax=1.0123     3
 N  C  Rav=1.3716 sigma=0.0526  Rmin=1.2911  Rmax=1.4572     5
 O  H  Rav=0.9794 sigma=0.0000  Rmin=0.9794  Rmax=0.9794     1
 O  C  Rav=1.3315 sigma=0.0819  Rmin=1.2164  Rmax=1.4393     6
 
 selected bond angles (degree)
 --------------------
H18-C1-O2=110.15               H19-C1-O2=110.11               H19-C1-H18=109.43              H20-C1-O2=105.24               
H20-C1-H18=110.94              H20-C1-H19=110.91              C3-O2-C1=127.36                O4-C3-O2=116.43                
C6-C3-O2=125.93                C6-C3-O4=117.64                C5-O4-C3=120.37                H21-C5-O4=109.51               
H22-C5-O4=105.82               H22-C5-H21=111.06              H23-C5-O4=109.42               H23-C5-H21=109.87              
H23-C5-H22=111.07              N7-C6-C3=116.18                C16-C6-C3=123.56               C16-C6-N7=120.26               
C8-N7-C6=120.95                C9-C8-N7=119.20                N13-C8-N7=121.62               N13-C8-C9=119.14               
C10-C9-C8=111.30               C11-C9-C8=108.16               C11-C9-C10=110.77              N12-C9-C8=107.19               
N12-C9-C10=110.83              N12-C9-C11=108.46              H24-C10-C9=111.02              H25-C10-C9=110.25              
H25-C10-H24=109.18             H26-C10-C9=109.03              H26-C10-H24=108.47             H26-C10-H25=108.84             
 
 selected dihedral angles (degree)
 ---------------------------------
C3-O2-C1-H18= 57.80           C3-O2-C1-H19=297.02           C3-O2-C1-H20=177.44           O4-C3-O2-C1=181.41            
C6-C3-O2-C1=  1.21            C5-O4-C3-O2=359.90            C5-O4-C3-C6=180.08            H21-C5-O4-C3=301.75           
H22-C5-O4-C3=181.98           H23-C5-O4-C3= 62.24           N7-C6-C3-O2=  3.67            N7-C6-C3-O4=183.47            
C16-C6-C3-O2=183.65           C16-C6-C3-O4=  3.45           C8-N7-C6-C3=180.45            C8-N7-C6-C16=  0.47           
C9-C8-N7-C6=178.87            N13-C8-N7-C6=  1.09           C10-C9-C8-N7=138.45           C10-C9-C8-N13=316.29          
C11-C9-C8-N7=260.35           C11-C9-C8-N13= 78.18          N12-C9-C8-N7= 17.11           N12-C9-C8-N13=194.95          
H24-C10-C9-C8= 67.85          H24-C10-C9-C11=307.48         H24-C10-C9-N12=187.04         H25-C10-C9-C8=306.72          
H25-C10-C9-C11=186.35         H25-C10-C9-N12= 65.91         H26-C10-C9-C8=187.29          H26-C10-C9-C11= 66.92         
H26-C10-C9-N12=306.48         
           -------------------------------------------------
          |                Final Singlepoint                |
           -------------------------------------------------

          ...................................................
          :                      SETUP                      :
          :.................................................:
          :  # basis functions                 100          :
          :  # atomic orbitals                 100          :
          :  # shells                           66          :
          :  # electrons                        94          :
          :  # halogen bonds                     0          :
          :  max. iterations                   250          :
          :  Hamiltonian                  GFN1-xTB          :
          :  restarted?                      false          :
          :  GBSA solvation                   true          :
          :  PC potential                    false          :
          :  electronic temp.          300.0000000     K    :
          :  accuracy                    1.0000000          :
          :  -> integral cutoff          0.2500000E+02      :
          :  -> integral neglect         0.1000000E-07      :
          :  -> SCF convergence          0.1000000E-05 Eh   :
          :  -> wf. convergence          0.2000000E-04 e    :
          :  Broyden damping             0.4000000          :
          ...................................................

 iter      E             dE          RMSdq      gap      omega  full diag
   1    -58.4230886 -0.584231E+02  0.525E-06    1.19       0.0  T
   2    -58.4230886 -0.923706E-13  0.251E-06    1.19    6944.1  T
   3    -58.4230886 -0.142109E-13  0.835E-07    1.19   20859.6  T

   *** convergence criteria satisfied after 3 iterations ***

         #    Occupation            Energy/Eh            Energy/eV
      -------------------------------------------------------------
         1        2.0000           -0.9117323             -24.8095
       ...           ...                  ...                  ...
        41        2.0000           -0.5129320             -13.9576
        42        2.0000           -0.5102707             -13.8852
        43        2.0000           -0.4995234             -13.5927
        44        2.0000           -0.4888556             -13.3024
        45        2.0000           -0.4751351             -12.9291
        46        2.0000           -0.4609903             -12.5442
        47        2.0000           -0.4243264             -11.5465 (HOMO)
        48                         -0.3804368             -10.3522 (LUMO)
        49                         -0.3105830              -8.4514
        50                         -0.2892898              -7.8720
        51                         -0.1955113              -5.3201
        52                         -0.1686200              -4.5884
       ...                                ...                  ...
       100                          0.6899719              18.7751
      -------------------------------------------------------------
                  HL-Gap            0.0438896 Eh            1.1943 eV
             Fermi-level           -0.4023816 Eh          -10.9494 eV

 SCC (total)                   0 d,  0 h,  0 min,  0.087 sec
 SCC setup                      ...        0 min,  0.001 sec (  1.644%)
 Dispersion                     ...        0 min,  0.000 sec (  0.256%)
 classical contributions        ...        0 min,  0.000 sec (  0.089%)
 integral evaluation            ...        0 min,  0.024 sec ( 27.179%)
 iterations                     ...        0 min,  0.007 sec (  7.528%)
 molecular gradient             ...        0 min,  0.055 sec ( 62.629%)
 printout                       ...        0 min,  0.001 sec (  0.615%)

         :::::::::::::::::::::::::::::::::::::::::::::::::::::
         ::                     SUMMARY                     ::
         :::::::::::::::::::::::::::::::::::::::::::::::::::::
         :: total energy             -57.847774937847 Eh    ::
         :: total w/o Gsasa/hb       -57.825392116113 Eh    ::
         :: gradient norm              0.000356738909 Eh/a0 ::
         :: HOMO-LUMO gap              1.194298063332 eV    ::
         ::.................................................::
         :: SCC energy               -58.423088639820 Eh    ::
         :: -> electrostatic           0.280038648781 Eh    ::
         :: -> Gsolv                  -0.090423763411 Eh    ::
         ::    -> Gelec               -0.068040941677 Eh    ::
         ::    -> Gsasa               -0.018904495268 Eh    ::
         ::    -> Ghb                 -0.011102605470 Eh    ::
         ::    -> Gshift               0.007624279005 Eh    ::
         :: repulsion energy           0.594184894595 Eh    ::
         :: dispersion energy         -0.018871192622 Eh    ::
         :: halogen bond corr.         0.000000000000 Eh    ::
         :: add. restraining           0.000000000000 Eh    ::
         :: total charge               1.000000000000 e     ::
         :::::::::::::::::::::::::::::::::::::::::::::::::::::

           -------------------------------------------------
          |                Property Printout                |
           -------------------------------------------------

    * Orbital Energies and Occupations

         #    Occupation            Energy/Eh            Energy/eV
      -------------------------------------------------------------
         1        2.0000           -0.9117323             -24.8095
       ...           ...                  ...                  ...
        35        2.0000           -0.5483369             -14.9210
        36        2.0000           -0.5468135             -14.8796
        37        2.0000           -0.5377637             -14.6333
        38        2.0000           -0.5311259             -14.4527
        39        2.0000           -0.5261823             -14.3181
        40        2.0000           -0.5176728             -14.0866
        41        2.0000           -0.5129320             -13.9576
        42        2.0000           -0.5102707             -13.8852
        43        2.0000           -0.4995234             -13.5927
        44        2.0000           -0.4888556             -13.3024
        45        2.0000           -0.4751351             -12.9291
        46        2.0000           -0.4609903             -12.5442
        47        2.0000           -0.4243264             -11.5465 (HOMO)
        48                         -0.3804368             -10.3522 (LUMO)
        49                         -0.3105830              -8.4514
        50                         -0.2892898              -7.8720
        51                         -0.1955113              -5.3201
        52                         -0.1686200              -4.5884
        53                         -0.1582534              -4.3063
        54                         -0.1471980              -4.0055
        55                         -0.1327922              -3.6135
        56                         -0.1222716              -3.3272
        57                         -0.1209309              -3.2907
        58                         -0.1065292              -2.8988
       ...                                ...                  ...
       100                          0.6899719              18.7751
      -------------------------------------------------------------
                  HL-Gap            0.0438896 Eh            1.1943 eV
             Fermi-level           -0.4023816 Eh          -10.9494 eV

  Mulliken/CM5 charges         n(s)   n(p)   n(d)
     1C     0.16214  0.04233   0.996  2.842  0.000
     2O    -0.35063 -0.44276   1.659  4.692  0.000
     3C     0.57511  0.63761   0.977  2.448  0.000
     4O    -0.33826 -0.42567   1.664  4.675  0.000
     5C     0.15342  0.03185   0.994  2.852  0.000
     6C     0.08390  0.16018   1.020  2.896  0.000
     7N    -0.37516 -0.56764   1.519  3.856  0.000
     8C     0.30008  0.45087   1.029  2.671  0.000
     9C     0.14440  0.17942   1.064  2.791  0.000
    10C    -0.12567 -0.26775   1.027  3.098  0.000
    11C    -0.10632 -0.24684   1.022  3.084  0.000
    12N    -0.51504 -0.96735   1.472  4.043  0.000
    13N    -0.27910 -0.62696   1.437  3.842  0.000
    14C     0.45720  0.55991   0.979  2.563  0.000
    15O    -0.54922 -0.59606   1.722  4.827  0.000
    16C     0.26661  0.30184   1.034  2.699  0.000
    17O    -0.47475 -0.66656   1.693  4.781  0.000
    18H     0.07019  0.13577   0.930  0.000  0.000
    19H     0.07282  0.13938   0.927  0.000  0.000
    20H     0.08236  0.14292   0.918  0.000  0.000
    21H     0.07908  0.14168   0.921  0.000  0.000
    22H     0.08588  0.14645   0.914  0.000  0.000
    23H     0.07924  0.14141   0.921  0.000  0.000
    24H     0.04891  0.10466   0.951  0.000  0.000
    25H     0.05209  0.10817   0.948  0.000  0.000
    26H     0.06375  0.11923   0.936  0.000  0.000
    27H     0.04851  0.10544   0.951  0.000  0.000
    28H     0.04503  0.10045   0.955  0.000  0.000
    29H     0.06102  0.11624   0.939  0.000  0.000
    30H     0.21978  0.41237   0.780  0.000  0.000
    31H     0.23068  0.42086   0.769  0.000  0.000
    32H     0.29704  0.49645   0.703  0.000  0.000
    33H     0.43489  0.61210   0.565  0.000  0.000

Wiberg/Mayer (AO) data.
largest (>0.10) Wiberg bond orders for each atom

 ---------------------------------------------------------------------------
     #   Z sym  total        # sym  WBO       # sym  WBO       # sym  WBO
 ---------------------------------------------------------------------------
     1   6 C    3.813 --    20 H    0.980    18 H    0.972    19 H    0.970
                             2 O    0.847
     2   8 O    2.305 --     3 C    1.251     1 C    0.847
     3   6 C    3.815 --     4 O    1.260     2 O    1.251     6 C    1.117
     4   8 O    2.309 --     3 C    1.260     5 C    0.855
     5   6 C    3.825 --    22 H    0.982    21 H    0.973    23 H    0.972
                             4 O    0.855
     6   6 C    3.958 --    16 C    1.424     7 N    1.160     3 C    1.117
     7   7 N    3.036 --     8 C    1.578     6 C    1.160
     8   6 C    3.907 --     7 N    1.578    13 N    1.161     9 C    0.982
     9   6 C    3.965 --    12 N    0.993     8 C    0.982    10 C    0.980
                            11 C    0.973
    10   6 C    3.991 --    25 H    0.985    26 H    0.981     9 C    0.980
                            24 H    0.980
    11   6 C    3.991 --    28 H    0.986    27 H    0.985    29 H    0.981
                             9 C    0.973
    12   7 N    2.956 --     9 C    0.993    30 H    0.942    31 H    0.938
    13   7 N    3.477 --     8 C    1.161    14 C    1.156    32 H    0.873
                            15 O    0.143
    14   6 C    3.915 --    15 O    1.605    13 N    1.156    16 C    1.032
    15   8 O    1.932 --    14 C    1.605    13 N    0.143
    16   6 C    3.912 --     6 C    1.424    17 O    1.170    14 C    1.032
    17   8 O    2.143 --    16 C    1.170    33 H    0.783
    18   1 H    1.016 --     1 C    0.972
    19   1 H    1.020 --     1 C    0.970
    20   1 H    1.003 --     1 C    0.980
    21   1 H    0.999 --     5 C    0.973
    22   1 H    1.002 --     5 C    0.982
    23   1 H    0.998 --     5 C    0.972
    24   1 H    0.998 --    10 C    0.980
    25   1 H    1.000 --    10 C    0.985
    26   1 H    1.000 --    10 C    0.981
    27   1 H    1.004 --    11 C    0.985
    28   1 H    1.000 --    11 C    0.986
    29   1 H    0.997 --    11 C    0.981
    30   1 H    0.959 --    12 N    0.942
    31   1 H    0.952 --    12 N    0.938
    32   1 H    0.920 --    13 N    0.873
    33   1 H    0.824 --    17 O    0.783
 ---------------------------------------------------------------------------

Topologies differ in total number of bonds
Writing topology from bond orders to xtbtopo.mol

 dipole moment from electron density (au)
     X       Y       Z   
   0.9859  -0.9478   0.0502  total (Debye):    3.478

           -------------------------------------------------
          |                Geometry Summary                 |
           -------------------------------------------------

      molecular mass/u    :      242.2521403
   center of mass at/Å    :        0.3159564       0.3046256       0.3811272
  moments of inertia/u·Å² :        0.7649603E+03   0.1388756E+04   0.2036036E+04
rotational constants/cm⁻¹ :        0.2203726E-01   0.1213866E-01   0.8279635E-02

 * 30 selected distances

     #   Z          #   Z                                           value/Å
     1   6 C        2   8 O                                       1.4386810
     2   8 O        3   6 C                                       1.2892846
     3   6 C        4   8 O                                       1.2872095
     4   8 O        5   6 C                                       1.4392935
     6   6 C        7   7 N                                       1.3731200
     7   7 N        8   6 C                                       1.2910666
     9   6 C       10   6 C                                       1.5372648 (max)
     9   6 C       11   6 C                                       1.5362609
     9   6 C       12   7 N                                       1.4572263
     8   6 C       13   7 N                                       1.3676317
    13   7 N       14   6 C                                       1.3690414
    14   6 C       15   8 O                                       1.2163767
     6   6 C       16   6 C                                       1.3802076
    16   6 C       17   8 O                                       1.3181724
     1   6 C       18   1 H                                       1.0896867
     1   6 C       19   1 H                                       1.0894763
     1   6 C       20   1 H                                       1.0895285
     5   6 C       21   1 H                                       1.0903618
     5   6 C       22   1 H                                       1.0876660
     5   6 C       23   1 H                                       1.0904934
    10   6 C       24   1 H                                       1.0890083
    10   6 C       25   1 H                                       1.0886104
    10   6 C       26   1 H                                       1.0886209
    11   6 C       27   1 H                                       1.0893818
    11   6 C       28   1 H                                       1.0885609
    11   6 C       29   1 H                                       1.0887839
    12   7 N       30   1 H                                       1.0122935
    12   7 N       31   1 H                                       1.0116255
    13   7 N       32   1 H                                       1.0107068
    17   8 O       33   1 H                                       0.9793762 (min)

 * 6 distinct bonds (by element types)

   Z      Z             #   av. dist./Å        max./Å        min./Å
   1 H    6 C          12     1.0891816     1.0904934     1.0876660
   6 C    6 C           3     1.4845778     1.5372648     1.3802076
   1 H    7 N           3     1.0115419     1.0122935     1.0107068
   6 C    7 N           5     1.3716172     1.4572263     1.2910666
   1 H    8 O           1     0.9793762     0.9793762     0.9793762
   6 C    8 O           6     1.3315029     1.4392935     1.2163767


optimized geometry written to: xtbopt.xyz


           -------------------------------------------------
          | TOTAL ENERGY              -57.847774937847 Eh   |
          | GRADIENT NORM               0.000356738909 Eh/α |
          | HOMO-LUMO GAP               1.194298063332 eV   |
           -------------------------------------------------

------------------------------------------------------------------------
 * finished run on 2023/06/20 at 15:03:31.276     
------------------------------------------------------------------------
 total:
 * wall-time:     0 d,  0 h,  0 min,  2.685 sec
 *  cpu-time:     0 d,  0 h,  0 min,  2.609 sec
 * ratio c/w:     0.972 speedup
 SCF:
 * wall-time:     0 d,  0 h,  0 min,  0.110 sec
 *  cpu-time:     0 d,  0 h,  0 min,  0.100 sec
 * ratio c/w:     0.906 speedup
 ANC optimizer:
 * wall-time:     0 d,  0 h,  0 min,  2.484 sec
 *  cpu-time:     0 d,  0 h,  0 min,  2.468 sec
 * ratio c/w:     0.994 speedup

