      -----------------------------------------------------------      
     |                   =====================                   |     
     |                           x T B                           |     
     |                   =====================                   |     
     |                         S. Grimme                         |     
     |          Mulliken Center for Theoretical Chemistry        |     
     |                    University of Bonn                     |     
      -----------------------------------------------------------      

   * xtb version 6.5.1 (579679a) compiled by 'ehlert@majestix' on 2022-07-11

   xtb is free software: you can redistribute it and/or modify it under
   the terms of the GNU Lesser General Public License as published by
   the Free Software Foundation, either version 3 of the License, or
   (at your option) any later version.
   
   xtb is distributed in the hope that it will be useful,
   but WITHOUT ANY WARRANTY; without even the implied warranty of
   MERCHANTABILITY or FITNESS FOR A PARTICULAR PURPOSE.  See the
   GNU Lesser General Public License for more details.
   
   Cite this work as:
   * C. Bannwarth, E. Caldeweyher, S. Ehlert, A. Hansen, P. Pracht,
     J. Seibert, S. Spicher, S. Grimme, WIREs Comput. Mol. Sci., 2020, 11,
     e01493. DOI: 10.1002/wcms.1493
   
   for GFN2-xTB:
   * C. Bannwarth, S. Ehlert and S. Grimme., J. Chem. Theory Comput., 2019,
     15, 1652-1671. DOI: 10.1021/acs.jctc.8b01176
   for GFN1-xTB:
   * S. Grimme, C. Bannwarth, P. Shushkov, J. Chem. Theory Comput., 2017,
     13, 1989-2009. DOI: 10.1021/acs.jctc.7b00118
   for GFN0-xTB:
   * P. Pracht, E. Caldeweyher, S. Ehlert, S. Grimme, ChemRxiv, 2019, preprint.
     DOI: 10.26434/chemrxiv.8326202.v1
   for GFN-FF:
   * S. Spicher and S. Grimme, Angew. Chem. Int. Ed., 2020, 59, 15665-15673.
     DOI: 10.1002/anie.202004239
   
   for ALPB and GBSA implicit solvation:
   * S. Ehlert, M. Stahn, S. Spicher, S. Grimme, J. Chem. Theory Comput.,
     2021, 17, 4250-4261. DOI: 10.1021/acs.jctc.1c00471
   
   for DFT-D4:
   * E. Caldeweyher, C. Bannwarth and S. Grimme, J. Chem. Phys., 2017,
     147, 034112. DOI: 10.1063/1.4993215
   * E. Caldeweyher, S. Ehlert, A. Hansen, H. Neugebauer, S. Spicher,
     C. Bannwarth and S. Grimme, J. Chem. Phys., 2019, 150, 154122.
     DOI: 10.1063/1.5090222
   * E. Caldeweyher, J.-M. Mewes, S. Ehlert and S. Grimme, Phys. Chem. Chem. Phys.
     2020, 22, 8499-8512. DOI: 10.1039/D0CP00502A
   
   for sTDA-xTB:
   * S. Grimme and C. Bannwarth, J. Chem. Phys., 2016, 145, 054103.
     DOI: 10.1063/1.4959605
   
   in the mass-spec context:
   * V. Asgeirsson, C. Bauer and S. Grimme, Chem. Sci., 2017, 8, 4879.
     DOI: 10.1039/c7sc00601b
   * J. Koopman and S. Grimme, ACS Omega 2019, 4, 12, 15120-15133.
     DOI: 10.1021/acsomega.9b02011
   
   for metadynamics refer to:
   * S. Grimme, J. Chem. Theory Comput., 2019, 155, 2847-2862
     DOI: 10.1021/acs.jctc.9b00143
   
   for SPH calculations refer to:
   * S. Spicher and S. Grimme, J. Chem. Theory Comput., 2021, 17, 1701-1714
     DOI: 10.1021/acs.jctc.0c01306
   
   with help from (in alphabetical order)
   P. Atkinson, C. Bannwarth, F. Bohle, G. Brandenburg, E. Caldeweyher
   M. Checinski, S. Dohm, S. Ehlert, S. Ehrlich, I. Gerasimov, C. Hölzer
   A. Katbashev, J. Koopman, C. Lavigne, S. Lehtola, F. März, M. Müller,
   F. Musil, H. Neugebauer, J. Pisarek, C. Plett, P. Pracht, F. Pultar,
   J. Seibert, P. Shushkov, S. Spicher, M. Stahn, M. Steiner, T. Strunk,
   J. Stückrath, T. Rose, and J. Unsleber
   
 * started run on 2023/06/21 at 17:15:03.972     

           -------------------------------------------------
          |                Calculation Setup                |
           -------------------------------------------------

          program call               : /lustre/hpc/kemi/ree/PhD/git/ReactivityQM/dep/xtb-6.5.1/bin/xtb --gfn 1 /lustre/hpc/kemi/ree/PhD/git/ReactivityQM/calculations/R02methylcation/reac01prodE06/conf20/R02methylcation_reac01prodE06_conf20_gfn1.xyz --opt --vfukui --chrg -2 --uhf 0 --alpb DMSO
          hostname                   : node317
          coordinate file            : /lustre/hpc/kemi/ree/PhD/git/ReactivityQM/calculations/R02methylcation/reac01prodE06/conf20/R02methylcation_reac01prodE06_conf20_gfn1.xyz
          omp threads                :                     1

   ID    Z sym.   atoms
    1    6 C      1, 3, 5, 6, 8, 11-15, 17, 19, 22, 23
    2    8 O      2, 4, 7, 9, 18, 24
    3    7 N      10, 16, 20, 21, 25
    4    1 H      26-42

           -------------------------------------------------
          |                 G F N 1 - x T B                 |
           -------------------------------------------------

        Reference                      10.1021/acs.jctc.7b00118
      * Hamiltonian:
        H0-scaling (s, p, d)           1.850000    2.250000    2.000000
        zeta-weighting                 0.000000
      * Dispersion:
        s8                             2.400000
        a1                             0.630000
        a2                             5.000000
        s9                             0.000000
      * Repulsion:
        kExp                           1.500000
        rExp                           1.000000
      * Coulomb:
        alpha                          2.000000
        third order                    atomic
        anisotropic                    false
      * Halogen bond correction:
        rad-scale                      1.300000
        damping                        0.440000

      * Solvation model:               ALPB
        Solvent                        DMSO
        Parameter file                 internal GFN1-xTB/ALPB
        Dielectric constant                4.6680E+01
        Reference state                gsolv [1 M gas/solution]
        Free energy shift                  7.6243E-03 Eh       4.7843E+00 kcal/mol
        Temperature                        2.9815E+02 K
        Density                            1.1000E+00 kg/L
        Solvent mass                       7.8130E+01 g/mol
        Interaction kernel             P16
        Born radius scaling (c1)           1.7672E+00
        Born radii integrator          GBOBC
        Born offset                        0.0000E+00 a0       0.0000E+00 AA
        H-bond correction              true
        Ion screening                  false
        Surface tension                    1.0000E-05 Eh       1.5569E+01 dyn/cm
        Grid points                               230 per atom

          ...................................................
          :                      SETUP                      :
          :.................................................:
          :  # basis functions                 134          :
          :  # atomic orbitals                 134          :
          :  # shells                           84          :
          :  # electrons                       136          :
          :  # halogen bonds                     0          :
          :  max. iterations                   250          :
          :  Hamiltonian                  GFN1-xTB          :
          :  restarted?                      false          :
          :  GBSA solvation                   true          :
          :  PC potential                    false          :
          :  electronic temp.          300.0000000     K    :
          :  accuracy                    1.0000000          :
          :  -> integral cutoff          0.2500000E+02      :
          :  -> integral neglect         0.1000000E-07      :
          :  -> SCF convergence          0.1000000E-05 Eh   :
          :  -> wf. convergence          0.2000000E-04 e    :
          :  Broyden damping             0.4000000          :
          ...................................................

 iter      E             dE          RMSdq      gap      omega  full diag
   1    -83.9927079 -0.839927E+02  0.866E+00    1.44       0.0  T
   2    -84.0255830 -0.328751E-01  0.544E+00    0.46       1.0  T
   3    -84.0530771 -0.274941E-01  0.304E+00    0.22       1.0  T
   4    -84.2590257 -0.205949E+00  0.116E+00    1.09       1.0  T
   5    -84.2745882 -0.155624E-01  0.840E-01    1.02       1.0  T
   6    -84.3030091 -0.284210E-01  0.460E-01    0.20       1.0  T
   7    -84.0505182  0.252491E+00  0.156E+00    0.82       1.0  T
   8    -84.3011287 -0.250610E+00  0.499E-01    0.30       1.0  T
   9    -84.3235448 -0.224161E-01  0.184E-01    0.04       1.0  T
  10    -84.3085182  0.150266E-01  0.401E-01    0.18       1.0  T
  11    -84.3216640 -0.131458E-01  0.224E-01    0.04       1.0  T
  12    -84.3223629 -0.698897E-03  0.214E-01    0.11       1.0  T
  13    -84.3271302 -0.476736E-02  0.912E-02    0.05       1.0  T
  14    -84.3281268 -0.996530E-03  0.252E-02    0.07       1.0  T
  15    -84.3281392 -0.124162E-04  0.229E-02    0.06       1.0  T
  16    -84.3282063 -0.671371E-04  0.296E-03    0.07       5.2  T
  17    -84.3282043  0.206921E-05  0.495E-03    0.06       3.1  T
  18    -84.3282074 -0.316659E-05  0.805E-05    0.07     191.6  T
  19    -84.3282074 -0.834689E-09  0.866E-06    0.07    1781.2  T
  20    -84.3282074  0.520288E-09  0.643E-05    0.07     240.1  T

   *** convergence criteria satisfied after 20 iterations ***

         #    Occupation            Energy/Eh            Energy/eV
      -------------------------------------------------------------
         1        2.0000           -0.8132386             -22.1293
       ...           ...                  ...                  ...
        62        2.0000           -0.4003180             -10.8932
        63        2.0000           -0.3940473             -10.7226
        64        2.0000           -0.3898811             -10.6092
        65        2.0000           -0.3829935             -10.4218
        66        2.0000           -0.3658492              -9.9553
        67        2.0000           -0.3301061              -8.9826
        68        1.5611           -0.2700665              -7.3489 (HOMO)
        69        0.4389           -0.2676554              -7.2833 (LUMO)
        70                         -0.2361577              -6.4262
        71                         -0.2193729              -5.9694
        72                         -0.1630319              -4.4363
        73                         -0.1516241              -4.1259
       ...                                ...                  ...
       134                          0.7957302              21.6529
      -------------------------------------------------------------
                  HL-Gap            0.0024111 Eh            0.0656 eV
             Fermi-level           -0.2688610 Eh           -7.3161 eV

 SCC (total)                   0 d,  0 h,  0 min,  0.191 sec
 SCC setup                      ...        0 min,  0.002 sec (  1.139%)
 Dispersion                     ...        0 min,  0.000 sec (  0.216%)
 classical contributions        ...        0 min,  0.000 sec (  0.067%)
 integral evaluation            ...        0 min,  0.034 sec ( 17.921%)
 iterations                     ...        0 min,  0.069 sec ( 36.188%)
 molecular gradient             ...        0 min,  0.084 sec ( 43.933%)
 printout                       ...        0 min,  0.001 sec (  0.509%)

         :::::::::::::::::::::::::::::::::::::::::::::::::::::
         ::                     SUMMARY                     ::
         :::::::::::::::::::::::::::::::::::::::::::::::::::::
         :: total energy             -83.604702862034 Eh    ::
         :: total w/o Gsasa/hb       -83.585946860969 Eh    ::
         :: gradient norm              0.125108695518 Eh/a0 ::
         :: HOMO-LUMO gap              0.065609068304 eV    ::
         ::.................................................::
         :: SCC energy               -84.328207421288 Eh    ::
         :: -> electrostatic           0.684642259382 Eh    ::
         :: -> Gsolv                  -0.267682963790 Eh    ::
         ::    -> Gelec               -0.248926962725 Eh    ::
         ::    -> Gsasa               -0.023852237723 Eh    ::
         ::    -> Ghb                 -0.002528042347 Eh    ::
         ::    -> Gshift               0.007624279005 Eh    ::
         :: repulsion energy           0.750308952925 Eh    ::
         :: dispersion energy         -0.026804393671 Eh    ::
         :: halogen bond corr.         0.000000000000 Eh    ::
         :: add. restraining           0.000000000000 Eh    ::
         :: total charge              -2.000000000000 e     ::
         :::::::::::::::::::::::::::::::::::::::::::::::::::::

      ----------------------------------------------------------- 
     |                   =====================                   |
     |                        A N C O P T                        |
     |                   =====================                   |
     |               Approximate Normal Coordinate               |
     |                Rational Function Optimizer                |
      ----------------------------------------------------------- 

          ...................................................
          :                      SETUP                      :
          :.................................................:
          :   optimization level            normal          :
          :   max. optcycles                   200          :
          :   ANC micro-cycles                  20          :
          :   degrees of freedom               120          :
          :.................................................:
          :   RF solver                   davidson          :
          :   write xtbopt.log                true          :
          :   linear?                        false          :
          :   energy convergence         0.5000000E-05 Eh   :
          :   grad. convergence          0.1000000E-02 Eh/α :
          :   maximium RF displ.         1.0000000          :
          :   Hlow (freq-cutoff)         0.1000000E-01      :
          :   Hmax (freq-cutoff)         5.0000000          :
          :   S6 in model hess.         20.0000000          :
          ...................................................

generating ANC from model Hessian ...
Using Lindh-Hessian (1995)
 Shifting diagonal of input Hessian by   9.861102142553053E-003
 Lowest  eigenvalues of input Hessian
    0.000000    0.000000    0.000000    0.000000    0.000000    0.000000
    0.010000    0.010160    0.010763    0.010978    0.011341    0.012706
    0.012978    0.014412    0.014742    0.015467    0.016109    0.016777
 Highest eigenvalues
    1.917605    2.087767    2.161990    2.230045    2.290565    2.305482
 

........................................................................
.............................. CYCLE    1 ..............................
........................................................................
   1    -84.3282074 -0.843282E+02  0.734E-06    0.07       0.0  T
   2    -84.3282074  0.172639E-08  0.116E-04    0.07     132.7  T
   3    -84.3282074 -0.173300E-08  0.122E-06    0.07   12654.7  T
     SCC iter.                  ...        0 min,  0.011 sec
     gradient                   ...        0 min,  0.065 sec
 * total energy  :   -83.6047029 Eh     change       -0.5298375E-09 Eh
   gradient norm :     0.1251107 Eh/α   predicted     0.0000000E+00 (-100.00%)
   displ. norm   :     0.2595961 α      lambda       -0.1549592E-01
   maximum displ.:     0.0933050 α      in ANC's #57, #24, #25, ...

........................................................................
.............................. CYCLE    2 ..............................
........................................................................
   1    -84.3118464 -0.843118E+02  0.366E-01    0.17       0.0  T
   2    -84.0339836  0.277863E+00  0.165E+00    0.76       1.0  T
   3    -84.2705532 -0.236570E+00  0.683E-01    0.04       1.0  T
   4    -84.3088079 -0.382547E-01  0.399E-01    0.20       1.0  T
   5    -84.3284358 -0.196279E-01  0.165E-02    0.07       1.0  T
   6    -84.3277696  0.666212E-03  0.756E-02    0.06       1.0  T
   7    -84.3278560 -0.864455E-04  0.682E-02    0.08       1.0  T
   8    -84.3282303 -0.374290E-03  0.413E-02    0.07       1.0  T
   9    -84.3284425 -0.212209E-03  0.251E-03    0.07       6.1  T
  10    -84.3284427 -0.206771E-06  0.213E-03    0.07       7.2  T
  11    -84.3284432 -0.479400E-06  0.792E-04    0.07      19.5  T
  12    -84.3284433 -0.747629E-07  0.188E-04    0.07      82.3  T
  13    -84.3284433 -0.420117E-08  0.906E-06    0.07    1703.2  T
     SCC iter.                  ...        0 min,  0.038 sec
     gradient                   ...        0 min,  0.047 sec
 * total energy  :   -83.6156104 Eh     change       -0.1090750E-01 Eh
   gradient norm :     0.0564589 Eh/α   predicted    -0.8276133E-02 ( -24.12%)
   displ. norm   :     0.2708492 α      lambda       -0.6046179E-02
   maximum displ.:     0.0888821 α      in ANC's #25, #24, #57, ...

........................................................................
.............................. CYCLE    3 ..............................
........................................................................
   1    -84.3235961 -0.843236E+02  0.297E-01    0.14       0.0  T
   2    -84.0330211  0.290575E+00  0.167E+00    0.60       1.0  T
   3    -84.3160857 -0.283065E+00  0.388E-01    0.04       1.0  T
   4    -84.3230228 -0.693715E-02  0.298E-01    0.15       1.0  T
   5    -84.3338214 -0.107986E-01  0.239E-02    0.08       1.0  T
   6    -84.3324943  0.132711E-02  0.109E-01    0.06       1.0  T
   7    -84.3337280 -0.123375E-02  0.364E-02    0.08       1.0  T
   8    -84.3338873 -0.159337E-03  0.431E-03    0.08       3.6  T
   9    -84.3338893 -0.199120E-05  0.158E-03    0.08       9.7  T
  10    -84.3338894 -0.489273E-07  0.146E-03    0.08      10.5  T
  11    -84.3338896 -0.256387E-06  0.321E-05    0.08     481.0  T
  12    -84.3338896  0.316220E-09  0.556E-05    0.08     277.5  T
     SCC iter.                  ...        0 min,  0.046 sec
     gradient                   ...        0 min,  0.084 sec
 * total energy  :   -83.6191056 Eh     change       -0.3495269E-02 Eh
   gradient norm :     0.0180670 Eh/α   predicted    -0.3246669E-02 (  -7.11%)
   displ. norm   :     0.1875651 α      lambda       -0.8172683E-03
   maximum displ.:     0.0710281 α      in ANC's #4, #3, #2, ...

........................................................................
.............................. CYCLE    4 ..............................
........................................................................
   1    -84.3355533 -0.843356E+02  0.125E-01    0.10       0.0  T
   2    -84.0660391  0.269514E+00  0.153E+00    0.21       1.0  T
   3    -84.3370843 -0.271045E+00  0.425E-02    0.08       1.0  T
   4    -84.3372016 -0.117300E-03  0.254E-02    0.08       1.0  T
   5    -84.3372753 -0.737127E-04  0.637E-03    0.08       2.4  T
   6    -84.3372778 -0.254475E-05  0.419E-03    0.08       3.7  T
   7    -84.3372793 -0.146402E-05  0.118E-03    0.08      13.0  T
   8    -84.3372794 -0.160316E-06  0.112E-04    0.08     137.3  T
   9    -84.3372794 -0.105261E-08  0.609E-05    0.08     253.3  T
     SCC iter.                  ...        0 min,  0.035 sec
     gradient                   ...        0 min,  0.084 sec
 * total energy  :   -83.6196998 Eh     change       -0.5941578E-03 Eh
   gradient norm :     0.0107963 Eh/α   predicted    -0.4230215E-03 ( -28.80%)
   displ. norm   :     0.3156877 α      lambda       -0.7367009E-03
   maximum displ.:     0.1458389 α      in ANC's #4, #3, #2, ...

........................................................................
.............................. CYCLE    5 ..............................
........................................................................
   1    -84.3384232 -0.843384E+02  0.118E-01    0.10       0.0  T
   2    -84.0743223  0.264101E+00  0.152E+00    0.19       1.0  T
   3    -84.3395465 -0.265224E+00  0.585E-02    0.09       1.0  T
   4    -84.3398962 -0.349677E-03  0.175E-02    0.08       1.0  T
   5    -84.3399206 -0.244315E-04  0.103E-02    0.08       1.5  T
   6    -84.3399313 -0.107062E-04  0.341E-03    0.08       4.5  T
   7    -84.3399321 -0.793727E-06  0.144E-03    0.08      10.7  T
   8    -84.3399323 -0.239656E-06  0.825E-05    0.08     186.9  T
   9    -84.3399323 -0.461114E-09  0.338E-05    0.08     457.0  T
     SCC iter.                  ...        0 min,  0.034 sec
     gradient                   ...        0 min,  0.083 sec
 * total energy  :   -83.6202198 Eh     change       -0.5200061E-03 Eh
   gradient norm :     0.0079403 Eh/α   predicted    -0.4050781E-03 ( -22.10%)
   displ. norm   :     0.3529084 α      lambda       -0.5125619E-03
   maximum displ.:     0.1752139 α      in ANC's #4, #3, #2, ...

........................................................................
.............................. CYCLE    6 ..............................
........................................................................
   1    -84.3390611 -0.843391E+02  0.103E-01    0.10       0.0  T
   2    -84.0922565  0.246805E+00  0.147E+00    0.16       1.0  T
   3    -84.3398565 -0.247600E+00  0.549E-02    0.09       1.0  T
   4    -84.3401991 -0.342607E-03  0.916E-03    0.08       1.7  T
   5    -84.3401994 -0.296025E-06  0.928E-03    0.09       1.7  T
   6    -84.3402088 -0.943971E-05  0.107E-03    0.08      14.5  T
   7    -84.3402088  0.317759E-08  0.362E-04    0.08      42.6  T
   8    -84.3402088 -0.128790E-07  0.122E-04    0.08     126.4  T
   9    -84.3402088 -0.150202E-08  0.180E-05    0.08     856.8  T
     SCC iter.                  ...        0 min,  0.035 sec
     gradient                   ...        0 min,  0.084 sec
 * total energy  :   -83.6206173 Eh     change       -0.3975382E-03 Eh
   gradient norm :     0.0107304 Eh/α   predicted    -0.2881993E-03 ( -27.50%)
   displ. norm   :     0.4164724 α      lambda       -0.5262564E-03
   maximum displ.:     0.2082505 α      in ANC's #4, #2, #3, ...

........................................................................
.............................. CYCLE    7 ..............................
........................................................................
   1    -84.3393443 -0.843393E+02  0.560E-02    0.09       0.0  T
   2    -84.2298484  0.109496E+00  0.972E-01    0.06       1.0  T
   3    -84.3394530 -0.109605E+00  0.429E-02    0.09       1.0  T
   4    -84.3396695 -0.216521E-03  0.804E-03    0.09       1.9  T
   5    -84.3396620  0.751329E-05  0.106E-02    0.09       1.5  T
   6    -84.3396731 -0.110614E-04  0.327E-03    0.09       4.7  T
   7    -84.3396741 -0.101955E-05  0.908E-04    0.09      17.0  T
   8    -84.3396742 -0.804713E-07  0.323E-04    0.09      47.8  T
   9    -84.3396742 -0.115849E-07  0.187E-05    0.09     824.2  T
  10    -84.3396742 -0.138698E-10  0.878E-06    0.09    1756.5  T
     SCC iter.                  ...        0 min,  0.038 sec
     gradient                   ...        0 min,  0.084 sec
 * total energy  :   -83.6210395 Eh     change       -0.4221506E-03 Eh
   gradient norm :     0.0116531 Eh/α   predicted    -0.3087678E-03 ( -26.86%)
   displ. norm   :     0.4535356 α      lambda       -0.5278038E-03
   maximum displ.:     0.2253085 α      in ANC's #4, #2, #3, ...

........................................................................
.............................. CYCLE    8 ..............................
........................................................................
   1    -84.3390445 -0.843390E+02  0.120E-02    0.09       0.0  T
   2    -84.3390466 -0.209396E-05  0.754E-03    0.09       2.0  T
   3    -84.3390399  0.667367E-05  0.990E-03    0.09       1.6  T
   4    -84.3389998  0.400555E-04  0.220E-02    0.09       1.0  T
   5    -84.3390491 -0.492965E-04  0.531E-03    0.09       2.9  T
   6    -84.3390513 -0.211312E-05  0.222E-03    0.09       6.9  T
   7    -84.3390517 -0.492662E-06  0.476E-04    0.09      32.4  T
   8    -84.3390518 -0.239939E-07  0.524E-05    0.09     294.4  T
   9    -84.3390518 -0.270489E-09  0.894E-06    0.09    1725.2  T
     SCC iter.                  ...        0 min,  0.034 sec
     gradient                   ...        0 min,  0.084 sec
 * total energy  :   -83.6214382 Eh     change       -0.3986919E-03 Eh
   gradient norm :     0.0094258 Eh/α   predicted    -0.3181866E-03 ( -20.19%)
   displ. norm   :     0.3837528 α      lambda       -0.3403000E-03
   maximum displ.:     0.1860991 α      in ANC's #2, #4, #3, ...

........................................................................
.............................. CYCLE    9 ..............................
........................................................................
   1    -84.3392957 -0.843393E+02  0.317E-02    0.08       0.0  T
   2    -84.3296094  0.968623E-02  0.294E-01    0.15       1.0  T
   3    -84.3393515 -0.974212E-02  0.231E-02    0.09       1.0  T
   4    -84.3393975 -0.459633E-04  0.118E-02    0.09       1.3  T
   5    -84.3394103 -0.127443E-04  0.553E-03    0.09       2.8  T
   6    -84.3394093  0.923938E-06  0.620E-03    0.09       2.5  T
   7    -84.3394137 -0.435260E-05  0.634E-04    0.09      24.3  T
   8    -84.3394137 -0.422149E-07  0.158E-04    0.09      97.8  T
   9    -84.3394137 -0.551907E-09  0.141E-04    0.09     109.2  T
     SCC iter.                  ...        0 min,  0.034 sec
     gradient                   ...        0 min,  0.084 sec
 * total energy  :   -83.6216806 Eh     change       -0.2423791E-03 Eh
   gradient norm :     0.0064118 Eh/α   predicted    -0.1952075E-03 ( -19.46%)
   displ. norm   :     0.2743253 α      lambda       -0.1715015E-03
   maximum displ.:     0.1423213 α      in ANC's #2, #4, #3, ...

........................................................................
.............................. CYCLE   10 ..............................
........................................................................
   1    -84.3403655 -0.843404E+02  0.194E-02    0.09       0.0  T
   2    -84.3359219  0.444364E-02  0.197E-01    0.12       1.0  T
   3    -84.3404053 -0.448335E-02  0.325E-03    0.09       4.7  T
   4    -84.3403989  0.630881E-05  0.787E-03    0.09       2.0  T
   5    -84.3404055 -0.651677E-05  0.142E-03    0.09      10.9  T
   6    -84.3404055 -0.580759E-07  0.721E-04    0.09      21.4  T
   7    -84.3404056 -0.443288E-07  0.302E-04    0.09      51.1  T
   8    -84.3404056 -0.964043E-08  0.452E-05    0.09     341.6  T
   9    -84.3404056  0.230841E-09  0.604E-05    0.09     255.4  T
     SCC iter.                  ...        0 min,  0.035 sec
     gradient                   ...        0 min,  0.084 sec
 * total energy  :   -83.6218031 Eh     change       -0.1225052E-03 Eh
   gradient norm :     0.0042437 Eh/α   predicted    -0.9221076E-04 ( -24.73%)
   displ. norm   :     0.1999616 α      lambda       -0.9593925E-04
   maximum displ.:     0.1146728 α      in ANC's #2, #4, #1, ...

........................................................................
.............................. CYCLE   11 ..............................
........................................................................
   1    -84.3416218 -0.843416E+02  0.103E-02    0.09       0.0  T
   2    -84.3408487  0.773052E-03  0.822E-02    0.10       1.0  T
   3    -84.3415971 -0.748418E-03  0.172E-02    0.09       1.0  T
   4    -84.3416284 -0.312662E-04  0.418E-03    0.09       3.7  T
   5    -84.3416266  0.183252E-05  0.547E-03    0.09       2.8  T
   6    -84.3416297 -0.310408E-05  0.855E-04    0.09      18.1  T
   7    -84.3416297 -0.602291E-07  0.153E-04    0.09     101.1  T
   8    -84.3416297 -0.222754E-08  0.256E-05    0.09     603.4  T
     SCC iter.                  ...        0 min,  0.031 sec
     gradient                   ...        0 min,  0.084 sec
 * total energy  :   -83.6218730 Eh     change       -0.6993470E-04 Eh
   gradient norm :     0.0031661 Eh/α   predicted    -0.4988842E-04 ( -28.66%)
   displ. norm   :     0.1919871 α      lambda       -0.7198357E-04
   maximum displ.:     0.1144466 α      in ANC's #2, #1, #7, ...

........................................................................
.............................. CYCLE   12 ..............................
........................................................................
   1    -84.3416989 -0.843417E+02  0.157E-02    0.09       0.0  T
   2    -84.3345555  0.714343E-02  0.250E-01    0.06       1.0  T
   3    -84.3417262 -0.717067E-02  0.495E-03    0.09       3.1  T
   4    -84.3417203  0.581249E-05  0.823E-03    0.09       1.9  T
   5    -84.3417262 -0.585269E-05  0.403E-03    0.09       3.8  T
   6    -84.3417275 -0.126074E-05  0.170E-03    0.09       9.1  T
   7    -84.3417278 -0.316387E-06  0.537E-05    0.09     287.6  T
   8    -84.3417278 -0.906653E-10  0.183E-05    0.09     843.1  T
     SCC iter.                  ...        0 min,  0.031 sec
     gradient                   ...        0 min,  0.084 sec
 * total energy  :   -83.6219267 Eh     change       -0.5373591E-04 Eh
   gradient norm :     0.0034072 Eh/α   predicted    -0.3732154E-04 ( -30.55%)
   displ. norm   :     0.2145388 α      lambda       -0.8537339E-04
   maximum displ.:     0.1325276 α      in ANC's #2, #6, #1, ...

........................................................................
.............................. CYCLE   13 ..............................
........................................................................
   1    -84.3430837 -0.843431E+02  0.114E-02    0.09       0.0  T
   2    -84.3429582  0.125453E-03  0.337E-02    0.09       1.0  T
   3    -84.3427969  0.161287E-03  0.520E-02    0.10       1.0  T
   4    -84.3430946 -0.297718E-03  0.292E-03    0.09       5.3  T
   5    -84.3430953 -0.644643E-06  0.127E-03    0.09      12.1  T
   6    -84.3430953 -0.707672E-08  0.762E-04    0.09      20.2  T
   7    -84.3430953 -0.416142E-07  0.329E-04    0.09      46.9  T
   8    -84.3430953 -0.120397E-07  0.235E-05    0.09     656.7  T
   9    -84.3430953  0.255653E-10  0.247E-05    0.09     624.7  T
     SCC iter.                  ...        0 min,  0.034 sec
     gradient                   ...        0 min,  0.084 sec
 * total energy  :   -83.6219837 Eh     change       -0.5693944E-04 Eh
   gradient norm :     0.0051362 Eh/α   predicted    -0.4465286E-04 ( -21.58%)
   displ. norm   :     0.2277808 α      lambda       -0.8277213E-04
   maximum displ.:     0.1370179 α      in ANC's #2, #6, #1, ...

........................................................................
.............................. CYCLE   14 ..............................
........................................................................
   1    -84.3417386 -0.843417E+02  0.238E-02    0.10       0.0  T
   2    -84.3237105  0.180280E-01  0.396E-01    0.06       1.0  T
   3    -84.3417972 -0.180867E-01  0.726E-03    0.09       2.1  T
   4    -84.3418004 -0.319488E-05  0.443E-03    0.09       3.5  T
   5    -84.3418000  0.381570E-06  0.445E-03    0.09       3.5  T
   6    -84.3418020 -0.203596E-05  0.120E-03    0.09      12.8  T
   7    -84.3418021 -0.111199E-06  0.488E-04    0.09      31.6  T
   8    -84.3418022 -0.257876E-07  0.993E-05    0.09     155.4  T
   9    -84.3418022 -0.106289E-08  0.177E-05    0.09     870.8  T
     SCC iter.                  ...        0 min,  0.035 sec
     gradient                   ...        0 min,  0.085 sec
 * total energy  :   -83.6220426 Eh     change       -0.5897257E-04 Eh
   gradient norm :     0.0045490 Eh/α   predicted    -0.4353343E-04 ( -26.18%)
   displ. norm   :     0.2090456 α      lambda       -0.8469375E-04
   maximum displ.:     0.1190321 α      in ANC's #2, #6, #1, ...

........................................................................
.............................. CYCLE   15 ..............................
........................................................................
   1    -84.3418004 -0.843418E+02  0.487E-03    0.10       0.0  T
   2    -84.3416737  0.126700E-03  0.350E-02    0.10       1.0  T
   3    -84.3418008 -0.127116E-03  0.535E-03    0.10       2.9  T
   4    -84.3417785  0.223437E-04  0.151E-02    0.10       1.0  T
   5    -84.3417988 -0.202903E-04  0.592E-03    0.10       2.6  T
   6    -84.3418023 -0.356569E-05  0.582E-04    0.10      26.5  T
   7    -84.3418024 -0.286000E-07  0.171E-04    0.10      90.2  T
   8    -84.3418024 -0.287926E-08  0.384E-05    0.10     401.7  T
     SCC iter.                  ...        0 min,  0.031 sec
     gradient                   ...        0 min,  0.084 sec
 * total energy  :   -83.6221043 Eh     change       -0.6161754E-04 Eh
   gradient norm :     0.0036421 Eh/α   predicted    -0.4420021E-04 ( -28.27%)
   displ. norm   :     0.1725909 α      lambda       -0.6971358E-04
   maximum displ.:     0.0898153 α      in ANC's #2, #6, #3, ...

........................................................................
.............................. CYCLE   16 ..............................
........................................................................
   1    -84.3416403 -0.843416E+02  0.194E-02    0.09       0.0  T
   2    -84.3366472  0.499304E-02  0.212E-01    0.14       1.0  T
   3    -84.3416278 -0.498061E-02  0.241E-02    0.10       1.0  T
   4    -84.3416834 -0.555352E-04  0.745E-03    0.10       2.1  T
   5    -84.3416864 -0.305297E-05  0.454E-03    0.10       3.4  T
   6    -84.3416884 -0.200824E-05  0.128E-03    0.10      12.1  T
   7    -84.3416886 -0.116628E-06  0.544E-04    0.10      28.4  T
   8    -84.3416886 -0.315186E-07  0.718E-05    0.10     215.0  T
   9    -84.3416886 -0.589793E-09  0.196E-05    0.10     788.8  T
     SCC iter.                  ...        0 min,  0.035 sec
     gradient                   ...        0 min,  0.086 sec
 * total energy  :   -83.6221542 Eh     change       -0.4992337E-04 Eh
   gradient norm :     0.0029154 Eh/α   predicted    -0.3589534E-04 ( -28.10%)
   displ. norm   :     0.1473361 α      lambda       -0.5406402E-04
   maximum displ.:     0.0682898 α      in ANC's #2, #3, #18, ...

........................................................................
.............................. CYCLE   17 ..............................
........................................................................
   1    -84.3420770 -0.843421E+02  0.277E-02    0.09       0.0  T
   2    -84.3341633  0.791372E-02  0.267E-01    0.16       1.0  T
   3    -84.3420853 -0.792197E-02  0.281E-02    0.10       1.0  T
   4    -84.3421719 -0.865904E-04  0.479E-03    0.10       3.2  T
   5    -84.3421734 -0.149000E-05  0.194E-03    0.10       8.0  T
   6    -84.3421726  0.806984E-06  0.316E-03    0.10       4.9  T
   7    -84.3421736 -0.105906E-05  0.171E-04    0.10      90.2  T
   8    -84.3421736 -0.269812E-08  0.444E-05    0.10     347.7  T
   9    -84.3421736 -0.165528E-09  0.227E-05    0.10     679.1  T
     SCC iter.                  ...        0 min,  0.039 sec
     gradient                   ...        0 min,  0.086 sec
 * total energy  :   -83.6221932 Eh     change       -0.3901723E-04 Eh
   gradient norm :     0.0030765 Eh/α   predicted    -0.2762045E-04 ( -29.21%)
   displ. norm   :     0.1897419 α      lambda       -0.5349042E-04
   maximum displ.:     0.0989916 α      in ANC's #2, #11, #3, ...

........................................................................
.............................. CYCLE   18 ..............................
........................................................................
   1    -84.3414085 -0.843414E+02  0.306E-02    0.10       0.0  T
   2    -84.3327534  0.865502E-02  0.279E-01    0.16       1.0  T
   3    -84.3414634 -0.870994E-02  0.225E-02    0.10       1.0  T
   4    -84.3415205 -0.570899E-04  0.220E-03    0.10       7.0  T
   5    -84.3415209 -0.405280E-06  0.827E-04    0.10      18.7  T
   6    -84.3415202  0.717888E-06  0.265E-03    0.10       5.8  T
   7    -84.3415209 -0.760604E-06  0.271E-04    0.10      56.9  T
   8    -84.3415209 -0.736914E-08  0.527E-05    0.10     293.0  T
   9    -84.3415209 -0.306500E-09  0.116E-05    0.10    1327.3  T
     SCC iter.                  ...        0 min,  0.039 sec
     gradient                   ...        0 min,  0.086 sec
 * total energy  :   -83.6222300 Eh     change       -0.3677444E-04 Eh
   gradient norm :     0.0041101 Eh/α   predicted    -0.2770871E-04 ( -24.65%)
   displ. norm   :     0.1758748 α      lambda       -0.7652429E-04
   maximum displ.:     0.0860506 α      in ANC's #3, #2, #19, ...

........................................................................
.............................. CYCLE   19 ..............................
........................................................................
   1    -84.3428795 -0.843429E+02  0.472E-02    0.09       0.0  T
   2    -84.3294809  0.133986E-01  0.350E-01    0.20       1.0  T
   3    -84.3429698 -0.134889E-01  0.380E-02    0.11       1.0  T
   4    -84.3431350 -0.165129E-03  0.707E-03    0.10       2.2  T
   5    -84.3431396 -0.462052E-05  0.308E-03    0.10       5.0  T
   6    -84.3431379  0.171067E-05  0.484E-03    0.10       3.2  T
   7    -84.3431404 -0.258647E-05  0.847E-04    0.10      18.2  T
   8    -84.3431405 -0.787640E-07  0.166E-04    0.10      93.2  T
   9    -84.3431405 -0.209491E-08  0.906E-05    0.10     170.3  T
     SCC iter.                  ...        0 min,  0.039 sec
     gradient                   ...        0 min,  0.085 sec
 * total energy  :   -83.6222688 Eh     change       -0.3885817E-04 Eh
   gradient norm :     0.0043188 Eh/α   predicted    -0.3944636E-04 (   1.51%)
   displ. norm   :     0.1953139 α      lambda       -0.5583827E-04
   maximum displ.:     0.1063777 α      in ANC's #2, #11, #1, ...

........................................................................
.............................. CYCLE   20 ..............................
........................................................................
   1    -84.3421036 -0.843421E+02  0.591E-03    0.10       0.0  T
   2    -84.3421030  0.548578E-06  0.513E-03    0.10       3.0  T
   3    -84.3420696  0.333857E-04  0.172E-02    0.10       1.0  T
   4    -84.3420945 -0.248874E-04  0.101E-02    0.10       1.5  T
   5    -84.3421045 -0.999310E-05  0.215E-03    0.10       7.2  T
   6    -84.3421050 -0.450614E-06  0.339E-04    0.10      45.5  T
   7    -84.3421050 -0.749031E-08  0.150E-04    0.10     103.2  T
   8    -84.3421050 -0.232673E-08  0.107E-05    0.10    1448.0  T
     SCC iter.                  ...        0 min,  0.035 sec
     gradient                   ...        0 min,  0.085 sec
 * total energy  :   -83.6223020 Eh     change       -0.3320120E-04 Eh
   gradient norm :     0.0045753 Eh/α   predicted    -0.2898555E-04 ( -12.70%)
   displ. norm   :     0.0974330 α      lambda       -0.5018446E-04
   maximum displ.:     0.0429627 α      in ANC's #2, #4, #1, ...
 * RMSD in coord.:     0.5700692 α      energy gain  -0.1759918E-01 Eh

generating ANC from model Hessian ...
Using Lindh-Hessian (1995)
 Shifting diagonal of input Hessian by   9.838556909004589E-003
 Lowest  eigenvalues of input Hessian
    0.000000    0.000000    0.000000    0.000000    0.000000    0.000000
    0.010000    0.010190    0.010695    0.011258    0.011394    0.012808
    0.012950    0.014365    0.015745    0.015925    0.016131    0.016979
 Highest eigenvalues
    1.989617    2.088402    2.134522    2.216169    2.280107    2.293699
 

........................................................................
.............................. CYCLE   21 ..............................
........................................................................
   1    -84.3421572 -0.843422E+02  0.146E-02    0.10       0.0  T
   2    -84.3369703  0.518687E-02  0.212E-01    0.08       1.0  T
   3    -84.3421602 -0.518991E-02  0.146E-02    0.10       1.1  T
   4    -84.3421780 -0.177228E-04  0.806E-03    0.10       1.9  T
   5    -84.3421794 -0.147083E-05  0.680E-03    0.10       2.3  T
   6    -84.3421839 -0.451291E-05  0.188E-03    0.10       8.2  T
   7    -84.3421843 -0.359418E-06  0.471E-04    0.10      32.8  T
   8    -84.3421843 -0.248363E-07  0.266E-05    0.10     579.7  T
   9    -84.3421843  0.366356E-10  0.285E-05    0.10     540.9  T
     SCC iter.                  ...        0 min,  0.039 sec
     gradient                   ...        0 min,  0.085 sec
 * total energy  :   -83.6223372 Eh     change       -0.3516921E-04 Eh
   gradient norm :     0.0032629 Eh/α   predicted     0.0000000E+00 (-100.00%)
   displ. norm   :     0.0252405 α      lambda       -0.2158986E-04
   maximum displ.:     0.0091167 α      in ANC's #12, #8, #9, ...

........................................................................
.............................. CYCLE   22 ..............................
........................................................................
   1    -84.3425638 -0.843426E+02  0.671E-03    0.10       0.0  T
   2    -84.3417176  0.846213E-03  0.856E-02    0.09       1.0  T
   3    -84.3425680 -0.850442E-03  0.251E-03    0.10       6.2  T
   4    -84.3425674  0.603145E-06  0.309E-03    0.10       5.0  T
   5    -84.3425684 -0.926577E-06  0.107E-03    0.10      14.4  T
   6    -84.3425685 -0.998756E-07  0.147E-04    0.10     104.7  T
   7    -84.3425685 -0.156156E-08  0.333E-05    0.10     464.0  T
     SCC iter.                  ...        0 min,  0.031 sec
     gradient                   ...        0 min,  0.086 sec
 * total energy  :   -83.6223555 Eh     change       -0.1830177E-04 Eh
   gradient norm :     0.0017262 Eh/α   predicted    -0.1179492E-04 ( -35.55%)
   displ. norm   :     0.0931453 α      lambda       -0.2711839E-04
   maximum displ.:     0.0349594 α      in ANC's #8, #12, #9, ...

........................................................................
.............................. CYCLE   23 ..............................
........................................................................
   1    -84.3428061 -0.843428E+02  0.328E-02    0.10       0.0  T
   2    -84.3061835  0.366226E-01  0.562E-01    0.06       1.0  T
   3    -84.3429285 -0.367450E-01  0.714E-03    0.10       2.2  T
   4    -84.3429237  0.476817E-05  0.860E-03    0.10       1.8  T
   5    -84.3429312 -0.747080E-05  0.322E-03    0.10       4.8  T
   6    -84.3429322 -0.103886E-05  0.454E-04    0.10      34.0  T
   7    -84.3429322 -0.767061E-08  0.195E-04    0.10      79.3  T
   8    -84.3429322 -0.422480E-08  0.270E-05    0.10     572.0  T
     SCC iter.                  ...        0 min,  0.035 sec
     gradient                   ...        0 min,  0.085 sec
 * total energy  :   -83.6223783 Eh     change       -0.2281148E-04 Eh
   gradient norm :     0.0023285 Eh/α   predicted    -0.1483553E-04 ( -34.96%)
   displ. norm   :     0.0362426 α      lambda       -0.1133917E-04
   maximum displ.:     0.0142210 α      in ANC's #8, #5, #1, ...

........................................................................
.............................. CYCLE   24 ..............................
........................................................................
   1    -84.3427641 -0.843428E+02  0.111E-02    0.10       0.0  T
   2    -84.3394521  0.331203E-02  0.170E-01    0.08       1.0  T
   3    -84.3427772 -0.332514E-02  0.452E-03    0.10       3.4  T
   4    -84.3427793 -0.207753E-05  0.172E-03    0.10       8.9  T
   5    -84.3427792  0.527060E-07  0.172E-03    0.10       9.0  T
   6    -84.3427795 -0.280312E-06  0.559E-04    0.10      27.6  T
   7    -84.3427795 -0.330905E-07  0.769E-05    0.10     200.6  T
   8    -84.3427795 -0.636689E-09  0.400E-06    0.10    3862.2  T
     SCC iter.                  ...        0 min,  0.034 sec
     gradient                   ...        0 min,  0.084 sec
 * total energy  :   -83.6223887 Eh     change       -0.1039192E-04 Eh
   gradient norm :     0.0019046 Eh/α   predicted    -0.5904193E-05 ( -43.18%)
   displ. norm   :     0.2444682 α      lambda       -0.4332622E-04
   maximum displ.:     0.0976207 α      in ANC's #8, #5, #1, ...

........................................................................
.............................. CYCLE   25 ..............................
........................................................................
   1    -84.3408570 -0.843409E+02  0.643E-02    0.11       0.0  T
   2    -84.1871074  0.153750E+00  0.116E+00    0.10       1.0  T
   3    -84.3413427 -0.154235E+00  0.163E-02    0.10       1.0  T
   4    -84.3413655 -0.228574E-04  0.858E-03    0.10       1.8  T
   5    -84.3413526  0.128972E-04  0.131E-02    0.10       1.2  T
   6    -84.3413663 -0.136438E-04  0.647E-03    0.10       2.4  T
   7    -84.3413706 -0.431850E-05  0.177E-03    0.10       8.7  T
   8    -84.3413709 -0.353134E-06  0.606E-05    0.10     254.7  T
   9    -84.3413709 -0.221746E-09  0.194E-05    0.10     796.5  T
     SCC iter.                  ...        0 min,  0.038 sec
     gradient                   ...        0 min,  0.085 sec
 * total energy  :   -83.6224008 Eh     change       -0.1208383E-04 Eh
   gradient norm :     0.0041971 Eh/α   predicted    -0.2228151E-04 (  84.39%)
   displ. norm   :     0.0507933 α      lambda       -0.2463623E-04
   maximum displ.:     0.0199008 α      in ANC's #8, #9, #5, ...

........................................................................
.............................. CYCLE   26 ..............................
........................................................................
   1    -84.3421515 -0.843422E+02  0.245E-02    0.10       0.0  T
   2    -84.3357298  0.642170E-02  0.239E-01    0.15       1.0  T
   3    -84.3421899 -0.646010E-02  0.172E-02    0.10       1.0  T
   4    -84.3422244 -0.345073E-04  0.173E-03    0.10       8.9  T
   5    -84.3422245 -0.107985E-06  0.819E-04    0.10      18.8  T
   6    -84.3422242  0.352535E-06  0.191E-03    0.10       8.1  T
   7    -84.3422246 -0.406176E-06  0.201E-04    0.10      76.9  T
   8    -84.3422246 -0.242747E-08  0.134E-04    0.10     115.2  T
   9    -84.3422246 -0.206654E-08  0.110E-05    0.10    1408.4  T
     SCC iter.                  ...        0 min,  0.039 sec
     gradient                   ...        0 min,  0.084 sec
 * total energy  :   -83.6224173 Eh     change       -0.1654461E-04 Eh
   gradient norm :     0.0021707 Eh/α   predicted    -0.1235372E-04 ( -25.33%)
   displ. norm   :     0.0192391 α      lambda       -0.1197316E-04
   maximum displ.:     0.0081006 α      in ANC's #4, #9, #18, ...

........................................................................
.............................. CYCLE   27 ..............................
........................................................................
   1    -84.3426247 -0.843426E+02  0.179E-02    0.10       0.0  T
   2    -84.3385598  0.406487E-02  0.189E-01    0.14       1.0  T
   3    -84.3426514 -0.409155E-02  0.101E-02    0.10       1.5  T
   4    -84.3426633 -0.118797E-04  0.155E-03    0.10      10.0  T
   5    -84.3426635 -0.184803E-06  0.334E-04    0.10      46.2  T
   6    -84.3426634  0.333122E-07  0.575E-04    0.10      26.8  T
   7    -84.3426634 -0.329530E-07  0.147E-04    0.10     104.8  T
   8    -84.3426635 -0.195104E-08  0.652E-05    0.10     236.7  T
     SCC iter.                  ...        0 min,  0.034 sec
     gradient                   ...        0 min,  0.086 sec
 * total energy  :   -83.6224263 Eh     change       -0.8944714E-05 Eh
   gradient norm :     0.0009221 Eh/α   predicted    -0.5989634E-05 ( -33.04%)
   displ. norm   :     0.0915035 α      lambda       -0.1400427E-04
   maximum displ.:     0.0396916 α      in ANC's #5, #1, #11, ...

........................................................................
.............................. CYCLE   28 ..............................
........................................................................
   1    -84.3429372 -0.843429E+02  0.312E-02    0.10       0.0  T
   2    -84.3342064  0.873080E-02  0.279E-01    0.16       1.0  T
   3    -84.3429998 -0.879341E-02  0.214E-02    0.10       1.0  T
   4    -84.3430542 -0.543921E-04  0.137E-03    0.10      11.3  T
   5    -84.3430541  0.120247E-06  0.144E-03    0.10      10.7  T
   6    -84.3430540  0.133695E-06  0.179E-03    0.10       8.6  T
   7    -84.3430543 -0.357443E-06  0.109E-04    0.10     141.9  T
   8    -84.3430543 -0.123366E-08  0.169E-05    0.10     912.7  T
     SCC iter.                  ...        0 min,  0.035 sec
     gradient                   ...        0 min,  0.095 sec
 * total energy  :   -83.6224404 Eh     change       -0.1413644E-04 Eh
   gradient norm :     0.0012659 Eh/α   predicted    -0.7037420E-05 ( -50.22%)
   displ. norm   :     0.1959652 α      lambda       -0.1809665E-04
   maximum displ.:     0.0826747 α      in ANC's #5, #1, #8, ...

........................................................................
.............................. CYCLE   29 ..............................
........................................................................
   1    -84.3422841 -0.843423E+02  0.163E-02    0.10       0.0  T
   2    -84.3389029  0.338115E-02  0.172E-01    0.13       1.0  T
   3    -84.3423132 -0.341027E-02  0.307E-03    0.10       5.0  T
   4    -84.3423135 -0.289529E-06  0.263E-03    0.10       5.9  T
   5    -84.3423141 -0.642723E-06  0.889E-04    0.10      17.3  T
   6    -84.3423142 -0.423052E-07  0.355E-04    0.10      43.5  T
   7    -84.3423142 -0.129636E-07  0.626E-05    0.10     246.7  T
   8    -84.3423142 -0.362277E-09  0.994E-06    0.10    1553.1  T
     SCC iter.                  ...        0 min,  0.033 sec
     gradient                   ...        0 min,  0.093 sec
 * total energy  :   -83.6224606 Eh     change       -0.2019989E-04 Eh
   gradient norm :     0.0019294 Eh/α   predicted    -0.9204135E-05 ( -54.43%)
   displ. norm   :     0.2098029 α      lambda       -0.1576291E-04
   maximum displ.:     0.0838520 α      in ANC's #5, #1, #11, ...

........................................................................
.............................. CYCLE   30 ..............................
........................................................................
   1    -84.3411921 -0.843412E+02  0.664E-03    0.10       0.0  T
   2    -84.3407779  0.414206E-03  0.604E-02    0.11       1.0  T
   3    -84.3411882 -0.410307E-03  0.792E-03    0.10       1.9  T
   4    -84.3411950 -0.681839E-05  0.167E-03    0.10       9.2  T
   5    -84.3411952 -0.165217E-06  0.728E-04    0.10      21.2  T
   6    -84.3411952 -0.263813E-07  0.328E-04    0.10      47.0  T
   7    -84.3411952 -0.113663E-07  0.332E-05    0.10     464.2  T
   8    -84.3411952  0.112209E-09  0.362E-05    0.10     426.0  T
     SCC iter.                  ...        0 min,  0.033 sec
     gradient                   ...        0 min,  0.092 sec
 * total energy  :   -83.6224649 Eh     change       -0.4230930E-05 Eh
   gradient norm :     0.0039758 Eh/α   predicted    -0.8036372E-05 (  89.94%)
   displ. norm   :     0.0482791 α      lambda       -0.2247213E-04
   maximum displ.:     0.0217859 α      in ANC's #5, #8, #10, ...

........................................................................
.............................. CYCLE   31 ..............................
........................................................................
   1    -84.3420111 -0.843420E+02  0.592E-03    0.10       0.0  T
   2    -84.3414353  0.575789E-03  0.704E-02    0.09       1.0  T
   3    -84.3420140 -0.578701E-03  0.275E-03    0.10       5.6  T
   4    -84.3420137  0.290212E-06  0.273E-03    0.10       5.7  T
   5    -84.3420145 -0.748027E-06  0.547E-04    0.10      28.2  T
   6    -84.3420145 -0.180313E-07  0.183E-04    0.10      84.5  T
   7    -84.3420145 -0.318066E-08  0.218E-05    0.10     708.0  T
     SCC iter.                  ...        0 min,  0.030 sec
     gradient                   ...        0 min,  0.083 sec
 * total energy  :   -83.6224801 Eh     change       -0.1521634E-04 Eh
   gradient norm :     0.0020630 Eh/α   predicted    -0.1126808E-04 ( -25.95%)
   displ. norm   :     0.0409430 α      lambda       -0.1715614E-04
   maximum displ.:     0.0163772 α      in ANC's #1, #4, #11, ...

........................................................................
.............................. CYCLE   32 ..............................
........................................................................
   1    -84.3426263 -0.843426E+02  0.468E-03    0.10       0.0  T
   2    -84.3424846  0.141639E-03  0.347E-02    0.09       1.0  T
   3    -84.3426237 -0.139081E-03  0.694E-03    0.10       2.2  T
   4    -84.3426277 -0.394597E-05  0.231E-03    0.10       6.7  T
   5    -84.3426281 -0.453332E-06  0.956E-04    0.10      16.1  T
   6    -84.3426282 -0.763635E-07  0.307E-04    0.10      50.2  T
   7    -84.3426282 -0.960297E-08  0.517E-05    0.10     298.6  T
   8    -84.3426282 -0.238600E-09  0.174E-05    0.10     889.1  T
     SCC iter.                  ...        0 min,  0.032 sec
     gradient                   ...        0 min,  0.082 sec
 * total energy  :   -83.6224924 Eh     change       -0.1232047E-04 Eh
   gradient norm :     0.0008965 Eh/α   predicted    -0.8594409E-05 ( -30.24%)
   displ. norm   :     0.1302200 α      lambda       -0.1417611E-04
   maximum displ.:     0.0591555 α      in ANC's #1, #11, #13, ...

........................................................................
.............................. CYCLE   33 ..............................
........................................................................
   1    -84.3430146 -0.843430E+02  0.608E-03    0.10       0.0  T
   2    -84.3429762  0.384686E-04  0.182E-02    0.10       1.0  T
   3    -84.3429208  0.553503E-04  0.297E-02    0.10       1.0  T
   4    -84.3430163 -0.955169E-04  0.370E-03    0.10       4.2  T
   5    -84.3430175 -0.111969E-05  0.179E-03    0.10       8.6  T
   6    -84.3430178 -0.303494E-06  0.476E-04    0.10      32.4  T
   7    -84.3430178 -0.216316E-07  0.134E-04    0.10     114.8  T
   8    -84.3430178 -0.195401E-08  0.935E-06    0.10    1649.8  T
     SCC iter.                  ...        0 min,  0.034 sec
     gradient                   ...        0 min,  0.082 sec
 * total energy  :   -83.6225057 Eh     change       -0.1326961E-04 Eh
   gradient norm :     0.0012788 Eh/α   predicted    -0.7143263E-05 ( -46.17%)
   displ. norm   :     0.1219288 α      lambda       -0.7764967E-05
   maximum displ.:     0.0585120 α      in ANC's #1, #11, #13, ...

........................................................................
.............................. CYCLE   34 ..............................
........................................................................
   1    -84.3423861 -0.843424E+02  0.382E-03    0.10       0.0  T
   2    -84.3422569  0.129226E-03  0.339E-02    0.10       1.0  T
   3    -84.3423852 -0.128377E-03  0.402E-03    0.10       3.8  T
   4    -84.3423869 -0.161247E-05  0.171E-03    0.10       9.0  T
   5    -84.3423871 -0.289572E-06  0.238E-04    0.10      64.9  T
   6    -84.3423871 -0.106657E-08  0.704E-05    0.10     219.1  T
   7    -84.3423871  0.242707E-09  0.626E-05    0.10     246.6  T
     SCC iter.                  ...        0 min,  0.029 sec
     gradient                   ...        0 min,  0.084 sec
 * total energy  :   -83.6225114 Eh     change       -0.5788987E-05 Eh
   gradient norm :     0.0015152 Eh/α   predicted    -0.3909013E-05 ( -32.48%)
   displ. norm   :     0.0298302 α      lambda       -0.4439014E-05
   maximum displ.:     0.0160819 α      in ANC's #3, #1, #6, ...

........................................................................
.............................. CYCLE   35 ..............................
........................................................................
   1    -84.3425835 -0.843426E+02  0.192E-03    0.10       0.0  T
   2    -84.3425719  0.116606E-04  0.101E-02    0.10       1.5  T
   3    -84.3425831 -0.112096E-04  0.271E-03    0.10       5.7  T
   4    -84.3425838 -0.698133E-06  0.551E-04    0.10      28.0  T
   5    -84.3425838  0.819441E-09  0.392E-04    0.10      39.3  T
   6    -84.3425838 -0.121550E-07  0.817E-05    0.10     188.8  T
   7    -84.3425838 -0.341629E-09  0.105E-05    0.10    1473.1  T
     SCC iter.                  ...        0 min,  0.029 sec
     gradient                   ...        0 min,  0.084 sec
 * total energy  :   -83.6225165 Eh     change       -0.5053212E-05 Eh
   gradient norm :     0.0007434 Eh/α   predicted    -0.2224010E-05 ( -55.99%)
   displ. norm   :     0.0741170 α      lambda       -0.6062852E-05
   maximum displ.:     0.0421739 α      in ANC's #1, #6, #3, ...

........................................................................
.............................. CYCLE   36 ..............................
........................................................................
   1    -84.3427521 -0.843428E+02  0.368E-03    0.10       0.0  T
   2    -84.3425980  0.154166E-03  0.365E-02    0.11       1.0  T
   3    -84.3427531 -0.155154E-03  0.224E-03    0.10       6.9  T
   4    -84.3427535 -0.416509E-06  0.966E-04    0.10      16.0  T
   5    -84.3427536 -0.139645E-07  0.737E-04    0.10      20.9  T
   6    -84.3427536 -0.509482E-07  0.115E-04    0.10     134.0  T
   7    -84.3427536 -0.586766E-09  0.116E-05    0.10    1332.6  T
     SCC iter.                  ...        0 min,  0.029 sec
     gradient                   ...        0 min,  0.085 sec
 * total energy  :   -83.6225234 Eh     change       -0.6942514E-05 Eh
   gradient norm :     0.0007439 Eh/α   predicted    -0.3039114E-05 ( -56.22%)
   displ. norm   :     0.1298185 α      lambda       -0.7023946E-05
   maximum displ.:     0.0758900 α      in ANC's #1, #6, #3, ...

........................................................................
.............................. CYCLE   37 ..............................
........................................................................
   1    -84.3425681 -0.843426E+02  0.400E-03    0.10       0.0  T
   2    -84.3423602  0.207916E-03  0.426E-02    0.11       1.0  T
   3    -84.3425681 -0.207913E-03  0.405E-03    0.10       3.8  T
   4    -84.3425694 -0.129830E-05  0.243E-03    0.10       6.3  T
   5    -84.3425697 -0.315299E-06  0.151E-03    0.10      10.2  T
   6    -84.3425699 -0.223521E-06  0.241E-04    0.10      64.1  T
   7    -84.3425699 -0.543277E-08  0.406E-05    0.10     380.0  T
   8    -84.3425699 -0.116117E-09  0.189E-05    0.10     814.3  T
     SCC iter.                  ...        0 min,  0.033 sec
     gradient                   ...        0 min,  0.085 sec
 * total energy  :   -83.6225315 Eh     change       -0.8056958E-05 Eh
   gradient norm :     0.0011340 Eh/α   predicted    -0.3539628E-05 ( -56.07%)
   displ. norm   :     0.1488640 α      lambda       -0.6742798E-05
   maximum displ.:     0.0890073 α      in ANC's #1, #6, #3, ...

........................................................................
.............................. CYCLE   38 ..............................
........................................................................
   1    -84.3423261 -0.843423E+02  0.433E-03    0.10       0.0  T
   2    -84.3420202  0.305900E-03  0.519E-02    0.11       1.0  T
   3    -84.3423254 -0.305257E-03  0.523E-03    0.10       2.9  T
   4    -84.3423275 -0.203711E-05  0.311E-03    0.10       5.0  T
   5    -84.3423278 -0.367104E-06  0.228E-03    0.10       6.8  T
   6    -84.3423283 -0.511400E-06  0.559E-04    0.10      27.6  T
   7    -84.3423284 -0.307010E-07  0.868E-05    0.10     177.7  T
   8    -84.3423284 -0.725748E-09  0.190E-05    0.10     812.5  T
     SCC iter.                  ...        0 min,  0.034 sec
     gradient                   ...        0 min,  0.085 sec
 * total energy  :   -83.6225377 Eh     change       -0.6241088E-05 Eh
   gradient norm :     0.0013877 Eh/α   predicted    -0.3406316E-05 ( -45.42%)
   displ. norm   :     0.0687538 α      lambda       -0.4921409E-05
   maximum displ.:     0.0400807 α      in ANC's #1, #3, #4, ...

........................................................................
.............................. CYCLE   39 ..............................
........................................................................
   1    -84.3427699 -0.843428E+02  0.327E-03    0.10       0.0  T
   2    -84.3426346  0.135330E-03  0.346E-02    0.11       1.0  T
   3    -84.3427702 -0.135613E-03  0.290E-03    0.10       5.3  T
   4    -84.3427704 -0.232692E-06  0.243E-03    0.10       6.3  T
   5    -84.3427706 -0.164171E-06  0.190E-03    0.10       8.1  T
   6    -84.3427710 -0.387147E-06  0.297E-04    0.10      52.0  T
   7    -84.3427710 -0.840799E-08  0.512E-05    0.10     301.7  T
   8    -84.3427710 -0.247141E-09  0.516E-06    0.10    2990.0  T
     SCC iter.                  ...        0 min,  0.033 sec
     gradient                   ...        0 min,  0.084 sec
 * total energy  :   -83.6225420 Eh     change       -0.4227924E-05 Eh
   gradient norm :     0.0006934 Eh/α   predicted    -0.2470356E-05 ( -41.57%)
   displ. norm   :     0.0868969 α      lambda       -0.3503778E-05
   maximum displ.:     0.0553397 α      in ANC's #1, #3, #5, ...

   *** GEOMETRY OPTIMIZATION CONVERGED AFTER 39 ITERATIONS ***

------------------------------------------------------------------------
 total energy gain   :        -0.0178391 Eh      -11.1942 kcal/mol
 total RMSD          :         0.6679209 a0        0.3534 Å
 total power (kW/mol):        -1.2009378 (step)   -7.4288 (real)
------------------------------------------------------------------------

 ANCopt (total)                0 d,  0 h,  0 min,  6.305 sec
 optimizer setup                ...        0 min,  0.001 sec (  0.014%)
 model hessian                  ...        0 min,  0.087 sec (  1.372%)
 ANC generation                 ...        0 min,  0.005 sec (  0.077%)
 coordinate transformation      ...        0 min,  0.002 sec (  0.035%)
 single point calculation       ...        0 min,  6.183 sec ( 98.064%)
 optimization log               ...        0 min,  0.013 sec (  0.207%)
 hessian update                 ...        0 min,  0.002 sec (  0.029%)
 rational function              ...        0 min,  0.008 sec (  0.120%)

================
 final structure:
================
42
 xtb: 6.5.1 (579679a)
C           -3.92251000625046        3.51354295299136       -0.22385488211144
O           -3.34051826784940        2.37634512496701       -0.83143297755968
C           -2.59126499794222        1.58115176497954        0.00029752071490
O           -2.47205268775139        1.89895117985567        1.18672328611196
C           -1.98676835954448        0.41519140574544       -0.62341400176952
C           -2.16042981201290        0.09963591524718       -2.00332640748197
O           -2.96635442665001        0.66361144220496       -2.80478527194605
C           -1.24418689287724       -0.96061045309902       -2.53075324641198
O           -1.09341622091252       -1.21565154380757       -3.73518607653368
N           -0.45520913052393       -1.60489381630859       -1.60983705434811
C           -0.79934858679963       -1.60485180875474       -0.19053053693920
C           -1.94261710689182       -2.62997770361445        0.03523280646452
C            0.48203114979739       -1.95158219156880        0.64236063402638
C            1.14270458046854       -3.27204482466258        0.23547776519080
C            0.13136047065672       -1.97451544681021        2.13872142635134
N            1.38617659570950       -0.83488700647535        0.36451786099091
C            2.61230423525633       -0.68960269001831        0.94401854579465
O            3.18764883819581       -1.57558604793005        1.60396343322517
C            3.24156522104535        0.59352934220745        0.68052179015830
N            4.41997684089363        1.00965802934576        1.11646986380335
N            4.58512243578624        2.28088048197973        0.64239838558773
C            3.52625029943678        2.57545876159485       -0.04148334811107
C            3.25072840945799        3.84751884162874       -0.75233917801759
O            2.62723553140643        1.56724230178200       -0.06771837887493
N           -1.20463512791382       -0.30225167135299        0.24128003630347
H           -4.46969482677701        4.05228644164435       -0.99798128476724
H           -3.15573103155886        4.17009465259349        0.20364702603334
H           -4.61431215364618        3.22324016041138        0.57534712786716
H            0.01884286224003       -2.42218237413517       -1.95958789732768
H           -2.78489884849429       -2.36170342325486       -0.60256250914680
H           -2.27271696124265       -2.60427209021371        1.07127479865841
H           -1.62367440977528       -3.63877990074355       -0.21756967946442
H            1.52876793054586       -3.21863715443573       -0.78164602215656
H            1.97397611174658       -3.49747343916286        0.90270067886409
H            0.42684428561091       -4.08933705651472        0.29820733311093
H            1.03917667561606       -1.99949864284978        2.74028211334110
H           -0.44384793377362       -1.08284853096932        2.39360004434825
H           -0.45756914103247       -2.85903604989993        2.37523681182708
H            0.87738392820171        0.01633900497227        0.11663646443149
H            3.04072227503012        3.65723933047846       -1.80478184450249
H            2.38585011535660        4.34934316029123       -0.31811950085387
H            4.11708913776417        4.49896357166421       -0.66995965487826
 
 Bond Distances (Angstroems)
 ---------------------------
C1-O2=1.4146         C1-H26=1.0904        C1-H27=1.0963        C1-H28=1.0962        O2-C1=1.4146         O2-C3=1.3731         
C3-O2=1.3731         C3-O4=1.2340         C3-C5=1.4539         O4-C3=1.2340         C5-C3=1.4539         C5-C6=1.4261         
C5-N25=1.3690        C6-C5=1.4261         C6-O7=1.2688         C6-C8=1.4973         O7-C6=1.2688         C8-C6=1.4973         
C8-O9=1.2403         C8-N10=1.3732        O9-C8=1.2403         N10-C8=1.3732        N10-C11=1.4604       N10-H29=1.0075       
C11-N10=1.4604       C11-C12=1.5521       C11-C13=1.5671       C11-N25=1.4309       C12-C11=1.5521       C12-H30=1.0900       
C12-H31=1.0877       C12-H32=1.0878       C13-C11=1.5671       C13-C14=1.5316       C13-C15=1.5371       C13-N16=1.4634       
C14-C13=1.5316       C14-H33=1.0892       C14-H34=1.0895       C14-H35=1.0883       C15-C13=1.5371       C15-H36=1.0893       
C15-H37=1.0913       C15-H38=1.0886       N16-C13=1.4634       N16-C17=1.3639       N16-H39=1.0222       C17-N16=1.3639       
C17-O18=1.2456       C17-C19=1.4532       O18-C17=1.2456       C19-C17=1.4532       C19-N20=1.3236       C19-O24=1.3731       
N20-C19=1.3236       N20-N21=1.3668       N21-N20=1.3668       N21-C22=1.2945       C22-N21=1.2945       C22-C23=1.4830       
C22-O24=1.3511       C23-C22=1.4830       C23-H40=1.0899       C23-H41=1.0901       C23-H42=1.0871       O24-C19=1.3731       
O24-C22=1.3511       N25-C5=1.3690        N25-C11=1.4309       H26-C1=1.0904        H27-C1=1.0963        H28-C1=1.0962        
H29-N10=1.0075       H30-C12=1.0900       H31-C12=1.0877       H32-C12=1.0878       H33-C14=1.0892       H34-C14=1.0895       
H35-C14=1.0883       H36-C15=1.0893       H37-C15=1.0913       H38-C15=1.0886       H39-N16=1.0222       H40-C23=1.0899       
H41-C23=1.0901       H42-C23=1.0871       
 C  H  Rav=1.0901 sigma=0.0026  Rmin=1.0871  Rmax=1.0963    15
 C  C  Rav=1.5002 sigma=0.0467  Rmin=1.4261  Rmax=1.5671     9
 N  H  Rav=1.0148 sigma=0.0074  Rmin=1.0075  Rmax=1.0222     2
 N  C  Rav=1.3849 sigma=0.0578  Rmin=1.2945  Rmax=1.4634     8
 N  N  Rav=1.3668 sigma=0.0000  Rmin=1.3668  Rmax=1.3668     1
 O  C  Rav=1.3126 sigma=0.0680  Rmin=1.2340  Rmax=1.4146     8
 
 selected bond angles (degree)
 --------------------
H26-C1-O2=107.38               H27-C1-O2=111.17               H27-C1-H26=109.39              H28-C1-O2=111.09               
H28-C1-H26=109.38              H28-C1-H27=108.40              C3-O2-C1=115.46                O4-C3-O2=119.07                
C5-C3-O2=115.56                C5-C3-O4=125.37                C6-C5-C3=122.81                N25-C5-C3=112.76               
N25-C5-C6=124.39               O7-C6-C5=126.17                C8-C6-C5=115.02                C8-C6-O7=118.75                
O9-C8-C6=124.20                N10-C8-C6=116.59               N10-C8-O9=119.01               C11-N10-C8=121.09              
H29-N10-C8=114.72              H29-N10-C11=116.63             
 
 selected dihedral angles (degree)
 ---------------------------------
C3-O2-C1-H26=179.20           C3-O2-C1-H27= 59.58           C3-O2-C1-H28=298.76           O4-C3-O2-C1=359.79            
C5-C3-O2-C1=180.28            C6-C5-C3-O2=359.51            C6-C5-C3-O4=180.04            N25-C5-C3-O2=177.21           
N25-C5-C3-O4=357.74           O7-C6-C5-C3=350.61            O7-C6-C5-N25=173.18           C8-C6-C5-C3=167.74            
C8-C6-C5-N25=350.31           O9-C8-C6-C5=192.21            O9-C8-C6-O7=  9.57            N10-C8-C6-C5=  6.92           
N10-C8-C6-O7=184.29           C11-N10-C8-C6= 20.42          C11-N10-C8-O9=195.43          H29-N10-C8-C6=169.05          
H29-N10-C8-O9=344.05          
           -------------------------------------------------
          |                Final Singlepoint                |
           -------------------------------------------------

          ...................................................
          :                      SETUP                      :
          :.................................................:
          :  # basis functions                 134          :
          :  # atomic orbitals                 134          :
          :  # shells                           84          :
          :  # electrons                       136          :
          :  # halogen bonds                     0          :
          :  max. iterations                   250          :
          :  Hamiltonian                  GFN1-xTB          :
          :  restarted?                      false          :
          :  GBSA solvation                   true          :
          :  PC potential                    false          :
          :  electronic temp.          300.0000000     K    :
          :  accuracy                    1.0000000          :
          :  -> integral cutoff          0.2500000E+02      :
          :  -> integral neglect         0.1000000E-07      :
          :  -> SCF convergence          0.1000000E-05 Eh   :
          :  -> wf. convergence          0.2000000E-04 e    :
          :  Broyden damping             0.4000000          :
          ...................................................

 iter      E             dE          RMSdq      gap      omega  full diag
   1    -84.3427710 -0.843428E+02  0.323E-06    0.10       0.0  T
   2    -84.3427710  0.169933E-09  0.385E-05    0.10     400.9  T
   3    -84.3427710 -0.170928E-09  0.150E-06    0.10   10311.8  T

   *** convergence criteria satisfied after 3 iterations ***

         #    Occupation            Energy/Eh            Energy/eV
      -------------------------------------------------------------
         1        2.0000           -0.8185773             -22.2746
       ...           ...                  ...                  ...
        62        2.0000           -0.4026510             -10.9567
        63        2.0000           -0.3965654             -10.7911
        64        2.0000           -0.3905872             -10.6284
        65        2.0000           -0.3787539             -10.3064
        66        2.0000           -0.3631795              -9.8826
        67        2.0000           -0.3344881              -9.1019
        68        1.7620           -0.2758210              -7.5055 (HOMO)
        69        0.2380           -0.2720174              -7.4020 (LUMO)
        70                         -0.2364546              -6.4343
        71                         -0.2220991              -6.0436
        72                         -0.1641496              -4.4667
        73                         -0.1519386              -4.1345
       ...                                ...                  ...
       134                          0.7404499              20.1487
      -------------------------------------------------------------
                  HL-Gap            0.0038036 Eh            0.1035 eV
             Fermi-level           -0.2739192 Eh           -7.4537 eV

 SCC (total)                   0 d,  0 h,  0 min,  0.138 sec
 SCC setup                      ...        0 min,  0.002 sec (  1.582%)
 Dispersion                     ...        0 min,  0.000 sec (  0.274%)
 classical contributions        ...        0 min,  0.000 sec (  0.086%)
 integral evaluation            ...        0 min,  0.038 sec ( 27.373%)
 iterations                     ...        0 min,  0.013 sec (  9.584%)
 molecular gradient             ...        0 min,  0.083 sec ( 60.181%)
 printout                       ...        0 min,  0.001 sec (  0.861%)

         :::::::::::::::::::::::::::::::::::::::::::::::::::::
         ::                     SUMMARY                     ::
         :::::::::::::::::::::::::::::::::::::::::::::::::::::
         :: total energy             -83.622541970909 Eh    ::
         :: total w/o Gsasa/hb       -83.604100486388 Eh    ::
         :: gradient norm              0.000693662392 Eh/a0 ::
         :: HOMO-LUMO gap              0.103502021833 eV    ::
         ::.................................................::
         :: SCC energy               -84.342770966478 Eh    ::
         :: -> electrostatic           0.699943050260 Eh    ::
         :: -> Gsolv                  -0.269703736634 Eh    ::
         ::    -> Gelec               -0.251262252113 Eh    ::
         ::    -> Gsasa               -0.023746405950 Eh    ::
         ::    -> Ghb                 -0.002319357576 Eh    ::
         ::    -> Gshift               0.007624279005 Eh    ::
         :: repulsion energy           0.747572796373 Eh    ::
         :: dispersion energy         -0.027343800805 Eh    ::
         :: halogen bond corr.         0.000000000000 Eh    ::
         :: add. restraining           0.000000000000 Eh    ::
         :: total charge              -2.000000000000 e     ::
         :::::::::::::::::::::::::::::::::::::::::::::::::::::

           -------------------------------------------------
          |                Property Printout                |
           -------------------------------------------------

    * Orbital Energies and Occupations

         #    Occupation            Energy/Eh            Energy/eV
      -------------------------------------------------------------
         1        2.0000           -0.8185773             -22.2746
       ...           ...                  ...                  ...
        56        2.0000           -0.4413921             -12.0109
        57        2.0000           -0.4372176             -11.8973
        58        2.0000           -0.4197334             -11.4215
        59        2.0000           -0.4164372             -11.3318
        60        2.0000           -0.4132206             -11.2443
        61        2.0000           -0.4078855             -11.0991
        62        2.0000           -0.4026510             -10.9567
        63        2.0000           -0.3965654             -10.7911
        64        2.0000           -0.3905872             -10.6284
        65        2.0000           -0.3787539             -10.3064
        66        2.0000           -0.3631795              -9.8826
        67        2.0000           -0.3344881              -9.1019
        68        1.7620           -0.2758210              -7.5055 (HOMO)
        69        0.2380           -0.2720174              -7.4020 (LUMO)
        70                         -0.2364546              -6.4343
        71                         -0.2220991              -6.0436
        72                         -0.1641496              -4.4667
        73                         -0.1519386              -4.1345
        74                         -0.1288986              -3.5075
        75                         -0.1104010              -3.0042
        76                         -0.1068316              -2.9070
        77                         -0.0996716              -2.7122
        78                         -0.0865865              -2.3561
        79                         -0.0825043              -2.2451
       ...                                ...                  ...
       134                          0.7404499              20.1487
      -------------------------------------------------------------
                  HL-Gap            0.0038036 Eh            0.1035 eV
             Fermi-level           -0.2739192 Eh           -7.4537 eV

  Mulliken/CM5 charges         n(s)   n(p)   n(d)
     1C     0.17841  0.05986   0.966  2.856  0.000
     2O    -0.44270 -0.52457   1.691  4.752  0.000
     3C     0.52471  0.58791   0.985  2.490  0.000
     4O    -0.64726 -0.69037   1.741  4.906  0.000
     5C     0.01464  0.09148   1.048  2.937  0.000
     6C     0.23145  0.27421   1.027  2.742  0.000
     7O    -0.69335 -0.72947   1.758  4.935  0.000
     8C     0.41680  0.51776   1.015  2.568  0.000
     9O    -0.65705 -0.69406   1.745  4.912  0.000
    10N    -0.38876 -0.73329   1.442  3.946  0.000
    11C     0.26612  0.36869   1.045  2.689  0.000
    12C    -0.11599 -0.25253   1.021  3.095  0.000
    13C     0.15609  0.19564   1.068  2.776  0.000
    14C    -0.10408 -0.24477   1.014  3.090  0.000
    15C    -0.09557 -0.23530   1.014  3.082  0.000
    16N    -0.34587 -0.68901   1.441  3.905  0.000
    17C     0.41376  0.51787   0.973  2.613  0.000
    18O    -0.65328 -0.69677   1.741  4.913  0.000
    19C     0.29151  0.41022   1.008  2.700  0.000
    20N    -0.30061 -0.39874   1.578  3.722  0.000
    21N    -0.30243 -0.41015   1.570  3.733  0.000
    22C     0.36754  0.47613   0.997  2.636  0.000
    23C    -0.10832 -0.24566   1.008  3.100  0.000
    24O    -0.38811 -0.44187   1.705  4.684  0.000
    25N    -0.54104 -0.72230   1.561  3.980  0.000
    26H     0.02242  0.08258   0.978  0.000  0.000
    27H     0.02262  0.08434   0.977  0.000  0.000
    28H     0.02208  0.08363   0.978  0.000  0.000
    29H     0.21690  0.41951   0.783  0.000  0.000
    30H     0.02841  0.08768   0.972  0.000  0.000
    31H     0.02608  0.08277   0.974  0.000  0.000
    32H     0.01848  0.07450   0.982  0.000  0.000
    33H     0.02719  0.08604   0.973  0.000  0.000
    34H     0.04051  0.10080   0.959  0.000  0.000
    35H     0.02241  0.07721   0.978  0.000  0.000
    36H     0.03153  0.09170   0.968  0.000  0.000
    37H     0.02875  0.09006   0.971  0.000  0.000
    38H     0.01819  0.07282   0.982  0.000  0.000
    39H     0.22308  0.43617   0.777  0.000  0.000
    40H     0.06084  0.11525   0.939  0.000  0.000
    41H     0.06218  0.11636   0.938  0.000  0.000
    42H     0.05169  0.10770   0.948  0.000  0.000

Wiberg/Mayer (AO) data.
largest (>0.10) Wiberg bond orders for each atom

 ---------------------------------------------------------------------------
     #   Z sym  total        # sym  WBO       # sym  WBO       # sym  WBO
 ---------------------------------------------------------------------------
     1   6 C    3.912 --    26 H    0.987    28 H    0.980    27 H    0.980
                             2 O    0.940
     2   8 O    2.132 --     3 C    1.011     1 C    0.940     4 O    0.100
     3   6 C    3.816 --     4 O    1.544     5 C    1.122     2 O    1.011
     4   8 O    1.814 --     3 C    1.544     2 O    0.100
     5   6 C    3.912 --    25 N    1.252     6 C    1.239     3 C    1.122
     6   6 C    3.874 --     7 O    1.418     5 C    1.239     8 C    1.000
     7   8 O    1.665 --     6 C    1.418
     8   6 C    3.861 --     9 O    1.530    10 N    1.169     6 C    1.000
     9   8 O    1.793 --     8 C    1.530    10 N    0.131
    10   7 N    3.256 --     8 C    1.169    11 C    0.924    29 H    0.915
                             9 O    0.131
    11   6 C    3.941 --    25 N    1.026    12 C    0.964    13 C    0.947
                            10 N    0.924
    12   6 C    3.976 --    30 H    0.984    32 H    0.984    31 H    0.984
                            11 C    0.964
    13   6 C    3.938 --    14 C    1.000    15 C    0.991    11 C    0.947
                            16 N    0.937
    14   6 C    3.994 --    13 C    1.000    35 H    0.984    33 H    0.982
                            34 H    0.979
    15   6 C    3.993 --    13 C    0.991    38 H    0.985    36 H    0.983
                            37 H    0.981
    16   7 N    3.269 --    17 C    1.197    13 C    0.937    39 H    0.887
                            18 O    0.142
    17   6 C    3.841 --    18 O    1.465    16 N    1.197    19 C    1.080
    18   8 O    1.751 --    17 C    1.465    16 N    0.142
    19   6 C    3.750 --    20 N    1.477    17 C    1.080    24 O    0.996
    20   7 N    2.810 --    19 C    1.477    21 N    1.189
    21   7 N    2.980 --    22 C    1.624    20 N    1.189
    22   6 C    3.831 --    21 N    1.624    24 O    1.055    23 C    1.026
    23   6 C    3.993 --    22 C    1.026    42 H    0.985    40 H    0.971
                            41 H    0.968
    24   8 O    2.233 --    22 C    1.055    19 C    0.996
    25   7 N    2.679 --     5 C    1.252    11 C    1.026
    26   1 H    1.018 --     1 C    0.987
    27   1 H    1.018 --     1 C    0.980
    28   1 H    1.018 --     1 C    0.980
    29   1 H    0.968 --    10 N    0.915
    30   1 H    1.011 --    12 C    0.984
    31   1 H    1.013 --    12 C    0.984
    32   1 H    1.007 --    12 C    0.984
    33   1 H    1.008 --    14 C    0.982
    34   1 H    1.021 --    14 C    0.979
    35   1 H    1.007 --    14 C    0.984
    36   1 H    1.015 --    15 C    0.983
    37   1 H    1.029 --    15 C    0.981
    38   1 H    1.007 --    15 C    0.985
    39   1 H    0.982 --    16 N    0.887
    40   1 H    1.000 --    23 C    0.971
    41   1 H    0.999 --    23 C    0.968
    42   1 H    1.003 --    23 C    0.985
 ---------------------------------------------------------------------------

Topologies differ in total number of bonds
Writing topology from bond orders to xtbtopo.mol

 dipole moment from electron density (au)
     X       Y       Z   
   0.5761  -0.1716   2.0934  total (Debye):    5.536

           -------------------------------------------------
          |                Geometry Summary                 |
           -------------------------------------------------

      molecular mass/u    :      351.3152409
   center of mass at/Å    :        0.1417754       0.1645015      -0.2298090
  moments of inertia/u·Å² :        0.1903348E+04   0.3083479E+04   0.3902157E+04
rotational constants/cm⁻¹ :        0.8856831E-02   0.5467082E-02   0.4320081E-02

 * 34 selected distances

     #   Z          #   Z                                           value/Å
     1   6 C        2   8 O                                       1.4145970
     2   8 O        3   6 C                                       1.3731311
     3   6 C        4   8 O                                       1.2340237
     5   6 C        6   6 C                                       1.4261459
     8   6 C        9   8 O                                       1.2403372
     8   6 C       10   7 N                                       1.3731984
    10   7 N       11   6 C                                       1.4604326
    13   6 C       14   6 C                                       1.5315564
    13   6 C       15   6 C                                       1.5370725 (max)
    13   6 C       16   7 N                                       1.4634494
    16   7 N       17   6 C                                       1.3639347
    19   6 C       20   7 N                                       1.3235815
    21   7 N       22   6 C                                       1.2944810
    22   6 C       23   6 C                                       1.4830258
    19   6 C       24   8 O                                       1.3730920
    22   6 C       24   8 O                                       1.3510798
     5   6 C       25   7 N                                       1.3689971
     1   6 C       26   1 H                                       1.0903796
     1   6 C       27   1 H                                       1.0962519
     1   6 C       28   1 H                                       1.0961706
    10   7 N       29   1 H                                       1.0074779 (min)
    12   6 C       30   1 H                                       1.0900425
    12   6 C       31   1 H                                       1.0876626
    12   6 C       32   1 H                                       1.0878031
    14   6 C       33   1 H                                       1.0892375
    14   6 C       34   1 H                                       1.0895031
    14   6 C       35   1 H                                       1.0882820
    15   6 C       36   1 H                                       1.0893254
    15   6 C       37   1 H                                       1.0912827
    15   6 C       38   1 H                                       1.0886480
    16   7 N       39   1 H                                       1.0222040
    23   6 C       40   1 H                                       1.0899287
    23   6 C       41   1 H                                       1.0901326
    23   6 C       42   1 H                                       1.0870822

 * 5 distinct bonds (by element types)

   Z      Z             #   av. dist./Å        max./Å        min./Å
   1 H    6 C          15     1.0901155     1.0962519     1.0870822
   6 C    6 C           4     1.4944502     1.5370725     1.4261459
   1 H    7 N           2     1.0148410     1.0222040     1.0074779
   6 C    7 N           7     1.3782964     1.4634494     1.2944810
   6 C    8 O           6     1.3310435     1.4145970     1.2340237


optimized geometry written to: xtbopt.xyz


           -------------------------------------------------
          | TOTAL ENERGY              -83.622541970909 Eh   |
          | GRADIENT NORM               0.000693662392 Eh/α |
          | HOMO-LUMO GAP               0.103502021833 eV   |
           -------------------------------------------------

------------------------------------------------------------------------
 * finished run on 2023/06/21 at 17:15:10.809     
------------------------------------------------------------------------
 total:
 * wall-time:     0 d,  0 h,  0 min,  6.837 sec
 *  cpu-time:     0 d,  0 h,  0 min,  6.662 sec
 * ratio c/w:     0.974 speedup
 SCF:
 * wall-time:     0 d,  0 h,  0 min,  0.192 sec
 *  cpu-time:     0 d,  0 h,  0 min,  0.191 sec
 * ratio c/w:     0.999 speedup
 ANC optimizer:
 * wall-time:     0 d,  0 h,  0 min,  6.482 sec
 *  cpu-time:     0 d,  0 h,  0 min,  6.417 sec
 * ratio c/w:     0.990 speedup

