42
 energy: -83.622541970909 gnorm: 0.000693662392 xtb: 6.5.1 (579679a)
C           -3.92251000625046        3.51354295299136       -0.22385488211144
O           -3.34051826784940        2.37634512496701       -0.83143297755968
C           -2.59126499794222        1.58115176497954        0.00029752071490
O           -2.47205268775139        1.89895117985567        1.18672328611196
C           -1.98676835954448        0.41519140574544       -0.62341400176952
C           -2.16042981201290        0.09963591524718       -2.00332640748197
O           -2.96635442665001        0.66361144220496       -2.80478527194605
C           -1.24418689287724       -0.96061045309902       -2.53075324641198
O           -1.09341622091252       -1.21565154380757       -3.73518607653368
N           -0.45520913052393       -1.60489381630859       -1.60983705434811
C           -0.79934858679963       -1.60485180875474       -0.19053053693920
C           -1.94261710689182       -2.62997770361445        0.03523280646452
C            0.48203114979739       -1.95158219156880        0.64236063402638
C            1.14270458046854       -3.27204482466258        0.23547776519080
C            0.13136047065672       -1.97451544681021        2.13872142635134
N            1.38617659570950       -0.83488700647535        0.36451786099091
C            2.61230423525633       -0.68960269001831        0.94401854579465
O            3.18764883819581       -1.57558604793005        1.60396343322517
C            3.24156522104535        0.59352934220745        0.68052179015830
N            4.41997684089363        1.00965802934576        1.11646986380335
N            4.58512243578624        2.28088048197973        0.64239838558773
C            3.52625029943678        2.57545876159485       -0.04148334811107
C            3.25072840945799        3.84751884162874       -0.75233917801759
O            2.62723553140643        1.56724230178200       -0.06771837887493
N           -1.20463512791382       -0.30225167135299        0.24128003630347
H           -4.46969482677701        4.05228644164435       -0.99798128476724
H           -3.15573103155886        4.17009465259349        0.20364702603334
H           -4.61431215364618        3.22324016041138        0.57534712786716
H            0.01884286224003       -2.42218237413517       -1.95958789732768
H           -2.78489884849429       -2.36170342325486       -0.60256250914680
H           -2.27271696124265       -2.60427209021371        1.07127479865841
H           -1.62367440977528       -3.63877990074355       -0.21756967946442
H            1.52876793054586       -3.21863715443573       -0.78164602215656
H            1.97397611174658       -3.49747343916286        0.90270067886409
H            0.42684428561091       -4.08933705651472        0.29820733311093
H            1.03917667561606       -1.99949864284978        2.74028211334110
H           -0.44384793377362       -1.08284853096932        2.39360004434825
H           -0.45756914103247       -2.85903604989993        2.37523681182708
H            0.87738392820171        0.01633900497227        0.11663646443149
H            3.04072227503012        3.65723933047846       -1.80478184450249
H            2.38585011535660        4.34934316029123       -0.31811950085387
H            4.11708913776417        4.49896357166421       -0.66995965487826
