42
 energy: -83.010306005570 gnorm: 0.000271289845 xtb: 6.5.1 (579679a)
C           -6.16609416297333        2.46534707752444       -1.38773747128639
O           -5.08091661854411        1.53957875789302       -1.28037801369661
C           -4.09743246632507        1.86807897392324       -0.44784202482633
O           -4.09133227161320        2.88747223066850        0.20318685015105
C           -2.99102875040232        0.86019405967051       -0.40501546253294
N           -1.92576656169817        1.23980273850671        0.33083641723288
C           -0.88491140255729        0.44591467830025        0.41622361542957
C            0.28662618921811        0.89657867987879        1.26564136071914
C            0.49114005776063        2.40906495281380        1.12743932386029
C            0.00314848289240        0.50690356018399        2.72597989324102
N            1.46647029181659        0.17952179159791        0.78369526477568
C            2.70124080283496        0.31771580449762        1.29609674691724
O            3.01772584185144        1.06460804302150        2.20730313150886
C            3.66705124142512       -0.56384381283479        0.58499916592745
N            3.38535005472337       -1.38856278504287       -0.37912983221983
N            4.55829269283919       -1.97801828997185       -0.74729031182828
C            5.48038121883851       -1.47423212488636        0.01572451427660
C            6.92713115955276       -1.78474384399274        0.00913837395068
O            4.98029064329405       -0.57627975423757        0.87778547716356
N           -0.79594027921712       -0.76199765305675       -0.16790601696662
C           -1.82492626054238       -1.16647933859038       -0.88014206345682
O           -1.81037415730591       -2.35724189252734       -1.48731730061032
C           -0.64676931834393       -3.16607744387422       -1.30797942550781
C           -2.98776030152656       -0.36934714535636       -1.04562646901867
O           -4.01368010750103       -0.81751176651298       -1.78662161434510
H           -6.85601527012193        2.05129068452541       -2.12009130286466
H           -6.66112269550307        2.57783608881830       -0.42024320098228
H           -5.79765418543655        3.43869544073253       -1.72062232966764
H            0.74914728808738        2.65646459520773        0.09851258657544
H           -0.43348595930280        2.91999828897832        1.39268069948802
H            1.28836700186333        2.74516596640664        1.78759670514898
H            0.82498670994171        0.82681601270522        3.36439903162535
H           -0.91617550213157        0.98753541686759        3.05715426347456
H           -0.11148334009376       -0.57308323532237        2.80373670202196
H            1.31193094088439       -0.51401442665459        0.06270730344785
H            7.50200193970054       -0.87824210281506       -0.17913551580818
H            7.22854403023618       -2.17975643274387        0.97910869065162
H            7.13923702766379       -2.51885231025675       -0.76403154232329
H            0.24318506552127       -2.62537535072907       -1.64133837852825
H           -0.53335798345372       -3.43146900931406       -0.25371175225698
H           -0.79639900723156       -4.06027117895668       -1.90996045303482
H           -3.82962307911047       -1.69918694503688       -2.14131263582085
