      -----------------------------------------------------------      
     |                   =====================                   |     
     |                           x T B                           |     
     |                   =====================                   |     
     |                         S. Grimme                         |     
     |          Mulliken Center for Theoretical Chemistry        |     
     |                    University of Bonn                     |     
      -----------------------------------------------------------      

   * xtb version 6.5.1 (579679a) compiled by 'ehlert@majestix' on 2022-07-11

   xtb is free software: you can redistribute it and/or modify it under
   the terms of the GNU Lesser General Public License as published by
   the Free Software Foundation, either version 3 of the License, or
   (at your option) any later version.
   
   xtb is distributed in the hope that it will be useful,
   but WITHOUT ANY WARRANTY; without even the implied warranty of
   MERCHANTABILITY or FITNESS FOR A PARTICULAR PURPOSE.  See the
   GNU Lesser General Public License for more details.
   
   Cite this work as:
   * C. Bannwarth, E. Caldeweyher, S. Ehlert, A. Hansen, P. Pracht,
     J. Seibert, S. Spicher, S. Grimme, WIREs Comput. Mol. Sci., 2020, 11,
     e01493. DOI: 10.1002/wcms.1493
   
   for GFN2-xTB:
   * C. Bannwarth, S. Ehlert and S. Grimme., J. Chem. Theory Comput., 2019,
     15, 1652-1671. DOI: 10.1021/acs.jctc.8b01176
   for GFN1-xTB:
   * S. Grimme, C. Bannwarth, P. Shushkov, J. Chem. Theory Comput., 2017,
     13, 1989-2009. DOI: 10.1021/acs.jctc.7b00118
   for GFN0-xTB:
   * P. Pracht, E. Caldeweyher, S. Ehlert, S. Grimme, ChemRxiv, 2019, preprint.
     DOI: 10.26434/chemrxiv.8326202.v1
   for GFN-FF:
   * S. Spicher and S. Grimme, Angew. Chem. Int. Ed., 2020, 59, 15665-15673.
     DOI: 10.1002/anie.202004239
   
   for ALPB and GBSA implicit solvation:
   * S. Ehlert, M. Stahn, S. Spicher, S. Grimme, J. Chem. Theory Comput.,
     2021, 17, 4250-4261. DOI: 10.1021/acs.jctc.1c00471
   
   for DFT-D4:
   * E. Caldeweyher, C. Bannwarth and S. Grimme, J. Chem. Phys., 2017,
     147, 034112. DOI: 10.1063/1.4993215
   * E. Caldeweyher, S. Ehlert, A. Hansen, H. Neugebauer, S. Spicher,
     C. Bannwarth and S. Grimme, J. Chem. Phys., 2019, 150, 154122.
     DOI: 10.1063/1.5090222
   * E. Caldeweyher, J.-M. Mewes, S. Ehlert and S. Grimme, Phys. Chem. Chem. Phys.
     2020, 22, 8499-8512. DOI: 10.1039/D0CP00502A
   
   for sTDA-xTB:
   * S. Grimme and C. Bannwarth, J. Chem. Phys., 2016, 145, 054103.
     DOI: 10.1063/1.4959605
   
   in the mass-spec context:
   * V. Asgeirsson, C. Bauer and S. Grimme, Chem. Sci., 2017, 8, 4879.
     DOI: 10.1039/c7sc00601b
   * J. Koopman and S. Grimme, ACS Omega 2019, 4, 12, 15120-15133.
     DOI: 10.1021/acsomega.9b02011
   
   for metadynamics refer to:
   * S. Grimme, J. Chem. Theory Comput., 2019, 155, 2847-2862
     DOI: 10.1021/acs.jctc.9b00143
   
   for SPH calculations refer to:
   * S. Spicher and S. Grimme, J. Chem. Theory Comput., 2021, 17, 1701-1714
     DOI: 10.1021/acs.jctc.0c01306
   
   with help from (in alphabetical order)
   P. Atkinson, C. Bannwarth, F. Bohle, G. Brandenburg, E. Caldeweyher
   M. Checinski, S. Dohm, S. Ehlert, S. Ehrlich, I. Gerasimov, C. Hölzer
   A. Katbashev, J. Koopman, C. Lavigne, S. Lehtola, F. März, M. Müller,
   F. Musil, H. Neugebauer, J. Pisarek, C. Plett, P. Pracht, F. Pultar,
   J. Seibert, P. Shushkov, S. Spicher, M. Stahn, M. Steiner, T. Strunk,
   J. Stückrath, T. Rose, and J. Unsleber
   
 * started run on 2023/06/21 at 17:36:14.105     

           -------------------------------------------------
          |                Calculation Setup                |
           -------------------------------------------------

          program call               : /lustre/hpc/kemi/ree/PhD/git/ReactivityQM/dep/xtb-6.5.1/bin/xtb --gfn 1 /lustre/hpc/kemi/ree/PhD/git/ReactivityQM/calculations/R02oxygendeprot/reac01prodN16/conf05/R02oxygendeprot_reac01prodN16_conf05_gfn1.xyz --opt --vfukui --chrg 0 --uhf 0 --alpb DMSO
          hostname                   : node070
          coordinate file            : /lustre/hpc/kemi/ree/PhD/git/ReactivityQM/calculations/R02oxygendeprot/reac01prodN16/conf05/R02oxygendeprot_reac01prodN16_conf05_gfn1.xyz
          omp threads                :                     1

   ID    Z sym.   atoms
    1    6 C      1, 2, 5, 6, 9-12, 14, 15, 18-20, 22
    2    7 N      3, 4, 8, 13, 24
    3    8 O      7, 16, 17, 21, 23, 25
    4    1 H      26-42

           -------------------------------------------------
          |                 G F N 1 - x T B                 |
           -------------------------------------------------

        Reference                      10.1021/acs.jctc.7b00118
      * Hamiltonian:
        H0-scaling (s, p, d)           1.850000    2.250000    2.000000
        zeta-weighting                 0.000000
      * Dispersion:
        s8                             2.400000
        a1                             0.630000
        a2                             5.000000
        s9                             0.000000
      * Repulsion:
        kExp                           1.500000
        rExp                           1.000000
      * Coulomb:
        alpha                          2.000000
        third order                    atomic
        anisotropic                    false
      * Halogen bond correction:
        rad-scale                      1.300000
        damping                        0.440000

      * Solvation model:               ALPB
        Solvent                        DMSO
        Parameter file                 internal GFN1-xTB/ALPB
        Dielectric constant                4.6680E+01
        Reference state                gsolv [1 M gas/solution]
        Free energy shift                  7.6243E-03 Eh       4.7843E+00 kcal/mol
        Temperature                        2.9815E+02 K
        Density                            1.1000E+00 kg/L
        Solvent mass                       7.8130E+01 g/mol
        Interaction kernel             P16
        Born radius scaling (c1)           1.7672E+00
        Born radii integrator          GBOBC
        Born offset                        0.0000E+00 a0       0.0000E+00 AA
        H-bond correction              true
        Ion screening                  false
        Surface tension                    1.0000E-05 Eh       1.5569E+01 dyn/cm
        Grid points                               230 per atom

          ...................................................
          :                      SETUP                      :
          :.................................................:
          :  # basis functions                 134          :
          :  # atomic orbitals                 134          :
          :  # shells                           84          :
          :  # electrons                       134          :
          :  # halogen bonds                     0          :
          :  max. iterations                   250          :
          :  Hamiltonian                  GFN1-xTB          :
          :  restarted?                      false          :
          :  GBSA solvation                   true          :
          :  PC potential                    false          :
          :  electronic temp.          300.0000000     K    :
          :  accuracy                    1.0000000          :
          :  -> integral cutoff          0.2500000E+02      :
          :  -> integral neglect         0.1000000E-07      :
          :  -> SCF convergence          0.1000000E-05 Eh   :
          :  -> wf. convergence          0.2000000E-04 e    :
          :  Broyden damping             0.4000000          :
          ...................................................

 iter      E             dE          RMSdq      gap      omega  full diag
   1    -83.2769875 -0.832770E+02  0.852E+00    2.54       0.0  T
   2    -83.6624282 -0.385441E+00  0.509E+00    2.05       1.0  T
   3    -83.6345642  0.278640E-01  0.191E+00    2.01       1.0  T
   4    -83.6887980 -0.542339E-01  0.287E-01    1.87       1.0  T
   5    -83.6933211 -0.452308E-02  0.805E-02    1.88       1.0  T
   6    -83.6937011 -0.380006E-03  0.198E-02    1.91       1.0  T
   7    -83.6937129 -0.118089E-04  0.677E-03    1.92       2.3  T
   8    -83.6937134 -0.476688E-06  0.207E-03    1.93       7.5  T
   9    -83.6937135 -0.585855E-07  0.708E-04    1.93      21.8  T
  10    -83.6937135 -0.230250E-08  0.310E-04    1.93      49.7  T
  11    -83.6937135 -0.620346E-09  0.489E-05    1.93     315.5  T
  12    -83.6937135 -0.556497E-10  0.199E-05    1.93     774.2  T

   *** convergence criteria satisfied after 12 iterations ***

         #    Occupation            Energy/Eh            Energy/eV
      -------------------------------------------------------------
         1        2.0000           -0.8963822             -24.3918
       ...           ...                  ...                  ...
        61        2.0000           -0.4630662             -12.6007
        62        2.0000           -0.4574159             -12.4469
        63        2.0000           -0.4479736             -12.1900
        64        2.0000           -0.4449221             -12.1069
        65        2.0000           -0.4376477             -11.9090
        66        2.0000           -0.4038220             -10.9886
        67        2.0000           -0.3885782             -10.5738 (HOMO)
        68                         -0.3177012              -8.6451 (LUMO)
        69                         -0.3124095              -8.5011
        70                         -0.2662576              -7.2452
        71                         -0.2586924              -7.0394
        72                         -0.2418313              -6.5806
       ...                                ...                  ...
       134                          0.7933327              21.5877
      -------------------------------------------------------------
                  HL-Gap            0.0708770 Eh            1.9287 eV
             Fermi-level           -0.3531397 Eh           -9.6094 eV

 SCC (total)                   0 d,  0 h,  0 min,  0.174 sec
 SCC setup                      ...        0 min,  0.002 sec (  1.102%)
 Dispersion                     ...        0 min,  0.000 sec (  0.182%)
 classical contributions        ...        0 min,  0.000 sec (  0.062%)
 integral evaluation            ...        0 min,  0.048 sec ( 27.865%)
 iterations                     ...        0 min,  0.065 sec ( 37.561%)
 molecular gradient             ...        0 min,  0.056 sec ( 32.469%)
 printout                       ...        0 min,  0.001 sec (  0.743%)

         :::::::::::::::::::::::::::::::::::::::::::::::::::::
         ::                     SUMMARY                     ::
         :::::::::::::::::::::::::::::::::::::::::::::::::::::
         :: total energy             -82.927494801829 Eh    ::
         :: total w/o Gsasa/hb       -82.906752572164 Eh    ::
         :: gradient norm              0.143684886843 Eh/a0 ::
         :: HOMO-LUMO gap              1.928661555582 eV    ::
         ::.................................................::
         :: SCC energy               -83.693713470568 Eh    ::
         :: -> electrostatic           0.402792890377 Eh    ::
         :: -> Gsolv                  -0.085095480595 Eh    ::
         ::    -> Gelec               -0.064353250930 Eh    ::
         ::    -> Gsasa               -0.024264293509 Eh    ::
         ::    -> Ghb                 -0.004102215161 Eh    ::
         ::    -> Gshift               0.007624279005 Eh    ::
         :: repulsion energy           0.792480090096 Eh    ::
         :: dispersion energy         -0.026261421358 Eh    ::
         :: halogen bond corr.         0.000000000000 Eh    ::
         :: add. restraining           0.000000000000 Eh    ::
         :: total charge               0.000000000000 e     ::
         :::::::::::::::::::::::::::::::::::::::::::::::::::::

      ----------------------------------------------------------- 
     |                   =====================                   |
     |                        A N C O P T                        |
     |                   =====================                   |
     |               Approximate Normal Coordinate               |
     |                Rational Function Optimizer                |
      ----------------------------------------------------------- 

          ...................................................
          :                      SETUP                      :
          :.................................................:
          :   optimization level            normal          :
          :   max. optcycles                   200          :
          :   ANC micro-cycles                  20          :
          :   degrees of freedom               120          :
          :.................................................:
          :   RF solver                   davidson          :
          :   write xtbopt.log                true          :
          :   linear?                        false          :
          :   energy convergence         0.5000000E-05 Eh   :
          :   grad. convergence          0.1000000E-02 Eh/α :
          :   maximium RF displ.         1.0000000          :
          :   Hlow (freq-cutoff)         0.1000000E-01      :
          :   Hmax (freq-cutoff)         5.0000000          :
          :   S6 in model hess.         20.0000000          :
          ...................................................

generating ANC from model Hessian ...
Using Lindh-Hessian (1995)
 Shifting diagonal of input Hessian by   9.831412012071619E-003
 Lowest  eigenvalues of input Hessian
    0.000000    0.000000    0.000000    0.000000    0.000000    0.000000
    0.010000    0.010125    0.010761    0.011105    0.011554    0.012275
    0.012628    0.012912    0.014459    0.016356    0.016857    0.017630
 Highest eigenvalues
    2.084738    2.143783    2.156832    2.319781    2.341637    2.460934
 

........................................................................
.............................. CYCLE    1 ..............................
........................................................................
   1    -83.6937135 -0.836937E+02  0.821E-06    1.93       0.0  T
   2    -83.6937135 -0.568434E-12  0.420E-06    1.93    3670.8  T
   3    -83.6937135 -0.113687E-12  0.201E-06    1.93    7662.8  T
     SCC iter.                  ...        0 min,  0.016 sec
     gradient                   ...        0 min,  0.057 sec
 * total energy  :   -82.9274948 Eh     change       -0.6977530E-11 Eh
   gradient norm :     0.1436849 Eh/α   predicted     0.0000000E+00 (-100.00%)
   displ. norm   :     0.3266103 α      lambda       -0.2089416E-01
   maximum displ.:     0.1414258 α      in ANC's #32, #41, #29, ...

........................................................................
.............................. CYCLE    2 ..............................
........................................................................
   1    -83.7132300 -0.837132E+02  0.960E-02    2.17       0.0  T
   2    -83.7135809 -0.350905E-03  0.435E-02    2.16       1.0  T
   3    -83.7136266 -0.457659E-04  0.178E-02    2.17       1.0  T
   4    -83.7136269 -0.314404E-06  0.724E-03    2.18       2.1  T
   5    -83.7136272 -0.243833E-06  0.148E-03    2.18      10.4  T
   6    -83.7136272 -0.633197E-07  0.367E-04    2.18      42.0  T
   7    -83.7136272 -0.329929E-08  0.145E-04    2.18     106.4  T
   8    -83.7136273 -0.403844E-09  0.523E-05    2.18     295.3  T
     SCC iter.                  ...        0 min,  0.043 sec
     gradient                   ...        0 min,  0.057 sec
 * total energy  :   -82.9430095 Eh     change       -0.1551467E-01 Eh
   gradient norm :     0.0807142 Eh/α   predicted    -0.1157591E-01 ( -25.39%)
   displ. norm   :     0.3240494 α      lambda       -0.1116171E-01
   maximum displ.:     0.0952578 α      in ANC's #29, #22, #7, ...

........................................................................
.............................. CYCLE    3 ..............................
........................................................................
   1    -83.7332400 -0.837332E+02  0.103E-01    2.40       0.0  T
   2    -83.7336586 -0.418652E-03  0.464E-02    2.40       1.0  T
   3    -83.7337236 -0.650078E-04  0.184E-02    2.40       1.0  T
   4    -83.7337249 -0.122727E-05  0.819E-03    2.40       1.9  T
   5    -83.7337253 -0.488179E-06  0.185E-03    2.40       8.4  T
   6    -83.7337254 -0.722774E-07  0.517E-04    2.40      29.8  T
   7    -83.7337254 -0.581531E-08  0.197E-04    2.40      78.5  T
   8    -83.7337254 -0.515911E-09  0.523E-05    2.40     295.2  T
     SCC iter.                  ...        0 min,  0.043 sec
     gradient                   ...        0 min,  0.057 sec
 * total energy  :   -82.9497357 Eh     change       -0.6726236E-02 Eh
   gradient norm :     0.0303177 Eh/α   predicted    -0.6169655E-02 (  -8.27%)
   displ. norm   :     0.2759899 α      lambda       -0.2199750E-02
   maximum displ.:     0.1338905 α      in ANC's #7, #4, #18, ...

........................................................................
.............................. CYCLE    4 ..............................
........................................................................
   1    -83.7380020 -0.837380E+02  0.427E-02    2.45       0.0  T
   2    -83.7381011 -0.990792E-04  0.220E-02    2.45       1.0  T
   3    -83.7381170 -0.158618E-04  0.878E-03    2.45       1.8  T
   4    -83.7381173 -0.328621E-06  0.420E-03    2.45       3.7  T
   5    -83.7381174 -0.137502E-06  0.853E-04    2.45      18.1  T
   6    -83.7381175 -0.137211E-07  0.284E-04    2.45      54.4  T
   7    -83.7381175 -0.140692E-08  0.108E-04    2.45     142.8  T
   8    -83.7381175 -0.121119E-09  0.246E-05    2.45     628.5  T
     SCC iter.                  ...        0 min,  0.043 sec
     gradient                   ...        0 min,  0.057 sec
 * total energy  :   -82.9514791 Eh     change       -0.1743350E-02 Eh
   gradient norm :     0.0240852 Eh/α   predicted    -0.1183710E-02 ( -32.10%)
   displ. norm   :     0.4847308 α      lambda       -0.2753650E-02
   maximum displ.:     0.2458923 α      in ANC's #7, #4, #2, ...

........................................................................
.............................. CYCLE    5 ..............................
........................................................................
   1    -83.7397592 -0.837398E+02  0.712E-02    2.48       0.0  T
   2    -83.7400510 -0.291848E-03  0.360E-02    2.48       1.0  T
   3    -83.7400924 -0.414106E-04  0.142E-02    2.48       1.1  T
   4    -83.7400933 -0.887337E-06  0.746E-03    2.48       2.1  T
   5    -83.7400937 -0.428983E-06  0.130E-03    2.48      11.9  T
   6    -83.7400938 -0.392266E-07  0.441E-04    2.48      35.0  T
   7    -83.7400938 -0.348919E-08  0.189E-04    2.48      81.4  T
   8    -83.7400938 -0.432777E-09  0.408E-05    2.48     378.3  T
     SCC iter.                  ...        0 min,  0.042 sec
     gradient                   ...        0 min,  0.057 sec
 * total energy  :   -82.9535204 Eh     change       -0.2041295E-02 Eh
   gradient norm :     0.0254775 Eh/α   predicted    -0.1700361E-02 ( -16.70%)
   displ. norm   :     0.4718236 α      lambda       -0.1893726E-02
   maximum displ.:     0.2610869 α      in ANC's #7, #4, #2, ...

........................................................................
.............................. CYCLE    6 ..............................
........................................................................
   1    -83.7431184 -0.837431E+02  0.746E-02    2.49       0.0  T
   2    -83.7434302 -0.311847E-03  0.262E-02    2.48       1.0  T
   3    -83.7434487 -0.185069E-04  0.107E-02    2.48       1.4  T
   4    -83.7434496 -0.928631E-06  0.663E-03    2.49       2.3  T
   5    -83.7434501 -0.460267E-06  0.112E-03    2.48      13.8  T
   6    -83.7434501 -0.315335E-07  0.406E-04    2.48      38.0  T
   7    -83.7434501 -0.291337E-08  0.194E-04    2.48      79.5  T
   8    -83.7434501 -0.475595E-09  0.409E-05    2.48     377.4  T
     SCC iter.                  ...        0 min,  0.033 sec
     gradient                   ...        0 min,  0.055 sec
 * total energy  :   -82.9549372 Eh     change       -0.1416850E-02 Eh
   gradient norm :     0.0202621 Eh/α   predicted    -0.1157655E-02 ( -18.29%)
   displ. norm   :     0.4679834 α      lambda       -0.1389613E-02
   maximum displ.:     0.2559751 α      in ANC's #7, #4, #2, ...

........................................................................
.............................. CYCLE    7 ..............................
........................................................................
   1    -83.7456153 -0.837456E+02  0.656E-02    2.47       0.0  T
   2    -83.7458437 -0.228459E-03  0.265E-02    2.47       1.0  T
   3    -83.7458657 -0.219320E-04  0.982E-03    2.47       1.6  T
   4    -83.7458667 -0.105718E-05  0.609E-03    2.47       2.5  T
   5    -83.7458671 -0.321035E-06  0.938E-04    2.47      16.4  T
   6    -83.7458671 -0.254955E-07  0.316E-04    2.47      48.8  T
   7    -83.7458671 -0.203960E-08  0.162E-04    2.47      95.3  T
   8    -83.7458671 -0.332037E-09  0.365E-05    2.47     423.0  T
     SCC iter.                  ...        0 min,  0.041 sec
     gradient                   ...        0 min,  0.052 sec
 * total energy  :   -82.9559440 Eh     change       -0.1006810E-02 Eh
   gradient norm :     0.0195735 Eh/α   predicted    -0.8469771E-03 ( -15.88%)
   displ. norm   :     0.4297365 α      lambda       -0.1088676E-02
   maximum displ.:     0.2395538 α      in ANC's #7, #4, #2, ...

........................................................................
.............................. CYCLE    8 ..............................
........................................................................
   1    -83.7537738 -0.837538E+02  0.781E-02    2.48       0.0  T
   2    -83.7541361 -0.362298E-03  0.177E-02    2.47       1.0  T
   3    -83.7541472 -0.111501E-04  0.747E-03    2.47       2.1  T
   4    -83.7541477 -0.427787E-06  0.358E-03    2.47       4.3  T
   5    -83.7541478 -0.106939E-06  0.103E-03    2.47      15.0  T
   6    -83.7541478 -0.175610E-07  0.320E-04    2.47      48.2  T
   7    -83.7541478 -0.227216E-08  0.163E-04    2.47      94.7  T
   8    -83.7541478 -0.342951E-09  0.353E-05    2.47     437.5  T
     SCC iter.                  ...        0 min,  0.039 sec
     gradient                   ...        0 min,  0.054 sec
 * total energy  :   -82.9564919 Eh     change       -0.5478569E-03 Eh
   gradient norm :     0.0172532 Eh/α   predicted    -0.6448821E-03 (  17.71%)
   displ. norm   :     0.3475240 α      lambda       -0.6361983E-03
   maximum displ.:     0.2010960 α      in ANC's #4, #7, #2, ...

........................................................................
.............................. CYCLE    9 ..............................
........................................................................
   1    -83.7520885 -0.837521E+02  0.424E-02    2.44       0.0  T
   2    -83.7521960 -0.107474E-03  0.259E-02    2.45       1.0  T
   3    -83.7522226 -0.265816E-04  0.882E-03    2.45       1.8  T
   4    -83.7522227 -0.123220E-06  0.417E-03    2.45       3.7  T
   5    -83.7522228 -0.902493E-07  0.668E-04    2.45      23.1  T
   6    -83.7522228 -0.117046E-07  0.195E-04    2.45      79.2  T
   7    -83.7522228 -0.780290E-09  0.887E-05    2.45     174.0  T
     SCC iter.                  ...        0 min,  0.035 sec
     gradient                   ...        0 min,  0.055 sec
 * total energy  :   -82.9567961 Eh     change       -0.3042135E-03 Eh
   gradient norm :     0.0131841 Eh/α   predicted    -0.3565185E-03 (  17.19%)
   displ. norm   :     0.0952258 α      lambda       -0.1915700E-03
   maximum displ.:     0.0527905 α      in ANC's #4, #2, #1, ...

........................................................................
.............................. CYCLE   10 ..............................
........................................................................
   1    -83.7546865 -0.837547E+02  0.119E-02    2.47       0.0  T
   2    -83.7546952 -0.870488E-05  0.581E-03    2.46       2.7  T
   3    -83.7546964 -0.127945E-05  0.218E-03    2.46       7.1  T
   4    -83.7546964 -0.732044E-08  0.126E-03    2.46      12.2  T
   5    -83.7546965 -0.101516E-07  0.159E-04    2.46      96.8  T
   6    -83.7546965 -0.858208E-09  0.470E-05    2.46     328.0  T
     SCC iter.                  ...        0 min,  0.030 sec
     gradient                   ...        0 min,  0.057 sec
 * total energy  :   -82.9569495 Eh     change       -0.1534244E-03 Eh
   gradient norm :     0.0062651 Eh/α   predicted    -0.9667657E-04 ( -36.99%)
   displ. norm   :     0.2660587 α      lambda       -0.2906884E-03
   maximum displ.:     0.1558068 α      in ANC's #2, #4, #7, ...

........................................................................
.............................. CYCLE   11 ..............................
........................................................................
   1    -83.7565736 -0.837566E+02  0.153E-02    2.48       0.0  T
   2    -83.7565867 -0.130848E-04  0.704E-03    2.48       2.2  T
   3    -83.7565884 -0.165870E-05  0.270E-03    2.48       5.7  T
   4    -83.7565884 -0.164685E-07  0.154E-03    2.48      10.0  T
   5    -83.7565884 -0.176195E-07  0.237E-04    2.48      65.1  T
   6    -83.7565884 -0.140258E-08  0.770E-05    2.48     200.3  T
   7    -83.7565884 -0.123194E-09  0.256E-05    2.48     602.6  T
     SCC iter.                  ...        0 min,  0.036 sec
     gradient                   ...        0 min,  0.058 sec
 * total energy  :   -82.9571542 Eh     change       -0.2046936E-03 Eh
   gradient norm :     0.0069809 Eh/α   predicted    -0.1556622E-03 ( -23.95%)
   displ. norm   :     0.2619029 α      lambda       -0.1889403E-03
   maximum displ.:     0.1615211 α      in ANC's #2, #4, #1, ...

........................................................................
.............................. CYCLE   12 ..............................
........................................................................
   1    -83.7566140 -0.837566E+02  0.718E-03    2.49       0.0  T
   2    -83.7566166 -0.261802E-05  0.398E-03    2.48       3.9  T
   3    -83.7566171 -0.461475E-06  0.142E-03    2.49      10.9  T
   4    -83.7566171  0.524153E-09  0.767E-04    2.49      20.1  T
   5    -83.7566171 -0.540402E-08  0.125E-04    2.48     123.7  T
   6    -83.7566171 -0.322046E-09  0.392E-05    2.48     393.2  T
     SCC iter.                  ...        0 min,  0.030 sec
     gradient                   ...        0 min,  0.053 sec
 * total energy  :   -82.9573102 Eh     change       -0.1559675E-03 Eh
   gradient norm :     0.0100647 Eh/α   predicted    -0.1009540E-03 ( -35.27%)
   displ. norm   :     0.3182223 α      lambda       -0.2589226E-03
   maximum displ.:     0.2002186 α      in ANC's #2, #4, #1, ...

........................................................................
.............................. CYCLE   13 ..............................
........................................................................
   1    -83.7556944 -0.837557E+02  0.171E-02    2.49       0.0  T
   2    -83.7557091 -0.146663E-04  0.571E-03    2.49       2.7  T
   3    -83.7557101 -0.938368E-06  0.220E-03    2.49       7.0  T
   4    -83.7557101 -0.637935E-07  0.138E-03    2.49      11.2  T
   5    -83.7557101 -0.192541E-07  0.186E-04    2.49      82.8  T
   6    -83.7557101 -0.972420E-09  0.679E-05    2.49     227.4  T
     SCC iter.                  ...        0 min,  0.030 sec
     gradient                   ...        0 min,  0.054 sec
 * total energy  :   -82.9575285 Eh     change       -0.2183189E-03 Eh
   gradient norm :     0.0100957 Eh/α   predicted    -0.1425769E-03 ( -34.69%)
   displ. norm   :     0.4301231 α      lambda       -0.3281509E-03
   maximum displ.:     0.2696905 α      in ANC's #2, #4, #1, ...

........................................................................
.............................. CYCLE   14 ..............................
........................................................................
   1    -83.7535093 -0.837535E+02  0.250E-02    2.48       0.0  T
   2    -83.7535404 -0.311053E-04  0.685E-03    2.48       2.3  T
   3    -83.7535416 -0.121234E-05  0.311E-03    2.48       5.0  T
   4    -83.7535417 -0.752608E-07  0.174E-03    2.48       8.9  T
   5    -83.7535417 -0.367857E-07  0.284E-04    2.48      54.4  T
   6    -83.7535417 -0.243696E-08  0.104E-04    2.48     148.1  T
   7    -83.7535417 -0.195172E-09  0.529E-05    2.48     291.5  T
     SCC iter.                  ...        0 min,  0.035 sec
     gradient                   ...        0 min,  0.055 sec
 * total energy  :   -82.9577823 Eh     change       -0.2538048E-03 Eh
   gradient norm :     0.0072034 Eh/α   predicted    -0.1944342E-03 ( -23.39%)
   displ. norm   :     0.3866873 α      lambda       -0.2433112E-03
   maximum displ.:     0.2514695 α      in ANC's #2, #4, #1, ...

........................................................................
.............................. CYCLE   15 ..............................
........................................................................
   1    -83.7532146 -0.837532E+02  0.238E-02    2.46       0.0  T
   2    -83.7532431 -0.284896E-04  0.629E-03    2.47       2.5  T
   3    -83.7532442 -0.111722E-05  0.282E-03    2.47       5.5  T
   4    -83.7532442 -0.648295E-07  0.156E-03    2.47       9.9  T
   5    -83.7532443 -0.272044E-07  0.287E-04    2.47      53.7  T
   6    -83.7532443 -0.253965E-08  0.105E-04    2.47     146.3  T
   7    -83.7532443 -0.221391E-09  0.518E-05    2.47     297.8  T
     SCC iter.                  ...        0 min,  0.036 sec
     gradient                   ...        0 min,  0.053 sec
 * total energy  :   -82.9579543 Eh     change       -0.1720109E-03 Eh
   gradient norm :     0.0047569 Eh/α   predicted    -0.1398469E-03 ( -18.70%)
   displ. norm   :     0.3036342 α      lambda       -0.1361722E-03
   maximum displ.:     0.2002025 α      in ANC's #2, #4, #1, ...

........................................................................
.............................. CYCLE   16 ..............................
........................................................................
   1    -83.7531970 -0.837532E+02  0.123E-02    2.46       0.0  T
   2    -83.7532039 -0.694339E-05  0.390E-03    2.46       4.0  T
   3    -83.7532042 -0.337425E-06  0.181E-03    2.46       8.5  T
   4    -83.7532043 -0.131121E-07  0.867E-04    2.46      17.8  T
   5    -83.7532043 -0.764562E-08  0.157E-04    2.46      98.1  T
   6    -83.7532043 -0.773298E-09  0.549E-05    2.46     280.9  T
     SCC iter.                  ...        0 min,  0.030 sec
     gradient                   ...        0 min,  0.054 sec
 * total energy  :   -82.9580498 Eh     change       -0.9550780E-04 Eh
   gradient norm :     0.0052499 Eh/α   predicted    -0.7436427E-04 ( -22.14%)
   displ. norm   :     0.2607234 α      lambda       -0.1528693E-03
   maximum displ.:     0.1865962 α      in ANC's #2, #1, #5, ...

........................................................................
.............................. CYCLE   17 ..............................
........................................................................
   1    -83.7565537 -0.837566E+02  0.145E-02    2.45       0.0  T
   2    -83.7565634 -0.964224E-05  0.539E-03    2.46       2.9  T
   3    -83.7565640 -0.662054E-06  0.254E-03    2.46       6.1  T
   4    -83.7565641 -0.264623E-07  0.126E-03    2.46      12.3  T
   5    -83.7565641 -0.141308E-07  0.237E-04    2.46      65.0  T
   6    -83.7565641 -0.184667E-08  0.759E-05    2.46     203.3  T
   7    -83.7565641 -0.117396E-09  0.340E-05    2.46     454.1  T
     SCC iter.                  ...        0 min,  0.035 sec
     gradient                   ...        0 min,  0.054 sec
 * total energy  :   -82.9581307 Eh     change       -0.8091158E-04 Eh
   gradient norm :     0.0059986 Eh/α   predicted    -0.8164409E-04 (   0.91%)
   displ. norm   :     0.2645353 α      lambda       -0.1112484E-03
   maximum displ.:     0.1842178 α      in ANC's #2, #1, #5, ...

........................................................................
.............................. CYCLE   18 ..............................
........................................................................
   1    -83.7554843 -0.837555E+02  0.582E-03    2.45       0.0  T
   2    -83.7554854 -0.117186E-05  0.299E-03    2.45       5.2  T
   3    -83.7554857 -0.210385E-06  0.147E-03    2.45      10.5  T
   4    -83.7554857 -0.796911E-08  0.451E-04    2.45      34.2  T
   5    -83.7554857 -0.213448E-08  0.108E-04    2.45     142.3  T
   6    -83.7554857 -0.319844E-09  0.208E-05    2.45     743.3  T
     SCC iter.                  ...        0 min,  0.030 sec
     gradient                   ...        0 min,  0.054 sec
 * total energy  :   -82.9582087 Eh     change       -0.7796587E-04 Eh
   gradient norm :     0.0053575 Eh/α   predicted    -0.5951853E-04 ( -23.66%)
   displ. norm   :     0.2236077 α      lambda       -0.1141508E-03
   maximum displ.:     0.1571068 α      in ANC's #2, #1, #5, ...

........................................................................
.............................. CYCLE   19 ..............................
........................................................................
   1    -83.7553261 -0.837553E+02  0.625E-03    2.46       0.0  T
   2    -83.7553274 -0.134478E-05  0.192E-03    2.46       8.0  T
   3    -83.7553274 -0.393005E-07  0.111E-03    2.46      13.8  T
   4    -83.7553274 -0.200691E-08  0.280E-04    2.46      55.1  T
   5    -83.7553274 -0.117369E-08  0.597E-05    2.46     258.3  T
   6    -83.7553274 -0.854499E-10  0.215E-05    2.46     718.4  T
     SCC iter.                  ...        0 min,  0.030 sec
     gradient                   ...        0 min,  0.054 sec
 * total energy  :   -82.9582943 Eh     change       -0.8564788E-04 Eh
   gradient norm :     0.0047792 Eh/α   predicted    -0.5993103E-04 ( -30.03%)
   displ. norm   :     0.2728798 α      lambda       -0.1319261E-03
   maximum displ.:     0.1904114 α      in ANC's #2, #1, #5, ...

........................................................................
.............................. CYCLE   20 ..............................
........................................................................
   1    -83.7548619 -0.837549E+02  0.836E-03    2.46       0.0  T
   2    -83.7548646 -0.277410E-05  0.292E-03    2.46       5.3  T
   3    -83.7548648 -0.139149E-06  0.151E-03    2.46      10.2  T
   4    -83.7548648 -0.368455E-08  0.634E-04    2.46      24.4  T
   5    -83.7548648 -0.478552E-08  0.101E-04    2.46     153.5  T
   6    -83.7548648 -0.273104E-09  0.349E-05    2.46     442.1  T
     SCC iter.                  ...        0 min,  0.030 sec
     gradient                   ...        0 min,  0.054 sec
 * total energy  :   -82.9583867 Eh     change       -0.9236327E-04 Eh
   gradient norm :     0.0046219 Eh/α   predicted    -0.7087817E-04 ( -23.26%)
   displ. norm   :     0.2680130 α      lambda       -0.1092267E-03
   maximum displ.:     0.1923936 α      in ANC's #2, #1, #5, ...
 * RMSD in coord.:     0.7868583 α      energy gain  -0.3089189E-01 Eh

generating ANC from model Hessian ...
Using Lindh-Hessian (1995)
 Shifting diagonal of input Hessian by   9.845695963206230E-003
 Lowest  eigenvalues of input Hessian
    0.000000    0.000000    0.000000    0.000000    0.000000    0.000000
    0.010000    0.010133    0.010566    0.010809    0.011459    0.012082
    0.012211    0.012751    0.014394    0.016302    0.016501    0.017975
 Highest eigenvalues
    2.112622    2.190093    2.247758    2.387756    2.398585    2.461014
 

........................................................................
.............................. CYCLE   21 ..............................
........................................................................
   1    -83.7549242 -0.837549E+02  0.526E-03    2.46       0.0  T
   2    -83.7549250 -0.837020E-06  0.239E-03    2.46       6.5  T
   3    -83.7549251 -0.850208E-07  0.117E-03    2.46      13.2  T
   4    -83.7549251 -0.246052E-08  0.360E-04    2.46      42.9  T
   5    -83.7549251 -0.829559E-09  0.696E-05    2.46     221.8  T
   6    -83.7549251 -0.730012E-10  0.269E-05    2.46     573.2  T
     SCC iter.                  ...        0 min,  0.030 sec
     gradient                   ...        0 min,  0.054 sec
 * total energy  :   -82.9584666 Eh     change       -0.7986566E-04 Eh
   gradient norm :     0.0043261 Eh/α   predicted     0.0000000E+00 (-100.00%)
   displ. norm   :     0.0425004 α      lambda       -0.4751375E-04
   maximum displ.:     0.0189824 α      in ANC's #1, #2, #8, ...

........................................................................
.............................. CYCLE   22 ..............................
........................................................................
   1    -83.7554238 -0.837554E+02  0.295E-03    2.46       0.0  T
   2    -83.7554242 -0.341342E-06  0.153E-03    2.46      10.1  T
   3    -83.7554242 -0.484951E-07  0.787E-04    2.46      19.6  T
   4    -83.7554242 -0.949555E-09  0.305E-04    2.46      50.6  T
   5    -83.7554242 -0.113792E-08  0.369E-05    2.46     417.8  T
   6    -83.7554242 -0.377582E-10  0.124E-05    2.46    1241.0  T
     SCC iter.                  ...        0 min,  0.030 sec
     gradient                   ...        0 min,  0.054 sec
 * total energy  :   -82.9585086 Eh     change       -0.4208342E-04 Eh
   gradient norm :     0.0018863 Eh/α   predicted    -0.2647898E-04 ( -37.08%)
   displ. norm   :     0.1595530 α      lambda       -0.7063324E-04
   maximum displ.:     0.0769774 α      in ANC's #1, #2, #5, ...

........................................................................
.............................. CYCLE   23 ..............................
........................................................................
   1    -83.7561074 -0.837561E+02  0.593E-03    2.46       0.0  T
   2    -83.7561090 -0.155286E-05  0.330E-03    2.46       4.7  T
   3    -83.7561093 -0.266672E-06  0.163E-03    2.46       9.5  T
   4    -83.7561093 -0.306964E-08  0.660E-04    2.46      23.4  T
   5    -83.7561093 -0.358889E-08  0.964E-05    2.46     160.1  T
   6    -83.7561093 -0.248875E-09  0.323E-05    2.46     477.1  T
     SCC iter.                  ...        0 min,  0.033 sec
     gradient                   ...        0 min,  0.058 sec
 * total energy  :   -82.9585605 Eh     change       -0.5185436E-04 Eh
   gradient norm :     0.0037902 Eh/α   predicted    -0.3571666E-04 ( -31.12%)
   displ. norm   :     0.0489773 α      lambda       -0.2278014E-04
   maximum displ.:     0.0280963 α      in ANC's #1, #2, #5, ...

........................................................................
.............................. CYCLE   24 ..............................
........................................................................
   1    -83.7560330 -0.837560E+02  0.140E-03    2.46       0.0  T
   2    -83.7560331 -0.738729E-07  0.548E-04    2.46      28.2  T
   3    -83.7560331 -0.364832E-08  0.283E-04    2.46      54.4  T
   4    -83.7560331 -0.567439E-10  0.796E-05    2.46     193.9  T
   5    -83.7560331 -0.633662E-10  0.126E-05    2.46    1229.1  T
     SCC iter.                  ...        0 min,  0.025 sec
     gradient                   ...        0 min,  0.055 sec
 * total energy  :   -82.9585821 Eh     change       -0.2155678E-04 Eh
   gradient norm :     0.0028858 Eh/α   predicted    -0.1175905E-04 ( -45.45%)
   displ. norm   :     0.1871171 α      lambda       -0.7907051E-04
   maximum displ.:     0.1053255 α      in ANC's #1, #2, #5, ...

........................................................................
.............................. CYCLE   25 ..............................
........................................................................
   1    -83.7555897 -0.837556E+02  0.508E-03    2.47       0.0  T
   2    -83.7555907 -0.980002E-06  0.180E-03    2.47       8.6  T
   3    -83.7555907 -0.403548E-07  0.929E-04    2.47      16.6  T
   4    -83.7555907 -0.795140E-09  0.273E-04    2.47      56.5  T
   5    -83.7555907 -0.630862E-09  0.421E-05    2.47     366.3  T
   6    -83.7555907 -0.255653E-10  0.162E-05    2.47     949.9  T
     SCC iter.                  ...        0 min,  0.030 sec
     gradient                   ...        0 min,  0.055 sec
 * total energy  :   -82.9586398 Eh     change       -0.5770216E-04 Eh
   gradient norm :     0.0015322 Eh/α   predicted    -0.4092607E-04 ( -29.07%)
   displ. norm   :     0.2886142 α      lambda       -0.4572552E-04
   maximum displ.:     0.1678745 α      in ANC's #1, #2, #5, ...

........................................................................
.............................. CYCLE   26 ..............................
........................................................................
   1    -83.7549041 -0.837549E+02  0.538E-03    2.47       0.0  T
   2    -83.7549053 -0.117125E-05  0.170E-03    2.47       9.1  T
   3    -83.7549054 -0.484323E-07  0.839E-04    2.47      18.4  T
   4    -83.7549054 -0.138587E-08  0.330E-04    2.47      46.8  T
   5    -83.7549054 -0.119385E-08  0.681E-05    2.47     226.6  T
   6    -83.7549054 -0.124629E-09  0.251E-05    2.47     614.9  T
     SCC iter.                  ...        0 min,  0.030 sec
     gradient                   ...        0 min,  0.055 sec
 * total energy  :   -82.9586836 Eh     change       -0.4379311E-04 Eh
   gradient norm :     0.0037139 Eh/α   predicted    -0.2370924E-04 ( -45.86%)
   displ. norm   :     0.0910439 α      lambda       -0.2673473E-04
   maximum displ.:     0.0579563 α      in ANC's #1, #2, #5, ...

........................................................................
.............................. CYCLE   27 ..............................
........................................................................
   1    -83.7551731 -0.837552E+02  0.124E-03    2.47       0.0  T
   2    -83.7551731 -0.477668E-07  0.577E-04    2.47      26.8  T
   3    -83.7551731 -0.421892E-08  0.281E-04    2.47      54.9  T
   4    -83.7551731 -0.292971E-09  0.107E-04    2.47     144.3  T
   5    -83.7551731 -0.122228E-09  0.239E-05    2.47     646.7  T
     SCC iter.                  ...        0 min,  0.025 sec
     gradient                   ...        0 min,  0.055 sec
 * total energy  :   -82.9587080 Eh     change       -0.2442290E-04 Eh
   gradient norm :     0.0029324 Eh/α   predicted    -0.1347993E-04 ( -44.81%)
   displ. norm   :     0.1689425 α      lambda       -0.6223303E-04
   maximum displ.:     0.1115603 α      in ANC's #1, #2, #5, ...

........................................................................
.............................. CYCLE   28 ..............................
........................................................................
   1    -83.7558017 -0.837558E+02  0.297E-03    2.47       0.0  T
   2    -83.7558020 -0.281554E-06  0.152E-03    2.47      10.1  T
   3    -83.7558020 -0.244241E-07  0.769E-04    2.47      20.1  T
   4    -83.7558020 -0.711950E-09  0.229E-04    2.47      67.5  T
   5    -83.7558020 -0.658289E-09  0.578E-05    2.47     266.8  T
   6    -83.7558020 -0.468106E-10  0.212E-05    2.47     727.1  T
     SCC iter.                  ...        0 min,  0.030 sec
     gradient                   ...        0 min,  0.055 sec
 * total energy  :   -82.9587572 Eh     change       -0.4926130E-04 Eh
   gradient norm :     0.0012254 Eh/α   predicted    -0.3200551E-04 ( -35.03%)
   displ. norm   :     0.3150955 α      lambda       -0.5158915E-04
   maximum displ.:     0.2112486 α      in ANC's #1, #2, #5, ...

........................................................................
.............................. CYCLE   29 ..............................
........................................................................
   1    -83.7555823 -0.837556E+02  0.395E-03    2.46       0.0  T
   2    -83.7555829 -0.617257E-06  0.209E-03    2.46       7.4  T
   3    -83.7555830 -0.550801E-07  0.103E-03    2.46      14.9  T
   4    -83.7555830 -0.279705E-08  0.285E-04    2.46      54.2  T
   5    -83.7555830 -0.667526E-09  0.959E-05    2.46     160.8  T
   6    -83.7555830 -0.543565E-10  0.205E-05    2.46     751.1  T
     SCC iter.                  ...        0 min,  0.030 sec
     gradient                   ...        0 min,  0.055 sec
 * total energy  :   -82.9588100 Eh     change       -0.5276006E-04 Eh
   gradient norm :     0.0031266 Eh/α   predicted    -0.2693540E-04 ( -48.95%)
   displ. norm   :     0.1288138 α      lambda       -0.2827996E-04
   maximum displ.:     0.0886822 α      in ANC's #1, #2, #5, ...

........................................................................
.............................. CYCLE   30 ..............................
........................................................................
   1    -83.7555536 -0.837556E+02  0.107E-03    2.46       0.0  T
   2    -83.7555536 -0.338015E-07  0.595E-04    2.46      25.9  T
   3    -83.7555536 -0.285871E-08  0.293E-04    2.46      52.7  T
   4    -83.7555536 -0.383366E-09  0.831E-05    2.46     185.7  T
   5    -83.7555536 -0.124629E-09  0.346E-05    2.46     446.6  T
     SCC iter.                  ...        0 min,  0.025 sec
     gradient                   ...        0 min,  0.055 sec
 * total energy  :   -82.9588363 Eh     change       -0.2629853E-04 Eh
   gradient norm :     0.0028477 Eh/α   predicted    -0.1437637E-04 ( -45.33%)
   displ. norm   :     0.1818662 α      lambda       -0.5077141E-04
   maximum displ.:     0.1252966 α      in ANC's #1, #2, #5, ...

........................................................................
.............................. CYCLE   31 ..............................
........................................................................
   1    -83.7555439 -0.837555E+02  0.264E-03    2.46       0.0  T
   2    -83.7555442 -0.215296E-06  0.127E-03    2.46      12.1  T
   3    -83.7555442 -0.226218E-07  0.623E-04    2.46      24.8  T
   4    -83.7555442 -0.155113E-08  0.189E-04    2.46      81.5  T
   5    -83.7555442 -0.391665E-09  0.566E-05    2.46     272.8  T
     SCC iter.                  ...        0 min,  0.025 sec
     gradient                   ...        0 min,  0.055 sec
 * total energy  :   -82.9588799 Eh     change       -0.4358752E-04 Eh
   gradient norm :     0.0015842 Eh/α   predicted    -0.2622755E-04 ( -39.83%)
   displ. norm   :     0.3612808 α      lambda       -0.5450342E-04
   maximum displ.:     0.2496664 α      in ANC's #1, #2, #5, ...

........................................................................
.............................. CYCLE   32 ..............................
........................................................................
   1    -83.7547112 -0.837547E+02  0.510E-03    2.47       0.0  T
   2    -83.7547120 -0.775696E-06  0.232E-03    2.47       6.7  T
   3    -83.7547120 -0.581147E-07  0.116E-03    2.47      13.3  T
   4    -83.7547120 -0.655008E-08  0.408E-04    2.47      37.8  T
   5    -83.7547120 -0.187457E-08  0.100E-04    2.47     154.2  T
   6    -83.7547120 -0.193680E-09  0.398E-05    2.47     388.1  T
     SCC iter.                  ...        0 min,  0.030 sec
     gradient                   ...        0 min,  0.055 sec
 * total energy  :   -82.9589356 Eh     change       -0.5572430E-04 Eh
   gradient norm :     0.0021677 Eh/α   predicted    -0.2883508E-04 ( -48.25%)
   displ. norm   :     0.1326535 α      lambda       -0.2317134E-04
   maximum displ.:     0.0938556 α      in ANC's #1, #2, #6, ...

........................................................................
.............................. CYCLE   33 ..............................
........................................................................
   1    -83.7549449 -0.837549E+02  0.195E-03    2.47       0.0  T
   2    -83.7549450 -0.142707E-06  0.645E-04    2.47      23.9  T
   3    -83.7549450 -0.957509E-08  0.311E-04    2.47      49.6  T
   4    -83.7549450 -0.497451E-09  0.128E-04    2.47     120.5  T
   5    -83.7549450 -0.102247E-09  0.263E-05    2.47     585.7  T
     SCC iter.                  ...        0 min,  0.025 sec
     gradient                   ...        0 min,  0.050 sec
 * total energy  :   -82.9589566 Eh     change       -0.2099905E-04 Eh
   gradient norm :     0.0018993 Eh/α   predicted    -0.1179082E-04 ( -43.85%)
   displ. norm   :     0.2743177 α      lambda       -0.3647896E-04
   maximum displ.:     0.1936230 α      in ANC's #1, #2, #3, ...

........................................................................
.............................. CYCLE   34 ..............................
........................................................................
   1    -83.7554817 -0.837555E+02  0.381E-03    2.47       0.0  T
   2    -83.7554823 -0.610844E-06  0.140E-03    2.47      11.0  T
   3    -83.7554824 -0.350000E-07  0.697E-04    2.47      22.1  T
   4    -83.7554824 -0.136086E-08  0.299E-04    2.47      51.6  T
   5    -83.7554824 -0.962771E-09  0.520E-05    2.47     297.0  T
   6    -83.7554824 -0.899831E-10  0.174E-05    2.47     884.4  T
     SCC iter.                  ...        0 min,  0.027 sec
     gradient                   ...        0 min,  0.049 sec
 * total energy  :   -82.9590007 Eh     change       -0.4412875E-04 Eh
   gradient norm :     0.0013839 Eh/α   predicted    -0.1885440E-04 ( -57.27%)
   displ. norm   :     0.2809543 α      lambda       -0.2918279E-04
   maximum displ.:     0.2001290 α      in ANC's #1, #2, #3, ...

........................................................................
.............................. CYCLE   35 ..............................
........................................................................
   1    -83.7550698 -0.837551E+02  0.308E-03    2.47       0.0  T
   2    -83.7550702 -0.438864E-06  0.136E-03    2.47      11.3  T
   3    -83.7550702 -0.428352E-07  0.545E-04    2.47      28.3  T
   4    -83.7550702 -0.543736E-09  0.274E-04    2.47      56.3  T
   5    -83.7550702 -0.906198E-09  0.479E-05    2.47     321.9  T
   6    -83.7550702 -0.471658E-10  0.164E-05    2.47     939.4  T
     SCC iter.                  ...        0 min,  0.035 sec
     gradient                   ...        0 min,  0.063 sec
 * total energy  :   -82.9590353 Eh     change       -0.3459922E-04 Eh
   gradient norm :     0.0012003 Eh/α   predicted    -0.1510426E-04 ( -56.35%)
   displ. norm   :     0.2089775 α      lambda       -0.1967228E-04
   maximum displ.:     0.1529363 α      in ANC's #1, #2, #3, ...

........................................................................
.............................. CYCLE   36 ..............................
........................................................................
   1    -83.7556545 -0.837557E+02  0.258E-03    2.47       0.0  T
   2    -83.7556547 -0.147339E-06  0.116E-03    2.47      13.3  T
   3    -83.7556547 -0.159857E-07  0.664E-04    2.47      23.2  T
   4    -83.7556547 -0.258271E-08  0.180E-04    2.47      85.9  T
   5    -83.7556547 -0.497010E-09  0.435E-05    2.47     354.7  T
     SCC iter.                  ...        0 min,  0.016 sec
     gradient                   ...        0 min,  0.045 sec
 * total energy  :   -82.9590574 Eh     change       -0.2208456E-04 Eh
   gradient norm :     0.0013162 Eh/α   predicted    -0.1003021E-04 ( -54.58%)
   displ. norm   :     0.1516492 α      lambda       -0.1095073E-04
   maximum displ.:     0.1130116 α      in ANC's #1, #2, #3, ...

........................................................................
.............................. CYCLE   37 ..............................
........................................................................
   1    -83.7553542 -0.837554E+02  0.172E-03    2.47       0.0  T
   2    -83.7553543 -0.624221E-07  0.798E-04    2.47      19.3  T
   3    -83.7553543 -0.993374E-08  0.445E-04    2.47      34.7  T
   4    -83.7553543 -0.550557E-09  0.943E-05    2.47     163.7  T
   5    -83.7553543 -0.169564E-09  0.302E-05    2.47     510.9  T
     SCC iter.                  ...        0 min,  0.016 sec
     gradient                   ...        0 min,  0.034 sec
 * total energy  :   -82.9590698 Eh     change       -0.1237491E-04 Eh
   gradient norm :     0.0007453 Eh/α   predicted    -0.5531837E-05 ( -55.30%)
   displ. norm   :     0.0686038 α      lambda       -0.5628107E-05
   maximum displ.:     0.0539563 α      in ANC's #1, #2, #7, ...

........................................................................
.............................. CYCLE   38 ..............................
........................................................................
   1    -83.7556021 -0.837556E+02  0.137E-03    2.47       0.0  T
   2    -83.7556021 -0.503814E-07  0.586E-04    2.47      26.3  T
   3    -83.7556021 -0.627765E-08  0.275E-04    2.47      56.1  T
   4    -83.7556021 -0.716227E-10  0.685E-05    2.47     225.3  T
   5    -83.7556021 -0.523244E-10  0.134E-05    2.47    1149.1  T
     SCC iter.                  ...        0 min,  0.019 sec
     gradient                   ...        0 min,  0.039 sec
 * total energy  :   -82.9590767 Eh     change       -0.6916369E-05 Eh
   gradient norm :     0.0005826 Eh/α   predicted    -0.2823856E-05 ( -59.17%)
   displ. norm   :     0.0574075 α      lambda       -0.5452065E-05
   maximum displ.:     0.0462536 α      in ANC's #1, #7, #2, ...

........................................................................
.............................. CYCLE   39 ..............................
........................................................................
   1    -83.7557333 -0.837557E+02  0.116E-03    2.47       0.0  T
   2    -83.7557334 -0.456589E-07  0.560E-04    2.47      27.6  T
   3    -83.7557334 -0.493391E-08  0.247E-04    2.47      62.6  T
   4    -83.7557334 -0.454037E-10  0.911E-05    2.47     169.3  T
   5    -83.7557334 -0.976144E-10  0.152E-05    2.47    1017.5  T
     SCC iter.                  ...        0 min,  0.017 sec
     gradient                   ...        0 min,  0.058 sec
 * total energy  :   -82.9590837 Eh     change       -0.6952162E-05 Eh
   gradient norm :     0.0007155 Eh/α   predicted    -0.2733357E-05 ( -60.68%)
   displ. norm   :     0.0636562 α      lambda       -0.6197936E-05
   maximum displ.:     0.0491841 α      in ANC's #1, #7, #5, ...

........................................................................
.............................. CYCLE   40 ..............................
........................................................................
   1    -83.7557503 -0.837558E+02  0.132E-03    2.47       0.0  T
   2    -83.7557504 -0.716270E-07  0.486E-04    2.47      31.7  T
   3    -83.7557504 -0.344328E-08  0.229E-04    2.47      67.4  T
   4    -83.7557504 -0.103185E-09  0.989E-05    2.47     156.0  T
   5    -83.7557504 -0.120366E-09  0.168E-05    2.47     917.2  T
     SCC iter.                  ...        0 min,  0.027 sec
     gradient                   ...        0 min,  0.050 sec
 * total energy  :   -82.9590913 Eh     change       -0.7672681E-05 Eh
   gradient norm :     0.0008902 Eh/α   predicted    -0.3104975E-05 ( -59.53%)
   displ. norm   :     0.0706446 α      lambda       -0.6460404E-05
   maximum displ.:     0.0548277 α      in ANC's #1, #7, #5, ...

........................................................................
.............................. CYCLE   41 ..............................
........................................................................
   1    -83.7557613 -0.837558E+02  0.139E-03    2.47       0.0  T
   2    -83.7557613 -0.726401E-07  0.494E-04    2.47      31.2  T
   3    -83.7557613 -0.325076E-08  0.250E-04    2.47      61.6  T
   4    -83.7557613 -0.275193E-09  0.118E-04    2.47     131.2  T
   5    -83.7557613 -0.205873E-09  0.170E-05    2.47     905.1  T
     SCC iter.                  ...        0 min,  0.027 sec
     gradient                   ...        0 min,  0.058 sec
 * total energy  :   -82.9590992 Eh     change       -0.7911207E-05 Eh
   gradient norm :     0.0009241 Eh/α   predicted    -0.3240739E-05 ( -59.04%)
   displ. norm   :     0.0679942 α      lambda       -0.5744690E-05
   maximum displ.:     0.0531943 α      in ANC's #1, #7, #5, ...

........................................................................
.............................. CYCLE   42 ..............................
........................................................................
   1    -83.7558553 -0.837559E+02  0.101E-03    2.47       0.0  T
   2    -83.7558553 -0.452481E-07  0.397E-04    2.47      38.9  T
   3    -83.7558553 -0.284511E-08  0.185E-04    2.47      83.6  T
   4    -83.7558553 -0.883489E-10  0.885E-05    2.47     174.3  T
     SCC iter.                  ...        0 min,  0.021 sec
     gradient                   ...        0 min,  0.059 sec
 * total energy  :   -82.9591066 Eh     change       -0.7313873E-05 Eh
   gradient norm :     0.0006843 Eh/α   predicted    -0.2879698E-05 ( -60.63%)
   displ. norm   :     0.0615222 α      lambda       -0.4938947E-05
   maximum displ.:     0.0493918 α      in ANC's #1, #5, #26, ...
 * RMSD in coord.:     0.4715220 α      energy gain  -0.7198629E-03 Eh

generating ANC from model Hessian ...
Using Lindh-Hessian (1995)
 Shifting diagonal of input Hessian by   9.850681558764474E-003
 Lowest  eigenvalues of input Hessian
    0.000000    0.000000    0.000000    0.000000    0.000000    0.000000
    0.010000    0.010157    0.010613    0.010835    0.011455    0.012006
    0.012370    0.012801    0.014691    0.016407    0.016579    0.018007
 Highest eigenvalues
    2.113553    2.188768    2.248108    2.391542    2.400222    2.459419
 

........................................................................
.............................. CYCLE   43 ..............................
........................................................................
   1    -83.7557855 -0.837558E+02  0.930E-04    2.47       0.0  T
   2    -83.7557856 -0.280776E-07  0.409E-04    2.47      37.8  T
   3    -83.7557856 -0.357150E-08  0.159E-04    2.47      96.8  T
   4    -83.7557856 -0.247411E-10  0.536E-05    2.47     288.0  T
     SCC iter.                  ...        0 min,  0.022 sec
     gradient                   ...        0 min,  0.058 sec
 * total energy  :   -82.9591128 Eh     change       -0.6232975E-05 Eh
   gradient norm :     0.0004073 Eh/α   predicted     0.0000000E+00 (-100.00%)
   displ. norm   :     0.0195019 α      lambda       -0.2058727E-05
   maximum displ.:     0.0165798 α      in ANC's #1, #2, #7, ...

........................................................................
.............................. CYCLE   44 ..............................
........................................................................
   1    -83.7556654 -0.837557E+02  0.450E-04    2.47       0.0  T
   2    -83.7556654 -0.770673E-08  0.166E-04    2.47      93.0  T
   3    -83.7556654 -0.317982E-09  0.896E-05    2.47     172.2  T
     SCC iter.                  ...        0 min,  0.016 sec
     gradient                   ...        0 min,  0.058 sec
 * total energy  :   -82.9591157 Eh     change       -0.2882823E-05 Eh
   gradient norm :     0.0002574 Eh/α   predicted    -0.1038317E-05 ( -63.98%)
   displ. norm   :     0.0420967 α      lambda       -0.3739487E-05
   maximum displ.:     0.0315601 α      in ANC's #1, #2, #7, ...

   *** GEOMETRY OPTIMIZATION CONVERGED AFTER 44 ITERATIONS ***

------------------------------------------------------------------------
 total energy gain   :        -0.0316209 Eh      -19.8424 kcal/mol
 total RMSD          :         1.0821278 a0        0.5726 Å
 total power (kW/mol):        -1.8868316 (step)  -16.7538 (real)
------------------------------------------------------------------------

 ANCopt (total)                0 d,  0 h,  0 min,  4.955 sec
 optimizer setup                ...        0 min,  0.001 sec (  0.012%)
 model hessian                  ...        0 min,  0.061 sec (  1.226%)
 ANC generation                 ...        0 min,  0.007 sec (  0.151%)
 coordinate transformation      ...        0 min,  0.001 sec (  0.020%)
 single point calculation       ...        0 min,  4.870 sec ( 98.280%)
 optimization log               ...        0 min,  0.008 sec (  0.162%)
 hessian update                 ...        0 min,  0.001 sec (  0.018%)
 rational function              ...        0 min,  0.004 sec (  0.081%)

================
 final structure:
================
42
 xtb: 6.5.1 (579679a)
C            6.23121026256826       -0.69921022509514       -1.90202665263295
C            5.48466260228244       -0.88573912693940       -0.63930539003471
N            5.88736376489221       -1.47573343280688        0.44277258307038
N            4.86397306316905       -1.39627682712985        1.33792587381599
C            3.89808230894849       -0.76409202739874        0.74744495732822
C            2.57362608910990       -0.41192426333276        1.31248851765297
O            2.28590141172171       -0.67741540344920        2.47203164150692
N            1.76265210661552        0.18192899279748        0.41736913168393
C            0.46434530282264        0.81025866415109        0.70700992436648
C            0.55575854746220        1.67592999016211        1.97123761953849
C            0.13038619047953        1.68564106767794       -0.50202574600816
C           -0.62036435469569       -0.24107003140758        0.88193315533659
N           -1.71301920797742       -0.12820986525447        0.22243217703347
C           -2.72838637109958       -1.06184832618627        0.39368731677883
C           -3.90683030532122       -0.91764849624345       -0.31279311454412
O           -4.94207673211005       -1.46727941419597       -0.47308394040555
O           -3.80948537012392        0.48671821669320       -1.25676044154942
C           -4.72594249949853        0.39423456493334       -2.35917352337043
C           -3.98495460436530        1.67219021747907       -0.46203008279198
C           -2.60427137115989       -2.19104184690774        1.28350523275483
O           -3.45861270671140       -3.05287093693113        1.45451399449755
C           -1.29313238152089       -2.25724197422286        2.05146850094378
O           -1.03228944807366       -3.13298644272796        2.85769413030039
N           -0.40487903990887       -1.25118473942760        1.78655946267054
O            4.23245587304006       -0.41506132603075       -0.51392128563038
H            6.26527748483455        0.35891086936466       -2.15911265736811
H            5.72845513931102       -1.22578916646826       -2.71323747793984
H            7.24259306036036       -1.08284718429170       -1.79033334074625
H            2.13941390490681        0.36274191011276       -0.49916713850054
H           -0.38099149747013        2.21597561717995        2.09762760289421
H            1.36717964713372        2.39362185176438        1.86430919015541
H            0.73259126666277        1.06600268229669        2.85497196460481
H            0.90917772339489        2.43135293863550       -0.64825693783134
H            0.04344238215302        1.07423267618757       -1.39888970769895
H           -0.81805010996157        2.19302625390923       -0.33693232735506
H           -4.46391320132929       -0.50186411367830       -2.91891377617931
H           -4.59134920993961        1.28033767263525       -2.97631393929585
H           -5.75445896549557        0.33354872287823       -1.99625301589848
H           -3.20626610032863        1.65892678411059        0.29818385029246
H           -3.85378023538148        2.53356642049036       -1.11552764315516
H           -4.97767565654995        1.68621562251711       -0.00720620622466
H            0.47217923717632       -1.25802756584879        2.30335551793347
 
 Bond Distances (Angstroems)
 ---------------------------
C1-C2=1.4787         C1-H26=1.0894        C1-H27=1.0900        C1-H28=1.0875        C2-C1=1.4787         C2-N3=1.2966         
C2-O25=1.3436        N3-C2=1.2966         N3-N4=1.3620         N4-N3=1.3620         N4-C5=1.2966         C5-N4=1.2966         
C5-C6=1.4824         C5-O25=1.3508        C6-C5=1.4824         C6-O7=1.2239         C6-N8=1.3459         O7-C6=1.2239         
N8-C6=1.3459         N8-C9=1.4712         N8-H29=1.0073        C9-N8=1.4712         C9-C10=1.5349        C9-C11=1.5296        
C9-C12=1.5207        C10-C9=1.5349        C10-H30=1.0886       C10-H31=1.0885       C10-H32=1.0882       C11-C9=1.5296        
C11-H33=1.0881       C11-H34=1.0889       C11-H35=1.0882       C12-C9=1.5207        C12-N13=1.2812       C12-N24=1.3730       
N13-C12=1.2812       N13-C14=1.3900       C14-N13=1.3900       C14-C15=1.3815       C14-C20=1.4430       C15-C14=1.3815       
C15-O16=1.1830       C15-O17=1.6949       O16-C15=1.1830       O17-C15=1.6949       O17-C18=1.4366       O17-C19=1.4380       
C18-O17=1.4366       C18-H36=1.0886       C18-H37=1.0882       C18-H38=1.0924       C19-O17=1.4380       C19-H39=1.0883       
C19-H40=1.0891       C19-H41=1.0920       C20-C14=1.4430       C20-O21=1.2255       C20-C22=1.5209       O21-C20=1.2255       
C22-C20=1.5209       C22-O23=1.2186       C22-N24=1.3680       O23-C22=1.2186       N24-C12=1.3730       N24-C22=1.3680       
N24-H42=1.0180       O25-C2=1.3436        O25-C5=1.3508        H26-C1=1.0894        H27-C1=1.0900        H28-C1=1.0875        
H29-N8=1.0073        H30-C10=1.0886       H31-C10=1.0885       H32-C10=1.0882       H33-C11=1.0881       H34-C11=1.0889       
H35-C11=1.0882       H36-C18=1.0886       H37-C18=1.0882       H38-C18=1.0924       H39-C19=1.0883       H40-C19=1.0891       
H41-C19=1.0920       H42-N24=1.0180       
 C  H  Rav=1.0891 sigma=0.0014  Rmin=1.0875  Rmax=1.0924    15
 C  C  Rav=1.4865 sigma=0.0494  Rmin=1.3815  Rmax=1.5349     8
 N  H  Rav=1.0127 sigma=0.0054  Rmin=1.0073  Rmax=1.0180     2
 N  C  Rav=1.3528 sigma=0.0586  Rmin=1.2812  Rmax=1.4712     8
 N  N  Rav=1.3620 sigma=0.0000  Rmin=1.3620  Rmax=1.3620     1
 O  C  Rav=1.3461 sigma=0.1530  Rmin=1.1830  Rmax=1.6949     9
 
 selected bond angles (degree)
 --------------------
H26-C1-C2=109.87               H27-C1-C2=109.98               H27-C1-H26=107.94              H28-C1-C2=109.71               
H28-C1-H26=109.74              H28-C1-H27=109.57              N3-C2-C1=127.82                O25-C2-C1=120.40               
O25-C2-N3=111.78               N4-N3-C2=106.77                C5-N4-N3=106.79                C6-C5-N4=127.43                
O25-C5-N4=111.52               O25-C5-C6=121.05               O7-C6-C5=121.31                N8-C6-C5=112.93                
N8-C6-O7=125.74                C9-N8-C6=126.10                H29-N8-C6=117.32               H29-N8-C9=115.63               
C10-C9-N8=110.52               C11-C9-N8=106.35               C11-C9-C10=109.95              C12-C9-N8=110.91               
C12-C9-C10=109.73              C12-C9-C11=109.32              H30-C10-C9=108.91              H31-C10-C9=109.59              
H31-C10-H30=109.01             H32-C10-C9=111.25              H32-C10-H30=108.88             H32-C10-H31=109.16             
 
 selected dihedral angles (degree)
 ---------------------------------
N3-C2-C1-H26=235.50           N3-C2-C1-H27=116.82           N3-C2-C1-H28=356.23           O25-C2-C1-H26= 55.37          
O25-C2-C1-H27=296.69          O25-C2-C1-H28=176.10          N4-N3-C2-C1=179.70            N4-N3-C2-O25=359.83           
C5-N4-N3-C2=  0.08            C6-C5-N4-N3=180.80            O25-C5-N4-N3=  0.04           O7-C6-C5-N4=  2.20            
O7-C6-C5-O25=183.02           N8-C6-C5-N4=183.48            N8-C6-C5-O25=  4.30           C9-N8-C6-C5=188.77            
C9-N8-C6-O7= 10.11            H29-N8-C6-C5=357.10           H29-N8-C6-O7=178.44           C10-C9-N8-C6= 44.33           
C10-C9-N8-H29=235.83          C11-C9-N8-C6=163.64           C11-C9-N8-H29=355.14          C12-C9-N8-C6=282.40           
C12-C9-N8-H29=113.90          H30-C10-C9-N8=173.62          H30-C10-C9-C11= 56.51         H30-C10-C9-C12=296.24         
H31-C10-C9-N8= 54.44          H31-C10-C9-C11=297.34         H31-C10-C9-C12=177.06         H32-C10-C9-N8=293.63          
H32-C10-C9-C11=176.53         H32-C10-C9-C12= 56.25         
           -------------------------------------------------
          |                Final Singlepoint                |
           -------------------------------------------------

          ...................................................
          :                      SETUP                      :
          :.................................................:
          :  # basis functions                 134          :
          :  # atomic orbitals                 134          :
          :  # shells                           84          :
          :  # electrons                       134          :
          :  # halogen bonds                     0          :
          :  max. iterations                   250          :
          :  Hamiltonian                  GFN1-xTB          :
          :  restarted?                      false          :
          :  GBSA solvation                   true          :
          :  PC potential                    false          :
          :  electronic temp.          300.0000000     K    :
          :  accuracy                    1.0000000          :
          :  -> integral cutoff          0.2500000E+02      :
          :  -> integral neglect         0.1000000E-07      :
          :  -> SCF convergence          0.1000000E-05 Eh   :
          :  -> wf. convergence          0.2000000E-04 e    :
          :  Broyden damping             0.4000000          :
          ...................................................

 iter      E             dE          RMSdq      gap      omega  full diag
   1    -83.7556654 -0.837557E+02  0.254E-05    2.47       0.0  T
   2    -83.7556654 -0.729017E-11  0.136E-05    2.47    1132.7  T
   3    -83.7556654 -0.852651E-12  0.763E-06    2.47    2023.1  T

   *** convergence criteria satisfied after 3 iterations ***

         #    Occupation            Energy/Eh            Energy/eV
      -------------------------------------------------------------
         1        2.0000           -0.8691745             -23.6514
       ...           ...                  ...                  ...
        61        2.0000           -0.4679742             -12.7342
        62        2.0000           -0.4638289             -12.6214
        63        2.0000           -0.4549182             -12.3790
        64        2.0000           -0.4530693             -12.3286
        65        2.0000           -0.4438544             -12.0779
        66        2.0000           -0.4175398             -11.3618
        67        2.0000           -0.4109336             -11.1821 (HOMO)
        68                         -0.3201936              -8.7129 (LUMO)
        69                         -0.3132083              -8.5228
        70                         -0.2705249              -7.3614
        71                         -0.2574111              -7.0045
        72                         -0.2375632              -6.4644
       ...                                ...                  ...
       134                          0.8609961              23.4289
      -------------------------------------------------------------
                  HL-Gap            0.0907400 Eh            2.4692 eV
             Fermi-level           -0.3655636 Eh           -9.9475 eV

 SCC (total)                   0 d,  0 h,  0 min,  0.103 sec
 SCC setup                      ...        0 min,  0.002 sec (  1.617%)
 Dispersion                     ...        0 min,  0.000 sec (  0.249%)
 classical contributions        ...        0 min,  0.000 sec (  0.083%)
 integral evaluation            ...        0 min,  0.025 sec ( 24.582%)
 iterations                     ...        0 min,  0.016 sec ( 15.930%)
 molecular gradient             ...        0 min,  0.058 sec ( 56.291%)
 printout                       ...        0 min,  0.001 sec (  1.214%)

         :::::::::::::::::::::::::::::::::::::::::::::::::::::
         ::                     SUMMARY                     ::
         :::::::::::::::::::::::::::::::::::::::::::::::::::::
         :: total energy             -82.959115675513 Eh    ::
         :: total w/o Gsasa/hb       -82.938829103011 Eh    ::
         :: gradient norm              0.000257175860 Eh/a0 ::
         :: HOMO-LUMO gap              2.469162343180 eV    ::
         ::.................................................::
         :: SCC energy               -83.755665393919 Eh    ::
         :: -> electrostatic           0.378679777181 Eh    ::
         :: -> Gsolv                  -0.075890092761 Eh    ::
         ::    -> Gelec               -0.055603520258 Eh    ::
         ::    -> Gsasa               -0.024331874396 Eh    ::
         ::    -> Ghb                 -0.003578977111 Eh    ::
         ::    -> Gshift               0.007624279005 Eh    ::
         :: repulsion energy           0.822973730355 Eh    ::
         :: dispersion energy         -0.026424011950 Eh    ::
         :: halogen bond corr.         0.000000000000 Eh    ::
         :: add. restraining           0.000000000000 Eh    ::
         :: total charge              -0.000000000000 e     ::
         :::::::::::::::::::::::::::::::::::::::::::::::::::::

           -------------------------------------------------
          |                Property Printout                |
           -------------------------------------------------

    * Orbital Energies and Occupations

         #    Occupation            Energy/Eh            Energy/eV
      -------------------------------------------------------------
         1        2.0000           -0.8691745             -23.6514
       ...           ...                  ...                  ...
        55        2.0000           -0.5059586             -13.7678
        56        2.0000           -0.5042792             -13.7221
        57        2.0000           -0.4998326             -13.6011
        58        2.0000           -0.4940112             -13.4427
        59        2.0000           -0.4806943             -13.0804
        60        2.0000           -0.4727131             -12.8632
        61        2.0000           -0.4679742             -12.7342
        62        2.0000           -0.4638289             -12.6214
        63        2.0000           -0.4549182             -12.3790
        64        2.0000           -0.4530693             -12.3286
        65        2.0000           -0.4438544             -12.0779
        66        2.0000           -0.4175398             -11.3618
        67        2.0000           -0.4109336             -11.1821 (HOMO)
        68                         -0.3201936              -8.7129 (LUMO)
        69                         -0.3132083              -8.5228
        70                         -0.2705249              -7.3614
        71                         -0.2574111              -7.0045
        72                         -0.2375632              -6.4644
        73                         -0.2065226              -5.6198
        74                         -0.2010433              -5.4707
        75                         -0.1573095              -4.2806
        76                         -0.1487193              -4.0469
        77                         -0.1452023              -3.9512
        78                         -0.1422003              -3.8695
       ...                                ...                  ...
       134                          0.8609961              23.4289
      -------------------------------------------------------------
                  HL-Gap            0.0907400 Eh            2.4692 eV
             Fermi-level           -0.3655636 Eh           -9.9475 eV

  Mulliken/CM5 charges         n(s)   n(p)   n(d)
     1C    -0.11213 -0.24954   1.012  3.100  0.000
     2C     0.39241  0.50105   1.008  2.600  0.000
     3N    -0.26684 -0.37460   1.564  3.703  0.000
     4N    -0.21825 -0.32228   1.566  3.653  0.000
     5C     0.33252  0.45829   1.006  2.662  0.000
     6C     0.46816  0.57684   0.977  2.555  0.000
     7O    -0.57894 -0.63499   1.725  4.854  0.000
     8N    -0.34232 -0.69592   1.435  3.908  0.000
     9C     0.14923  0.18823   1.066  2.785  0.000
    10C    -0.10738 -0.24722   1.021  3.087  0.000
    11C    -0.10571 -0.24512   1.021  3.085  0.000
    12C     0.27150  0.42357   1.012  2.717  0.000
    13N    -0.38798 -0.58057   1.531  3.857  0.000
    14C     0.00259  0.07553   1.024  2.974  0.000
    15C     0.51228  0.56536   1.045  2.442  0.000
    16O    -0.47669 -0.52642   1.721  4.755  0.000
    17O    -0.32494 -0.44427   1.698  4.627  0.000
    18C     0.15090  0.02725   0.993  2.856  0.000
    19C     0.14820  0.02465   0.995  2.857  0.000
    20C     0.32747  0.37400   1.042  2.630  0.000
    21O    -0.56198 -0.60174   1.735  4.827  0.000
    22C     0.44606  0.55103   1.004  2.550  0.000
    23O    -0.56613 -0.60427   1.729  4.837  0.000
    24N    -0.30732 -0.64796   1.437  3.870  0.000
    25O    -0.35787 -0.41503   1.697  4.661  0.000
    26H     0.08050  0.13517   0.920  0.000  0.000
    27H     0.08048  0.13489   0.920  0.000  0.000
    28H     0.07034  0.12611   0.930  0.000  0.000
    29H     0.26731  0.47346   0.733  0.000  0.000
    30H     0.04727  0.10210   0.953  0.000  0.000
    31H     0.05435  0.11069   0.946  0.000  0.000
    32H     0.06026  0.12302   0.940  0.000  0.000
    33H     0.05413  0.11013   0.946  0.000  0.000
    34H     0.05124  0.11001   0.949  0.000  0.000
    35H     0.04772  0.10610   0.952  0.000  0.000
    36H     0.07608  0.13918   0.924  0.000  0.000
    37H     0.06973  0.13045   0.930  0.000  0.000
    38H     0.06689  0.13010   0.933  0.000  0.000
    39H     0.06796  0.13707   0.932  0.000  0.000
    40H     0.07079  0.13145   0.929  0.000  0.000
    41H     0.06274  0.12306   0.937  0.000  0.000
    42H     0.28537  0.50116   0.715  0.000  0.000

Wiberg/Mayer (AO) data.
largest (>0.10) Wiberg bond orders for each atom

 ---------------------------------------------------------------------------
     #   Z sym  total        # sym  WBO       # sym  WBO       # sym  WBO
 ---------------------------------------------------------------------------
     1   6 C    3.986 --     2 C    1.032    28 H    0.982    26 H    0.964
                            27 H    0.961
     2   6 C    3.868 --     3 N    1.610    25 O    1.072     1 C    1.032
     3   7 N    2.982 --     2 C    1.610     4 N    1.200
     4   7 N    3.001 --     5 C    1.621     3 N    1.200
     5   6 C    3.873 --     4 N    1.621    25 O    1.047     6 C    0.997
     6   6 C    3.916 --     7 O    1.558     8 N    1.273     5 C    0.997
     7   8 O    1.913 --     6 C    1.558     8 N    0.175
     8   7 N    3.352 --     6 C    1.273     9 C    0.917    29 H    0.893
                             7 O    0.175
     9   6 C    3.934 --    11 C    1.001    10 C    0.981    12 C    0.971
                             8 N    0.917
    10   6 C    3.986 --    30 H    0.985    31 H    0.983     9 C    0.981
                            32 H    0.979
    11   6 C    3.991 --     9 C    1.001    33 H    0.984    34 H    0.983
                            35 H    0.981
    12   6 C    3.935 --    13 N    1.646    24 N    1.122     9 C    0.971
    13   7 N    3.038 --    12 C    1.646    14 C    1.109
    14   6 C    3.918 --    15 C    1.331    20 C    1.151    13 N    1.109
                            16 O    0.112
    15   6 C    3.811 --    16 O    1.775    14 C    1.331    17 O    0.504
    16   8 O    2.107 --    15 C    1.775    14 C    0.112
    17   8 O    2.396 --    18 C    0.874    19 C    0.871    15 C    0.504
    18   6 C    3.844 --    38 H    0.979    36 H    0.979    37 H    0.978
                            17 O    0.874
    19   6 C    3.843 --    41 H    0.982    40 H    0.978    39 H    0.973
                            17 O    0.871
    20   6 C    3.920 --    21 O    1.629    14 C    1.151    22 C    0.939
    21   8 O    1.915 --    20 C    1.629
    22   6 C    3.888 --    23 O    1.627    24 N    1.171    20 C    0.939
    23   8 O    1.903 --    22 C    1.627    24 N    0.139
    24   7 N    3.444 --    22 C    1.171    12 C    1.122    42 H    0.853
                            23 O    0.139
    25   8 O    2.316 --     2 C    1.072     5 C    1.047
    26   1 H    0.996 --     1 C    0.964
    27   1 H    0.997 --     1 C    0.961
    28   1 H    0.998 --     1 C    0.982
    29   1 H    0.937 --     8 N    0.893
    30   1 H    1.001 --    10 C    0.985
    31   1 H    0.999 --    10 C    0.983
    32   1 H    1.009 --    10 C    0.979
    33   1 H    0.998 --    11 C    0.984
    34   1 H    1.003 --    11 C    0.983
    35   1 H    1.010 --    11 C    0.981
    36   1 H    1.004 --    18 C    0.979
    37   1 H    1.001 --    18 C    0.978
    38   1 H    1.004 --    18 C    0.979
    39   1 H    1.024 --    19 C    0.973
    40   1 H    1.001 --    19 C    0.978
    41   1 H    0.998 --    19 C    0.982
    42   1 H    0.935 --    24 N    0.853
 ---------------------------------------------------------------------------

Topologies differ in total number of bonds
Writing topology from bond orders to xtbtopo.mol

 dipole moment from electron density (au)
     X       Y       Z   
   0.7520   7.0135  -6.0670  total (Debye):   23.648

           -------------------------------------------------
          |                Geometry Summary                 |
           -------------------------------------------------

      molecular mass/u    :      351.3152409
   center of mass at/Å    :        0.0812567      -0.6029548       0.4567087
  moments of inertia/u·Å² :        0.1266427E+04   0.4667660E+04   0.5203697E+04
rotational constants/cm⁻¹ :        0.1331118E-01   0.3611581E-02   0.3239549E-02

 * 36 selected distances

     #   Z          #   Z                                           value/Å
     1   6 C        2   6 C                                       1.4787129
     2   6 C        3   7 N                                       1.2965934
     4   7 N        5   6 C                                       1.2966382
     6   6 C        7   8 O                                       1.2238511
     6   6 C        8   7 N                                       1.3459493
     8   7 N        9   6 C                                       1.4711529
     9   6 C       10   6 C                                       1.5349317 (max)
     9   6 C       11   6 C                                       1.5295721
    12   6 C       13   7 N                                       1.2812392
    14   6 C       15   6 C                                       1.3815349
    15   6 C       16   8 O                                       1.1830143
    17   8 O       18   6 C                                       1.4365799
    17   8 O       19   6 C                                       1.4379604
    20   6 C       21   8 O                                       1.2255173
    22   6 C       23   8 O                                       1.2185924
    12   6 C       24   7 N                                       1.3729948
    22   6 C       24   7 N                                       1.3679628
     2   6 C       25   8 O                                       1.3436074
     5   6 C       25   8 O                                       1.3508047
     1   6 C       26   1 H                                       1.0894376
     1   6 C       27   1 H                                       1.0900052
     1   6 C       28   1 H                                       1.0874503
     8   7 N       29   1 H                                       1.0073141 (min)
    10   6 C       30   1 H                                       1.0886343
    10   6 C       31   1 H                                       1.0885402
    10   6 C       32   1 H                                       1.0882407
    11   6 C       33   1 H                                       1.0881113
    11   6 C       34   1 H                                       1.0889190
    11   6 C       35   1 H                                       1.0882220
    18   6 C       36   1 H                                       1.0885594
    18   6 C       37   1 H                                       1.0881896
    18   6 C       38   1 H                                       1.0923554
    19   6 C       39   1 H                                       1.0883277
    19   6 C       40   1 H                                       1.0891441
    19   6 C       41   1 H                                       1.0920425
    24   7 N       42   1 H                                       1.0180159

 * 5 distinct bonds (by element types)

   Z      Z             #   av. dist./Å        max./Å        min./Å
   1 H    6 C          15     1.0890786     1.0923554     1.0874503
   6 C    6 C           4     1.4811879     1.5349317     1.3815349
   1 H    7 N           2     1.0126650     1.0180159     1.0073141
   6 C    7 N           7     1.3475044     1.4711529     1.2812392
   6 C    8 O           8     1.3024909     1.4379604     1.1830143


optimized geometry written to: xtbopt.xyz


           -------------------------------------------------
          | TOTAL ENERGY              -82.959115675513 Eh   |
          | GRADIENT NORM               0.000257175860 Eh/α |
          | HOMO-LUMO GAP               2.469162343180 eV   |
           -------------------------------------------------

------------------------------------------------------------------------
 * finished run on 2023/06/21 at 17:36:19.496     
------------------------------------------------------------------------
 total:
 * wall-time:     0 d,  0 h,  0 min,  5.391 sec
 *  cpu-time:     0 d,  0 h,  0 min,  5.249 sec
 * ratio c/w:     0.974 speedup
 SCF:
 * wall-time:     0 d,  0 h,  0 min,  0.174 sec
 *  cpu-time:     0 d,  0 h,  0 min,  0.152 sec
 * ratio c/w:     0.875 speedup
 ANC optimizer:
 * wall-time:     0 d,  0 h,  0 min,  5.064 sec
 *  cpu-time:     0 d,  0 h,  0 min,  5.055 sec
 * ratio c/w:     0.998 speedup

