      -----------------------------------------------------------      
     |                   =====================                   |     
     |                           x T B                           |     
     |                   =====================                   |     
     |                         S. Grimme                         |     
     |          Mulliken Center for Theoretical Chemistry        |     
     |                    University of Bonn                     |     
      -----------------------------------------------------------      

   * xtb version 6.5.1 (579679a) compiled by 'ehlert@majestix' on 2022-07-11

   xtb is free software: you can redistribute it and/or modify it under
   the terms of the GNU Lesser General Public License as published by
   the Free Software Foundation, either version 3 of the License, or
   (at your option) any later version.
   
   xtb is distributed in the hope that it will be useful,
   but WITHOUT ANY WARRANTY; without even the implied warranty of
   MERCHANTABILITY or FITNESS FOR A PARTICULAR PURPOSE.  See the
   GNU Lesser General Public License for more details.
   
   Cite this work as:
   * C. Bannwarth, E. Caldeweyher, S. Ehlert, A. Hansen, P. Pracht,
     J. Seibert, S. Spicher, S. Grimme, WIREs Comput. Mol. Sci., 2020, 11,
     e01493. DOI: 10.1002/wcms.1493
   
   for GFN2-xTB:
   * C. Bannwarth, S. Ehlert and S. Grimme., J. Chem. Theory Comput., 2019,
     15, 1652-1671. DOI: 10.1021/acs.jctc.8b01176
   for GFN1-xTB:
   * S. Grimme, C. Bannwarth, P. Shushkov, J. Chem. Theory Comput., 2017,
     13, 1989-2009. DOI: 10.1021/acs.jctc.7b00118
   for GFN0-xTB:
   * P. Pracht, E. Caldeweyher, S. Ehlert, S. Grimme, ChemRxiv, 2019, preprint.
     DOI: 10.26434/chemrxiv.8326202.v1
   for GFN-FF:
   * S. Spicher and S. Grimme, Angew. Chem. Int. Ed., 2020, 59, 15665-15673.
     DOI: 10.1002/anie.202004239
   
   for ALPB and GBSA implicit solvation:
   * S. Ehlert, M. Stahn, S. Spicher, S. Grimme, J. Chem. Theory Comput.,
     2021, 17, 4250-4261. DOI: 10.1021/acs.jctc.1c00471
   
   for DFT-D4:
   * E. Caldeweyher, C. Bannwarth and S. Grimme, J. Chem. Phys., 2017,
     147, 034112. DOI: 10.1063/1.4993215
   * E. Caldeweyher, S. Ehlert, A. Hansen, H. Neugebauer, S. Spicher,
     C. Bannwarth and S. Grimme, J. Chem. Phys., 2019, 150, 154122.
     DOI: 10.1063/1.5090222
   * E. Caldeweyher, J.-M. Mewes, S. Ehlert and S. Grimme, Phys. Chem. Chem. Phys.
     2020, 22, 8499-8512. DOI: 10.1039/D0CP00502A
   
   for sTDA-xTB:
   * S. Grimme and C. Bannwarth, J. Chem. Phys., 2016, 145, 054103.
     DOI: 10.1063/1.4959605
   
   in the mass-spec context:
   * V. Asgeirsson, C. Bauer and S. Grimme, Chem. Sci., 2017, 8, 4879.
     DOI: 10.1039/c7sc00601b
   * J. Koopman and S. Grimme, ACS Omega 2019, 4, 12, 15120-15133.
     DOI: 10.1021/acsomega.9b02011
   
   for metadynamics refer to:
   * S. Grimme, J. Chem. Theory Comput., 2019, 155, 2847-2862
     DOI: 10.1021/acs.jctc.9b00143
   
   for SPH calculations refer to:
   * S. Spicher and S. Grimme, J. Chem. Theory Comput., 2021, 17, 1701-1714
     DOI: 10.1021/acs.jctc.0c01306
   
   with help from (in alphabetical order)
   P. Atkinson, C. Bannwarth, F. Bohle, G. Brandenburg, E. Caldeweyher
   M. Checinski, S. Dohm, S. Ehlert, S. Ehrlich, I. Gerasimov, C. Hölzer
   A. Katbashev, J. Koopman, C. Lavigne, S. Lehtola, F. März, M. Müller,
   F. Musil, H. Neugebauer, J. Pisarek, C. Plett, P. Pracht, F. Pultar,
   J. Seibert, P. Shushkov, S. Spicher, M. Stahn, M. Steiner, T. Strunk,
   J. Stückrath, T. Rose, and J. Unsleber
   
 * started run on 2023/06/20 at 14:57:04.396     

           -------------------------------------------------
          |                Calculation Setup                |
           -------------------------------------------------

          program call               : /lustre/hpc/kemi/ree/PhD/git/ReactivityQM/dep/xtb-6.5.1/bin/xtb --gfn 1 /lustre/hpc/kemi/ree/PhD/git/ReactivityQM/calculations/R02/reac01prodE04/conf04/R02_reac01prodE04_conf04_gfn1.xyz --opt --vfukui --chrg -1 --uhf 0 --alpb DMSO
          hostname                   : node315
          coordinate file            : /lustre/hpc/kemi/ree/PhD/git/ReactivityQM/calculations/R02/reac01prodE04/conf04/R02_reac01prodE04_conf04_gfn1.xyz
          omp threads                :                     1

   ID    Z sym.   atoms
    1    6 C      1, 3, 5, 6, 8-11, 13, 15, 18, 19, 22, 24
    2    8 O      2, 4, 14, 20, 23, 25
    3    7 N      7, 12, 16, 17, 21
    4    1 H      26-43

           -------------------------------------------------
          |                 G F N 1 - x T B                 |
           -------------------------------------------------

        Reference                      10.1021/acs.jctc.7b00118
      * Hamiltonian:
        H0-scaling (s, p, d)           1.850000    2.250000    2.000000
        zeta-weighting                 0.000000
      * Dispersion:
        s8                             2.400000
        a1                             0.630000
        a2                             5.000000
        s9                             0.000000
      * Repulsion:
        kExp                           1.500000
        rExp                           1.000000
      * Coulomb:
        alpha                          2.000000
        third order                    atomic
        anisotropic                    false
      * Halogen bond correction:
        rad-scale                      1.300000
        damping                        0.440000

      * Solvation model:               ALPB
        Solvent                        DMSO
        Parameter file                 internal GFN1-xTB/ALPB
        Dielectric constant                4.6680E+01
        Reference state                gsolv [1 M gas/solution]
        Free energy shift                  7.6243E-03 Eh       4.7843E+00 kcal/mol
        Temperature                        2.9815E+02 K
        Density                            1.1000E+00 kg/L
        Solvent mass                       7.8130E+01 g/mol
        Interaction kernel             P16
        Born radius scaling (c1)           1.7672E+00
        Born radii integrator          GBOBC
        Born offset                        0.0000E+00 a0       0.0000E+00 AA
        H-bond correction              true
        Ion screening                  false
        Surface tension                    1.0000E-05 Eh       1.5569E+01 dyn/cm
        Grid points                               230 per atom

          ...................................................
          :                      SETUP                      :
          :.................................................:
          :  # basis functions                 136          :
          :  # atomic orbitals                 136          :
          :  # shells                           86          :
          :  # electrons                       136          :
          :  # halogen bonds                     0          :
          :  max. iterations                   250          :
          :  Hamiltonian                  GFN1-xTB          :
          :  restarted?                      false          :
          :  GBSA solvation                   true          :
          :  PC potential                    false          :
          :  electronic temp.          300.0000000     K    :
          :  accuracy                    1.0000000          :
          :  -> integral cutoff          0.2500000E+02      :
          :  -> integral neglect         0.1000000E-07      :
          :  -> SCF convergence          0.1000000E-05 Eh   :
          :  -> wf. convergence          0.2000000E-04 e    :
          :  Broyden damping             0.4000000          :
          ...................................................

 iter      E             dE          RMSdq      gap      omega  full diag
   1    -84.2994738 -0.842995E+02  0.854E+00    1.52       0.0  T
   2    -84.5733553 -0.273881E+00  0.511E+00    0.12       1.0  T
   3    -84.5432813  0.300740E-01  0.169E+00    0.36       1.0  T
   4    -84.1253193  0.417962E+00  0.196E+00    0.57       1.0  T
   5    -84.5860277 -0.460708E+00  0.313E-01    0.42       1.0  T
   6    -84.5875879 -0.156019E-02  0.260E-01    0.33       1.0  T
   7    -84.5893325 -0.174462E-02  0.208E-01    0.23       1.0  T
   8    -84.5944043 -0.507181E-02  0.915E-03    0.11       1.7  T
   9    -84.5943581  0.462412E-04  0.195E-02    0.11       1.0  T
  10    -84.5943652 -0.704929E-05  0.188E-02    0.12       1.0  T
  11    -84.5943828 -0.176540E-04  0.142E-02    0.11       1.1  T
  12    -84.5943943 -0.115119E-04  0.105E-02    0.12       1.5  T
  13    -84.5944069 -0.126047E-04  0.262E-03    0.11       5.8  T
  14    -84.5944078 -0.824267E-06  0.429E-04    0.11      35.5  T
  15    -84.5944078 -0.227163E-07  0.257E-05    0.11     593.9  T
  16    -84.5944078  0.844793E-09  0.839E-05    0.11     181.7  T

   *** convergence criteria satisfied after 16 iterations ***

         #    Occupation            Energy/Eh            Energy/eV
      -------------------------------------------------------------
         1        2.0000           -0.8401843             -22.8626
       ...           ...                  ...                  ...
        62        2.0000           -0.4336949             -11.8014
        63        2.0000           -0.4240709             -11.5396
        64        2.0000           -0.4216293             -11.4731
        65        2.0000           -0.3991823             -10.8623
        66        2.0000           -0.3895703             -10.6007
        67        2.0000           -0.3819586             -10.3936
        68        1.7961           -0.2983779              -8.1193 (HOMO)
        69        0.2039           -0.2942436              -8.0068 (LUMO)
        70                         -0.2565506              -6.9811
        71                         -0.2403512              -6.5403
        72                         -0.2267344              -6.1698
        73                         -0.1785332              -4.8581
       ...                                ...                  ...
       136                          0.7095039              19.3066
      -------------------------------------------------------------
                  HL-Gap            0.0041344 Eh            0.1125 eV
             Fermi-level           -0.2963107 Eh           -8.0630 eV

 SCC (total)                   0 d,  0 h,  0 min,  0.198 sec
 SCC setup                      ...        0 min,  0.002 sec (  1.210%)
 Dispersion                     ...        0 min,  0.000 sec (  0.223%)
 classical contributions        ...        0 min,  0.000 sec (  0.069%)
 integral evaluation            ...        0 min,  0.044 sec ( 22.521%)
 iterations                     ...        0 min,  0.062 sec ( 31.400%)
 molecular gradient             ...        0 min,  0.087 sec ( 43.992%)
 printout                       ...        0 min,  0.001 sec (  0.557%)

         :::::::::::::::::::::::::::::::::::::::::::::::::::::
         ::                     SUMMARY                     ::
         :::::::::::::::::::::::::::::::::::::::::::::::::::::
         :: total energy             -83.846745328363 Eh    ::
         :: total w/o Gsasa/hb       -83.823614648018 Eh    ::
         :: gradient norm              0.155222907731 Eh/a0 ::
         :: HOMO-LUMO gap              0.112501508074 eV    ::
         ::.................................................::
         :: SCC energy               -84.594407774596 Eh    ::
         :: -> electrostatic           0.453026327294 Eh    ::
         :: -> Gsolv                  -0.115968669898 Eh    ::
         ::    -> Gelec               -0.092837989554 Eh    ::
         ::    -> Gsasa               -0.024026312767 Eh    ::
         ::    -> Ghb                 -0.006728646582 Eh    ::
         ::    -> Gshift               0.007624279005 Eh    ::
         :: repulsion energy           0.774711436051 Eh    ::
         :: dispersion energy         -0.027048989818 Eh    ::
         :: halogen bond corr.         0.000000000000 Eh    ::
         :: add. restraining           0.000000000000 Eh    ::
         :: total charge              -1.000000000000 e     ::
         :::::::::::::::::::::::::::::::::::::::::::::::::::::

      ----------------------------------------------------------- 
     |                   =====================                   |
     |                        A N C O P T                        |
     |                   =====================                   |
     |               Approximate Normal Coordinate               |
     |                Rational Function Optimizer                |
      ----------------------------------------------------------- 

          ...................................................
          :                      SETUP                      :
          :.................................................:
          :   optimization level            normal          :
          :   max. optcycles                   200          :
          :   ANC micro-cycles                  20          :
          :   degrees of freedom               123          :
          :.................................................:
          :   RF solver                   davidson          :
          :   write xtbopt.log                true          :
          :   linear?                        false          :
          :   energy convergence         0.5000000E-05 Eh   :
          :   grad. convergence          0.1000000E-02 Eh/α :
          :   maximium RF displ.         1.0000000          :
          :   Hlow (freq-cutoff)         0.1000000E-01      :
          :   Hmax (freq-cutoff)         5.0000000          :
          :   S6 in model hess.         20.0000000          :
          ...................................................

generating ANC from model Hessian ...
Using Lindh-Hessian (1995)
 Shifting diagonal of input Hessian by   9.799683404390655E-003
 Lowest  eigenvalues of input Hessian
    0.000000    0.000000    0.000000    0.000000    0.000000    0.000000
    0.010000    0.010072    0.010305    0.011144    0.011767    0.012310
    0.012933    0.013530    0.014424    0.015633    0.016143    0.017385
 Highest eigenvalues
    1.990956    2.111096    2.122700    2.259229    2.321640    2.346992
 

........................................................................
.............................. CYCLE    1 ..............................
........................................................................
   1    -84.5944078 -0.845944E+02  0.752E-06    0.11       0.0  T
   2    -84.5944078  0.629512E-09  0.721E-05    0.11     211.5  T
   3    -84.5944078 -0.636547E-09  0.572E-07    0.11   26665.0  T
     SCC iter.                  ...        0 min,  0.012 sec
     gradient                   ...        0 min,  0.076 sec
 * total energy  :   -83.8467453 Eh     change       -0.8645600E-09 Eh
   gradient norm :     0.1552320 Eh/α   predicted     0.0000000E+00 (-100.00%)
   displ. norm   :     0.3023042 α      lambda       -0.2094089E-01
   maximum displ.:     0.1302727 α      in ANC's #26, #24, #5, ...

........................................................................
.............................. CYCLE    2 ..............................
........................................................................
   1    -84.6095956 -0.846096E+02  0.202E-01    0.44       0.0  T
   2    -84.2080517  0.401544E+00  0.178E+00    0.13       1.0  T
   3    -84.6105263 -0.402475E+00  0.176E-01    0.33       1.0  T
   4    -84.6109427 -0.416367E-03  0.157E-01    0.28       1.0  T
   5    -84.6128088 -0.186613E-02  0.889E-02    0.18       1.0  T
   6    -84.6137288 -0.920049E-03  0.983E-03    0.13       1.6  T
   7    -84.6137338 -0.500334E-05  0.767E-03    0.14       2.0  T
   8    -84.6137405 -0.668505E-05  0.429E-04    0.14      35.5  T
   9    -84.6137403  0.245257E-06  0.141E-03    0.13      10.8  T
  10    -84.6137405 -0.218964E-06  0.528E-04    0.14      28.9  T
  11    -84.6137405 -0.326751E-07  0.537E-05    0.14     284.1  T
  12    -84.6137405  0.424762E-10  0.511E-05    0.14     298.5  T
     SCC iter.                  ...        0 min,  0.045 sec
     gradient                   ...        0 min,  0.086 sec
 * total energy  :   -83.8620239 Eh     change       -0.1527857E-01 Eh
   gradient norm :     0.0800096 Eh/α   predicted    -0.1143870E-01 ( -25.13%)
   displ. norm   :     0.3279969 α      lambda       -0.1062888E-01
   maximum displ.:     0.1431782 α      in ANC's #26, #5, #31, ...

........................................................................
.............................. CYCLE    3 ..............................
........................................................................
   1    -84.6288605 -0.846289E+02  0.147E-01    0.50       0.0  T
   2    -84.6259605  0.290007E-02  0.214E-01    0.11       1.0  T
   3    -84.6298444 -0.388396E-02  0.917E-02    0.32       1.0  T
   4    -84.6302024 -0.358030E-03  0.645E-02    0.25       1.0  T
   5    -84.6261619  0.404056E-02  0.192E-01    0.10       1.0  T
   6    -84.6306667 -0.450480E-02  0.126E-02    0.17       1.2  T
   7    -84.6306491  0.176197E-04  0.162E-02    0.16       1.0  T
   8    -84.6306743 -0.251925E-04  0.705E-03    0.17       2.2  T
   9    -84.6306783 -0.404120E-05  0.384E-03    0.17       4.0  T
  10    -84.6306795 -0.122922E-05  0.205E-03    0.17       7.5  T
  11    -84.6306799 -0.386681E-06  0.915E-04    0.17      16.7  T
  12    -84.6306800 -0.830749E-07  0.339E-04    0.17      45.0  T
  13    -84.6306800 -0.115334E-07  0.117E-04    0.17     130.0  T
  14    -84.6306800 -0.142616E-08  0.348E-05    0.17     437.7  T
     SCC iter.                  ...        0 min,  0.051 sec
     gradient                   ...        0 min,  0.087 sec
 * total energy  :   -83.8683638 Eh     change       -0.6339915E-02 Eh
   gradient norm :     0.0290449 Eh/α   predicted    -0.5886181E-02 (  -7.16%)
   displ. norm   :     0.2646464 α      lambda       -0.1956750E-02
   maximum displ.:     0.1475463 α      in ANC's #5, #7, #6, ...

........................................................................
.............................. CYCLE    4 ..............................
........................................................................
   1    -84.6324413 -0.846324E+02  0.689E-02    0.29       0.0  T
   2    -84.6296341  0.280716E-02  0.170E-01    0.12       1.0  T
   3    -84.6327260 -0.309189E-02  0.367E-02    0.24       1.0  T
   4    -84.6328219 -0.958418E-04  0.214E-02    0.22       1.0  T
   5    -84.6328619 -0.400035E-04  0.105E-02    0.19       1.5  T
   6    -84.6328700 -0.808574E-05  0.541E-03    0.19       2.8  T
   7    -84.6328731 -0.317382E-05  0.267E-04    0.20      57.2  T
   8    -84.6328731 -0.265182E-08  0.681E-05    0.20     223.8  T
   9    -84.6328731  0.112138E-08  0.106E-04    0.20     143.8  T
     SCC iter.                  ...        0 min,  0.033 sec
     gradient                   ...        0 min,  0.086 sec
 * total energy  :   -83.8698366 Eh     change       -0.1472834E-02 Eh
   gradient norm :     0.0199007 Eh/α   predicted    -0.1047025E-02 ( -28.91%)
   displ. norm   :     0.3986000 α      lambda       -0.1739853E-02
   maximum displ.:     0.2485864 α      in ANC's #5, #7, #10, ...

........................................................................
.............................. CYCLE    5 ..............................
........................................................................
   1    -84.6335476 -0.846335E+02  0.582E-02    0.28       0.0  T
   2    -84.6334375  0.110108E-03  0.607E-02    0.17       1.0  T
   3    -84.6337428 -0.305281E-03  0.180E-02    0.24       1.0  T
   4    -84.6337703 -0.275320E-04  0.680E-03    0.22       2.2  T
   5    -84.6337702  0.139926E-06  0.468E-03    0.21       3.3  T
   6    -84.6337721 -0.195312E-05  0.841E-04    0.22      18.1  T
   7    -84.6337722 -0.311959E-07  0.440E-04    0.22      34.7  T
   8    -84.6337722 -0.188582E-07  0.716E-05    0.22     213.0  T
   9    -84.6337722  0.188010E-10  0.499E-05    0.22     305.8  T
     SCC iter.                  ...        0 min,  0.033 sec
     gradient                   ...        0 min,  0.086 sec
 * total energy  :   -83.8710489 Eh     change       -0.1212291E-02 Eh
   gradient norm :     0.0134794 Eh/α   predicted    -0.1008145E-02 ( -16.84%)
   displ. norm   :     0.3636555 α      lambda       -0.8885689E-03
   maximum displ.:     0.2504946 α      in ANC's #5, #7, #10, ...

........................................................................
.............................. CYCLE    6 ..............................
........................................................................
   1    -84.6348779 -0.846349E+02  0.258E-02    0.24       0.0  T
   2    -84.6348902 -0.123190E-04  0.157E-02    0.21       1.0  T
   3    -84.6349066 -0.163755E-04  0.701E-03    0.24       2.2  T
   4    -84.6349094 -0.275624E-05  0.270E-03    0.23       5.7  T
   5    -84.6349094 -0.413547E-08  0.932E-04    0.23      16.4  T
   6    -84.6349094 -0.141722E-07  0.163E-04    0.23      93.6  T
   7    -84.6349094 -0.298755E-09  0.634E-05    0.23     240.6  T
     SCC iter.                  ...        0 min,  0.027 sec
     gradient                   ...        0 min,  0.086 sec
 * total energy  :   -83.8717133 Eh     change       -0.6643374E-03 Eh
   gradient norm :     0.0139580 Eh/α   predicted    -0.5030397E-03 ( -24.28%)
   displ. norm   :     0.3451263 α      lambda       -0.6696864E-03
   maximum displ.:     0.2457029 α      in ANC's #5, #7, #10, ...

........................................................................
.............................. CYCLE    7 ..............................
........................................................................
   1    -84.6367926 -0.846368E+02  0.130E-02    0.21       0.0  T
   2    -84.6367965 -0.383589E-05  0.124E-02    0.24       1.2  T
   3    -84.6368060 -0.952246E-05  0.347E-03    0.23       4.4  T
   4    -84.6368059  0.127610E-06  0.262E-03    0.23       5.8  T
   5    -84.6368060 -0.170764E-06  0.500E-04    0.23      30.5  T
   6    -84.6368060 -0.440943E-08  0.985E-05    0.23     154.8  T
   7    -84.6368060 -0.307608E-09  0.317E-05    0.23     480.5  T
     SCC iter.                  ...        0 min,  0.026 sec
     gradient                   ...        0 min,  0.086 sec
 * total energy  :   -83.8722311 Eh     change       -0.5178290E-03 Eh
   gradient norm :     0.0125270 Eh/α   predicted    -0.3747284E-03 ( -27.63%)
   displ. norm   :     0.3433115 α      lambda       -0.5271059E-03
   maximum displ.:     0.2421779 α      in ANC's #5, #7, #10, ...

........................................................................
.............................. CYCLE    8 ..............................
........................................................................
   1    -84.6382339 -0.846382E+02  0.231E-02    0.20       0.0  T
   2    -84.6382275  0.639644E-05  0.264E-02    0.25       1.0  T
   3    -84.6382806 -0.531011E-04  0.505E-03    0.22       3.0  T
   4    -84.6382816 -0.936386E-06  0.185E-03    0.22       8.2  T
   5    -84.6382816 -0.259013E-08  0.459E-04    0.22      33.2  T
   6    -84.6382816 -0.554519E-08  0.863E-05    0.22     176.6  T
   7    -84.6382816 -0.145761E-09  0.326E-05    0.22     468.5  T
     SCC iter.                  ...        0 min,  0.026 sec
     gradient                   ...        0 min,  0.087 sec
 * total energy  :   -83.8726254 Eh     change       -0.3942824E-03 Eh
   gradient norm :     0.0093552 Eh/α   predicted    -0.2946167E-03 ( -25.28%)
   displ. norm   :     0.3151152 α      lambda       -0.3404857E-03
   maximum displ.:     0.2154881 α      in ANC's #5, #7, #2, ...

........................................................................
.............................. CYCLE    9 ..............................
........................................................................
   1    -84.6389761 -0.846390E+02  0.202E-02    0.20       0.0  T
   2    -84.6389670  0.907925E-05  0.220E-02    0.24       1.0  T
   3    -84.6390072 -0.401991E-04  0.249E-03    0.21       6.1  T
   4    -84.6390072 -0.255898E-07  0.154E-03    0.21       9.9  T
   5    -84.6390072  0.671437E-08  0.782E-04    0.21      19.5  T
   6    -84.6390072 -0.407381E-07  0.259E-04    0.21      58.9  T
   7    -84.6390072 -0.705781E-08  0.347E-05    0.21     439.1  T
   8    -84.6390072 -0.226521E-10  0.141E-05    0.21    1078.1  T
     SCC iter.                  ...        0 min,  0.030 sec
     gradient                   ...        0 min,  0.088 sec
 * total energy  :   -83.8728781 Eh     change       -0.2527212E-03 Eh
   gradient norm :     0.0065889 Eh/α   predicted    -0.1871488E-03 ( -25.95%)
   displ. norm   :     0.3005950 α      lambda       -0.2385313E-03
   maximum displ.:     0.1916178 α      in ANC's #5, #7, #2, ...

........................................................................
.............................. CYCLE   10 ..............................
........................................................................
   1    -84.6393680 -0.846394E+02  0.131E-02    0.20       0.0  T
   2    -84.6393640  0.400544E-05  0.132E-02    0.23       1.2  T
   3    -84.6393790 -0.150433E-04  0.284E-03    0.21       5.4  T
   4    -84.6393795 -0.460485E-06  0.112E-03    0.21      13.6  T
   5    -84.6393794  0.119376E-07  0.662E-04    0.21      23.0  T
   6    -84.6393795 -0.246812E-07  0.879E-05    0.21     173.5  T
   7    -84.6393795 -0.250495E-09  0.276E-05    0.21     552.8  T
     SCC iter.                  ...        0 min,  0.026 sec
     gradient                   ...        0 min,  0.088 sec
 * total energy  :   -83.8730546 Eh     change       -0.1765347E-03 Eh
   gradient norm :     0.0059516 Eh/α   predicted    -0.1300452E-03 ( -26.33%)
   displ. norm   :     0.2897530 α      lambda       -0.1897189E-03
   maximum displ.:     0.1613602 α      in ANC's #5, #2, #7, ...

........................................................................
.............................. CYCLE   11 ..............................
........................................................................
   1    -84.6396517 -0.846397E+02  0.627E-03    0.21       0.0  T
   2    -84.6396534 -0.166342E-05  0.281E-03    0.21       5.4  T
   3    -84.6396534 -0.746763E-07  0.198E-03    0.21       7.7  T
   4    -84.6396535 -0.735844E-07  0.114E-03    0.21      13.3  T
   5    -84.6396536 -0.789264E-07  0.543E-04    0.21      28.1  T
   6    -84.6396536 -0.125095E-07  0.772E-05    0.21     197.6  T
   7    -84.6396536 -0.142848E-09  0.211E-05    0.21     722.0  T
     SCC iter.                  ...        0 min,  0.026 sec
     gradient                   ...        0 min,  0.087 sec
 * total energy  :   -83.8731951 Eh     change       -0.1404761E-03 Eh
   gradient norm :     0.0061453 Eh/α   predicted    -0.1028320E-03 ( -26.80%)
   displ. norm   :     0.2530646 α      lambda       -0.1641672E-03
   maximum displ.:     0.1310942 α      in ANC's #2, #5, #7, ...

........................................................................
.............................. CYCLE   12 ..............................
........................................................................
   1    -84.6402342 -0.846402E+02  0.734E-03    0.22       0.0  T
   2    -84.6402323  0.187210E-05  0.867E-03    0.20       1.8  T
   3    -84.6402379 -0.557999E-05  0.230E-03    0.21       6.6  T
   4    -84.6402381 -0.127489E-06  0.144E-03    0.21      10.6  T
   5    -84.6402381 -0.592360E-07  0.371E-04    0.21      41.1  T
   6    -84.6402381 -0.103508E-08  0.618E-05    0.21     246.8  T
   7    -84.6402381 -0.698321E-10  0.239E-05    0.21     638.0  T
     SCC iter.                  ...        0 min,  0.027 sec
     gradient                   ...        0 min,  0.088 sec
 * total energy  :   -83.8733223 Eh     change       -0.1271591E-03 Eh
   gradient norm :     0.0063374 Eh/α   predicted    -0.8734389E-04 ( -31.31%)
   displ. norm   :     0.2856179 α      lambda       -0.1788640E-03
   maximum displ.:     0.1631807 α      in ANC's #2, #6, #4, ...

........................................................................
.............................. CYCLE   13 ..............................
........................................................................
   1    -84.6398212 -0.846398E+02  0.111E-02    0.22       0.0  T
   2    -84.6398177  0.351761E-05  0.122E-02    0.20       1.2  T
   3    -84.6398292 -0.115259E-04  0.307E-03    0.22       5.0  T
   4    -84.6398298 -0.557700E-06  0.141E-03    0.21      10.8  T
   5    -84.6398298 -0.632014E-08  0.380E-04    0.21      40.1  T
   6    -84.6398298 -0.145933E-08  0.887E-05    0.21     171.9  T
   7    -84.6398298 -0.264151E-09  0.315E-05    0.21     484.3  T
     SCC iter.                  ...        0 min,  0.026 sec
     gradient                   ...        0 min,  0.087 sec
 * total energy  :   -83.8734593 Eh     change       -0.1370503E-03 Eh
   gradient norm :     0.0063452 Eh/α   predicted    -0.9672870E-04 ( -29.42%)
   displ. norm   :     0.2947519 α      lambda       -0.1746517E-03
   maximum displ.:     0.1785019 α      in ANC's #2, #6, #4, ...

........................................................................
.............................. CYCLE   14 ..............................
........................................................................
   1    -84.6399751 -0.846400E+02  0.112E-02    0.22       0.0  T
   2    -84.6399753 -0.242363E-06  0.102E-02    0.21       1.5  T
   3    -84.6399823 -0.702005E-05  0.320E-03    0.22       4.8  T
   4    -84.6399830 -0.623674E-06  0.142E-03    0.22      10.8  T
   5    -84.6399830 -0.126334E-07  0.401E-04    0.22      38.0  T
   6    -84.6399830 -0.128323E-08  0.894E-05    0.22     170.5  T
   7    -84.6399830 -0.214811E-09  0.272E-05    0.22     561.2  T
     SCC iter.                  ...        0 min,  0.024 sec
     gradient                   ...        0 min,  0.087 sec
 * total energy  :   -83.8735963 Eh     change       -0.1369516E-03 Eh
   gradient norm :     0.0067745 Eh/α   predicted    -0.9491441E-04 ( -30.69%)
   displ. norm   :     0.3374630 α      lambda       -0.1971334E-03
   maximum displ.:     0.2137762 α      in ANC's #2, #6, #4, ...

........................................................................
.............................. CYCLE   15 ..............................
........................................................................
   1    -84.6386704 -0.846387E+02  0.940E-03    0.22       0.0  T
   2    -84.6386728 -0.238520E-05  0.574E-03    0.21       2.7  T
   3    -84.6386743 -0.145653E-05  0.268E-03    0.22       5.7  T
   4    -84.6386746 -0.331237E-06  0.136E-03    0.22      11.2  T
   5    -84.6386747 -0.619822E-07  0.360E-04    0.22      42.4  T
   6    -84.6386747 -0.281959E-08  0.739E-05    0.22     206.4  T
   7    -84.6386747 -0.140446E-09  0.200E-05    0.22     761.6  T
     SCC iter.                  ...        0 min,  0.024 sec
     gradient                   ...        0 min,  0.075 sec
 * total energy  :   -83.8737516 Eh     change       -0.1553147E-03 Eh
   gradient norm :     0.0070475 Eh/α   predicted    -0.1097968E-03 ( -29.31%)
   displ. norm   :     0.3581458 α      lambda       -0.2335595E-03
   maximum displ.:     0.2349598 α      in ANC's #2, #6, #4, ...

........................................................................
.............................. CYCLE   16 ..............................
........................................................................
   1    -84.6395290 -0.846395E+02  0.860E-03    0.22       0.0  T
   2    -84.6395312 -0.220124E-05  0.335E-03    0.22       4.6  T
   3    -84.6395315 -0.223610E-06  0.176E-03    0.22       8.7  T
   4    -84.6395314  0.277847E-07  0.959E-04    0.22      15.9  T
   5    -84.6395315 -0.384913E-07  0.497E-04    0.22      30.7  T
   6    -84.6395315 -0.180434E-07  0.740E-05    0.22     206.2  T
   7    -84.6395315 -0.181515E-09  0.196E-05    0.22     779.4  T
     SCC iter.                  ...        0 min,  0.024 sec
     gradient                   ...        0 min,  0.064 sec
 * total energy  :   -83.8739403 Eh     change       -0.1886946E-03 Eh
   gradient norm :     0.0067904 Eh/α   predicted    -0.1317608E-03 ( -30.17%)
   displ. norm   :     0.4995967 α      lambda       -0.3050247E-03
   maximum displ.:     0.3323351 α      in ANC's #2, #4, #6, ...

........................................................................
.............................. CYCLE   17 ..............................
........................................................................
   1    -84.6354589 -0.846355E+02  0.157E-02    0.21       0.0  T
   2    -84.6354600 -0.116956E-05  0.135E-02    0.24       1.1  T
   3    -84.6354751 -0.151116E-04  0.354E-03    0.22       4.3  T
   4    -84.6354755 -0.341883E-06  0.178E-03    0.22       8.6  T
   5    -84.6354755 -0.382960E-08  0.662E-04    0.22      23.0  T
   6    -84.6354755 -0.171914E-07  0.180E-04    0.22      84.7  T
   7    -84.6354755 -0.179392E-08  0.277E-05    0.22     550.3  T
     SCC iter.                  ...        0 min,  0.025 sec
     gradient                   ...        0 min,  0.083 sec
 * total energy  :   -83.8741466 Eh     change       -0.2063480E-03 Eh
   gradient norm :     0.0119899 Eh/α   predicted    -0.1905893E-03 (  -7.64%)
   displ. norm   :     0.4172691 α      lambda       -0.4447813E-03
   maximum displ.:     0.2947146 α      in ANC's #2, #4, #6, ...

........................................................................
.............................. CYCLE   18 ..............................
........................................................................
   1    -84.6402699 -0.846403E+02  0.206E-02    0.21       0.0  T
   2    -84.6402794 -0.954487E-05  0.133E-02    0.23       1.1  T
   3    -84.6402869 -0.745249E-05  0.738E-03    0.21       2.1  T
   4    -84.6402887 -0.176669E-05  0.365E-03    0.22       4.2  T
   5    -84.6402890 -0.363024E-06  0.113E-03    0.22      13.5  T
   6    -84.6402891 -0.809126E-07  0.182E-04    0.22      83.9  T
   7    -84.6402891 -0.112172E-08  0.512E-05    0.22     297.8  T
     SCC iter.                  ...        0 min,  0.023 sec
     gradient                   ...        0 min,  0.082 sec
 * total energy  :   -83.8743250 Eh     change       -0.1783215E-03 Eh
   gradient norm :     0.0134794 Eh/α   predicted    -0.2611156E-03 (  46.43%)
   displ. norm   :     0.3521040 α      lambda       -0.2976905E-03
   maximum displ.:     0.2449546 α      in ANC's #2, #4, #9, ...

........................................................................
.............................. CYCLE   19 ..............................
........................................................................
   1    -84.6387890 -0.846388E+02  0.130E-02    0.22       0.0  T
   2    -84.6387949 -0.584971E-05  0.718E-03    0.22       2.1  T
   3    -84.6387964 -0.150999E-05  0.488E-03    0.22       3.1  T
   4    -84.6387973 -0.853761E-06  0.251E-03    0.22       6.1  T
   5    -84.6387974 -0.175637E-06  0.630E-04    0.22      24.2  T
   6    -84.6387974 -0.951329E-08  0.158E-04    0.22      96.7  T
   7    -84.6387974 -0.133133E-08  0.230E-05    0.22     664.1  T
     SCC iter.                  ...        0 min,  0.025 sec
     gradient                   ...        0 min,  0.082 sec
 * total energy  :   -83.8745141 Eh     change       -0.1890964E-03 Eh
   gradient norm :     0.0090057 Eh/α   predicted    -0.1672990E-03 ( -11.53%)
   displ. norm   :     0.2649368 α      lambda       -0.2099283E-03
   maximum displ.:     0.1972980 α      in ANC's #2, #4, #9, ...

........................................................................
.............................. CYCLE   20 ..............................
........................................................................
   1    -84.6385731 -0.846386E+02  0.102E-02    0.21       0.0  T
   2    -84.6385721  0.993089E-06  0.991E-03    0.23       1.5  T
   3    -84.6385805 -0.844014E-05  0.238E-03    0.22       6.4  T
   4    -84.6385806 -0.140358E-06  0.114E-03    0.22      13.4  T
   5    -84.6385807 -0.989269E-08  0.411E-04    0.22      37.1  T
   6    -84.6385807 -0.252801E-08  0.822E-05    0.22     185.5  T
   7    -84.6385807 -0.204352E-09  0.231E-05    0.22     659.9  T
     SCC iter.                  ...        0 min,  0.025 sec
     gradient                   ...        0 min,  0.084 sec
 * total energy  :   -83.8746644 Eh     change       -0.1503165E-03 Eh
   gradient norm :     0.0094174 Eh/α   predicted    -0.1123331E-03 ( -25.27%)
   displ. norm   :     0.2311214 α      lambda       -0.2669600E-03
   maximum displ.:     0.1823888 α      in ANC's #2, #11, #10, ...
 * RMSD in coord.:     0.7276832 α      energy gain  -0.2791904E-01 Eh

generating ANC from model Hessian ...
Using Lindh-Hessian (1995)
 Shifting diagonal of input Hessian by   9.773236737781370E-003
 Lowest  eigenvalues of input Hessian
    0.000000    0.000000    0.000000    0.000000    0.000000    0.000000
    0.010000    0.010044    0.010270    0.011082    0.011682    0.012001
    0.012934    0.013338    0.014032    0.015113    0.016034    0.016662
 Highest eigenvalues
    2.035528    2.134062    2.187809    2.278825    2.324066    2.404374
 

........................................................................
.............................. CYCLE   21 ..............................
........................................................................
   1    -84.6449844 -0.846450E+02  0.156E-02    0.23       0.0  T
   2    -84.6449874 -0.300405E-05  0.116E-02    0.21       1.3  T
   3    -84.6449956 -0.822465E-05  0.584E-03    0.22       2.6  T
   4    -84.6449975 -0.190053E-05  0.252E-03    0.22       6.0  T
   5    -84.6449976 -0.583437E-07  0.678E-04    0.22      22.5  T
   6    -84.6449976 -0.992549E-08  0.112E-04    0.22     136.1  T
   7    -84.6449976 -0.409941E-09  0.258E-05    0.22     590.0  T
     SCC iter.                  ...        0 min,  0.025 sec
     gradient                   ...        0 min,  0.085 sec
 * total energy  :   -83.8747900 Eh     change       -0.1256402E-03 Eh
   gradient norm :     0.0073793 Eh/α   predicted     0.0000000E+00 (-100.00%)
   displ. norm   :     0.0532758 α      lambda       -0.8808472E-04
   maximum displ.:     0.0265576 α      in ANC's #2, #3, #1, ...

........................................................................
.............................. CYCLE   22 ..............................
........................................................................
   1    -84.6429681 -0.846430E+02  0.531E-03    0.21       0.0  T
   2    -84.6429685 -0.378016E-06  0.381E-03    0.22       4.0  T
   3    -84.6429692 -0.636216E-06  0.202E-03    0.22       7.5  T
   4    -84.6429693 -0.155606E-06  0.114E-03    0.22      13.3  T
   5    -84.6429693 -0.395513E-07  0.181E-04    0.22      84.2  T
   6    -84.6429693 -0.457732E-09  0.351E-05    0.22     434.2  T
     SCC iter.                  ...        0 min,  0.021 sec
     gradient                   ...        0 min,  0.085 sec
 * total energy  :   -83.8748674 Eh     change       -0.7742751E-04 Eh
   gradient norm :     0.0033711 Eh/α   predicted    -0.5273751E-04 ( -31.89%)
   displ. norm   :     0.1059905 α      lambda       -0.9120515E-04
   maximum displ.:     0.0583589 α      in ANC's #2, #3, #4, ...

........................................................................
.............................. CYCLE   23 ..............................
........................................................................
   1    -84.6410221 -0.846410E+02  0.633E-03    0.21       0.0  T
   2    -84.6410231 -0.968942E-06  0.405E-03    0.22       3.8  T
   3    -84.6410237 -0.624353E-06  0.220E-03    0.21       6.9  T
   4    -84.6410239 -0.207217E-06  0.139E-03    0.22      11.0  T
   5    -84.6410240 -0.701391E-07  0.264E-04    0.22      57.7  T
   6    -84.6410240 -0.606605E-09  0.447E-05    0.22     341.0  T
   7    -84.6410240 -0.474216E-10  0.134E-05    0.22    1141.3  T
     SCC iter.                  ...        0 min,  0.025 sec
     gradient                   ...        0 min,  0.082 sec
 * total energy  :   -83.8749280 Eh     change       -0.6057818E-04 Eh
   gradient norm :     0.0025697 Eh/α   predicted    -0.4611714E-04 ( -23.87%)
   displ. norm   :     0.1076302 α      lambda       -0.4997910E-04
   maximum displ.:     0.0629282 α      in ANC's #2, #3, #1, ...

........................................................................
.............................. CYCLE   24 ..............................
........................................................................
   1    -84.6406485 -0.846406E+02  0.321E-03    0.22       0.0  T
   2    -84.6406488 -0.321950E-06  0.176E-03    0.22       8.7  T
   3    -84.6406489 -0.128994E-06  0.102E-03    0.22      15.0  T
   4    -84.6406490 -0.531745E-07  0.416E-04    0.22      36.7  T
   5    -84.6406490 -0.155327E-08  0.195E-04    0.22      78.2  T
   6    -84.6406490 -0.104606E-08  0.280E-05    0.22     544.8  T
     SCC iter.                  ...        0 min,  0.021 sec
     gradient                   ...        0 min,  0.082 sec
 * total energy  :   -83.8749690 Eh     change       -0.4094887E-04 Eh
   gradient norm :     0.0037332 Eh/α   predicted    -0.2527974E-04 ( -38.27%)
   displ. norm   :     0.1753755 α      lambda       -0.7612342E-04
   maximum displ.:     0.1023491 α      in ANC's #2, #3, #1, ...

........................................................................
.............................. CYCLE   25 ..............................
........................................................................
   1    -84.6409430 -0.846409E+02  0.391E-03    0.22       0.0  T
   2    -84.6409427  0.307202E-06  0.391E-03    0.21       3.9  T
   3    -84.6409441 -0.134486E-05  0.927E-04    0.22      16.4  T
   4    -84.6409441 -0.413766E-07  0.382E-04    0.22      39.9  T
   5    -84.6409441 -0.229619E-09  0.130E-04    0.22     117.3  T
   6    -84.6409441 -0.128168E-09  0.271E-05    0.22     563.2  T
     SCC iter.                  ...        0 min,  0.021 sec
     gradient                   ...        0 min,  0.084 sec
 * total energy  :   -83.8750320 Eh     change       -0.6306429E-04 Eh
   gradient norm :     0.0041083 Eh/α   predicted    -0.3923284E-04 ( -37.79%)
   displ. norm   :     0.2485388 α      lambda       -0.9466583E-04
   maximum displ.:     0.1470390 α      in ANC's #2, #3, #1, ...

........................................................................
.............................. CYCLE   26 ..............................
........................................................................
   1    -84.6414712 -0.846415E+02  0.436E-03    0.22       0.0  T
   2    -84.6414707  0.509039E-06  0.469E-03    0.21       3.3  T
   3    -84.6414727 -0.199003E-05  0.941E-04    0.22      16.2  T
   4    -84.6414728 -0.273485E-07  0.456E-04    0.22      33.4  T
   5    -84.6414728 -0.121041E-08  0.127E-04    0.22     120.4  T
   6    -84.6414728 -0.613014E-09  0.252E-05    0.22     605.3  T
     SCC iter.                  ...        0 min,  0.020 sec
     gradient                   ...        0 min,  0.081 sec
 * total energy  :   -83.8751084 Eh     change       -0.7637393E-04 Eh
   gradient norm :     0.0036784 Eh/α   predicted    -0.5026034E-04 ( -34.19%)
   displ. norm   :     0.2817361 α      lambda       -0.9097968E-04
   maximum displ.:     0.1701581 α      in ANC's #2, #3, #1, ...

........................................................................
.............................. CYCLE   27 ..............................
........................................................................
   1    -84.6418249 -0.846418E+02  0.354E-03    0.22       0.0  T
   2    -84.6418252 -0.268541E-06  0.236E-03    0.22       6.5  T
   3    -84.6418255 -0.325827E-06  0.121E-03    0.22      12.6  T
   4    -84.6418256 -0.940384E-07  0.554E-04    0.22      27.5  T
   5    -84.6418256 -0.527918E-08  0.152E-04    0.22     100.4  T
   6    -84.6418256 -0.536332E-09  0.283E-05    0.22     538.4  T
     SCC iter.                  ...        0 min,  0.021 sec
     gradient                   ...        0 min,  0.082 sec
 * total energy  :   -83.8751823 Eh     change       -0.7392378E-04 Eh
   gradient norm :     0.0029353 Eh/α   predicted    -0.4910099E-04 ( -33.58%)
   displ. norm   :     0.2889384 α      lambda       -0.8727801E-04
   maximum displ.:     0.1793758 α      in ANC's #2, #1, #3, ...

........................................................................
.............................. CYCLE   28 ..............................
........................................................................
   1    -84.6423011 -0.846423E+02  0.393E-03    0.22       0.0  T
   2    -84.6423016 -0.468080E-06  0.195E-03    0.22       7.8  T
   3    -84.6423017 -0.103659E-06  0.126E-03    0.22      12.1  T
   4    -84.6423017 -0.610915E-07  0.593E-04    0.22      25.7  T
   5    -84.6423018 -0.131574E-07  0.220E-04    0.22      69.4  T
   6    -84.6423018 -0.191548E-08  0.334E-05    0.22     455.9  T
   7    -84.6423018 -0.220410E-10  0.101E-05    0.22    1517.0  T
     SCC iter.                  ...        0 min,  0.024 sec
     gradient                   ...        0 min,  0.083 sec
 * total energy  :   -83.8752568 Eh     change       -0.7447462E-04 Eh
   gradient norm :     0.0026817 Eh/α   predicted    -0.4728604E-04 ( -36.51%)
   displ. norm   :     0.3545530 α      lambda       -0.1036311E-03
   maximum displ.:     0.2239294 α      in ANC's #2, #1, #3, ...

........................................................................
.............................. CYCLE   29 ..............................
........................................................................
   1    -84.6423092 -0.846423E+02  0.636E-03    0.21       0.0  T
   2    -84.6423078  0.141190E-05  0.710E-03    0.22       2.1  T
   3    -84.6423123 -0.448486E-05  0.122E-03    0.21      12.5  T
   4    -84.6423123 -0.258601E-07  0.612E-04    0.21      24.9  T
   5    -84.6423123 -0.176931E-08  0.231E-04    0.21      66.1  T
   6    -84.6423123 -0.153429E-08  0.288E-05    0.21     529.8  T
   7    -84.6423123 -0.244853E-10  0.108E-05    0.21    1409.7  T
     SCC iter.                  ...        0 min,  0.025 sec
     gradient                   ...        0 min,  0.082 sec
 * total energy  :   -83.8753451 Eh     change       -0.8831172E-04 Eh
   gradient norm :     0.0037363 Eh/α   predicted    -0.5833022E-04 ( -33.95%)
   displ. norm   :     0.3959513 α      lambda       -0.1157551E-03
   maximum displ.:     0.2568077 α      in ANC's #2, #1, #3, ...

........................................................................
.............................. CYCLE   30 ..............................
........................................................................
   1    -84.6422786 -0.846423E+02  0.802E-03    0.20       0.0  T
   2    -84.6422741  0.457027E-05  0.106E-02    0.22       1.4  T
   3    -84.6422847 -0.105928E-04  0.124E-03    0.21      12.3  T
   4    -84.6422847 -0.139344E-07  0.633E-04    0.21      24.1  T
   5    -84.6422847 -0.149682E-08  0.240E-04    0.21      63.5  T
   6    -84.6422847 -0.102389E-08  0.372E-05    0.21     409.9  T
   7    -84.6422847 -0.606946E-10  0.136E-05    0.21    1121.0  T
     SCC iter.                  ...        0 min,  0.024 sec
     gradient                   ...        0 min,  0.082 sec
 * total energy  :   -83.8754386 Eh     change       -0.9350908E-04 Eh
   gradient norm :     0.0049106 Eh/α   predicted    -0.6695472E-04 ( -28.40%)
   displ. norm   :     0.3425636 α      lambda       -0.9902758E-04
   maximum displ.:     0.2307952 α      in ANC's #2, #1, #3, ...

........................................................................
.............................. CYCLE   31 ..............................
........................................................................
   1    -84.6427432 -0.846427E+02  0.594E-03    0.20       0.0  T
   2    -84.6427404  0.283983E-05  0.801E-03    0.22       1.9  T
   3    -84.6427465 -0.614536E-05  0.108E-03    0.21      14.1  T
   4    -84.6427465 -0.897906E-08  0.586E-04    0.21      26.0  T
   5    -84.6427465 -0.166303E-08  0.183E-04    0.21      83.4  T
   6    -84.6427465 -0.858563E-09  0.279E-05    0.21     547.2  T
     SCC iter.                  ...        0 min,  0.021 sec
     gradient                   ...        0 min,  0.083 sec
 * total energy  :   -83.8755194 Eh     change       -0.8076695E-04 Eh
   gradient norm :     0.0048060 Eh/α   predicted    -0.5532580E-04 ( -31.50%)
   displ. norm   :     0.3732030 α      lambda       -0.9757317E-04
   maximum displ.:     0.2536706 α      in ANC's #2, #1, #3, ...

........................................................................
.............................. CYCLE   32 ..............................
........................................................................
   1    -84.6416967 -0.846417E+02  0.561E-03    0.20       0.0  T
   2    -84.6416945  0.213289E-05  0.756E-03    0.22       2.0  T
   3    -84.6416999 -0.537902E-05  0.128E-03    0.21      11.9  T
   4    -84.6416999 -0.598880E-08  0.854E-04    0.21      17.9  T
   5    -84.6416999 -0.174888E-07  0.179E-04    0.21      85.1  T
   6    -84.6416999 -0.389406E-09  0.460E-05    0.21     331.8  T
     SCC iter.                  ...        0 min,  0.021 sec
     gradient                   ...        0 min,  0.083 sec
 * total energy  :   -83.8755969 Eh     change       -0.7747717E-04 Eh
   gradient norm :     0.0041672 Eh/α   predicted    -0.5558194E-04 ( -28.26%)
   displ. norm   :     0.3549937 α      lambda       -0.1210573E-03
   maximum displ.:     0.2559274 α      in ANC's #2, #1, #6, ...

........................................................................
.............................. CYCLE   33 ..............................
........................................................................
   1    -84.6447175 -0.846447E+02  0.104E-02    0.22       0.0  T
   2    -84.6447111  0.638186E-05  0.123E-02    0.20       1.2  T
   3    -84.6447237 -0.125792E-04  0.299E-03    0.21       5.1  T
   4    -84.6447239 -0.268932E-06  0.167E-03    0.21       9.1  T
   5    -84.6447240 -0.757192E-07  0.263E-04    0.21      57.9  T
   6    -84.6447240 -0.238478E-08  0.535E-05    0.21     285.1  T
   7    -84.6447240 -0.652136E-10  0.183E-05    0.21     833.2  T
     SCC iter.                  ...        0 min,  0.024 sec
     gradient                   ...        0 min,  0.089 sec
 * total energy  :   -83.8756625 Eh     change       -0.6566275E-04 Eh
   gradient norm :     0.0037756 Eh/α   predicted    -0.6816154E-04 (   3.81%)
   displ. norm   :     0.4603828 α      lambda       -0.1090513E-03
   maximum displ.:     0.3177989 α      in ANC's #2, #1, #6, ...

........................................................................
.............................. CYCLE   34 ..............................
........................................................................
   1    -84.6406341 -0.846406E+02  0.907E-03    0.21       0.0  T
   2    -84.6406352 -0.108085E-05  0.587E-03    0.22       2.6  T
   3    -84.6406357 -0.543629E-06  0.403E-03    0.21       3.8  T
   4    -84.6406366 -0.874611E-06  0.228E-03    0.21       6.7  T
   5    -84.6406368 -0.201812E-06  0.263E-04    0.21      58.0  T
   6    -84.6406368 -0.105383E-08  0.678E-05    0.21     225.0  T
   7    -84.6406368 -0.109353E-09  0.197E-05    0.21     774.0  T
     SCC iter.                  ...        0 min,  0.024 sec
     gradient                   ...        0 min,  0.082 sec
 * total energy  :   -83.8757203 Eh     change       -0.5778148E-04 Eh
   gradient norm :     0.0050060 Eh/α   predicted    -0.6608254E-04 (  14.37%)
   displ. norm   :     0.0836581 α      lambda       -0.4774571E-04
   maximum displ.:     0.0602931 α      in ANC's #2, #1, #7, ...

........................................................................
.............................. CYCLE   35 ..............................
........................................................................
   1    -84.6418958 -0.846419E+02  0.478E-03    0.22       0.0  T
   2    -84.6418941  0.177020E-05  0.616E-03    0.21       2.5  T
   3    -84.6418977 -0.359782E-05  0.967E-04    0.21      15.8  T
   4    -84.6418977 -0.221924E-07  0.461E-04    0.21      33.1  T
   5    -84.6418977 -0.163470E-08  0.984E-05    0.21     155.0  T
   6    -84.6418977 -0.175262E-09  0.261E-05    0.21     584.2  T
     SCC iter.                  ...        0 min,  0.021 sec
     gradient                   ...        0 min,  0.082 sec
 * total energy  :   -83.8757612 Eh     change       -0.4084644E-04 Eh
   gradient norm :     0.0038175 Eh/α   predicted    -0.2404345E-04 ( -41.14%)
   displ. norm   :     0.3805220 α      lambda       -0.1360189E-03
   maximum displ.:     0.2752763 α      in ANC's #2, #1, #9, ...

........................................................................
.............................. CYCLE   36 ..............................
........................................................................
   1    -84.6443036 -0.846443E+02  0.148E-02    0.24       0.0  T
   2    -84.6442949  0.871656E-05  0.180E-02    0.20       1.0  T
   3    -84.6443241 -0.291769E-04  0.236E-03    0.22       6.5  T
   4    -84.6443243 -0.265758E-06  0.149E-03    0.22      10.2  T
   5    -84.6443243 -0.429679E-09  0.735E-04    0.22      20.8  T
   6    -84.6443244 -0.368252E-07  0.776E-05    0.22     196.5  T
   7    -84.6443244 -0.249685E-09  0.340E-05    0.22     447.9  T
     SCC iter.                  ...        0 min,  0.024 sec
     gradient                   ...        0 min,  0.082 sec
 * total energy  :   -83.8758505 Eh     change       -0.8934707E-04 Eh
   gradient norm :     0.0036335 Eh/α   predicted    -0.7786254E-04 ( -12.85%)
   displ. norm   :     0.4061565 α      lambda       -0.7421242E-04
   maximum displ.:     0.2956052 α      in ANC's #2, #1, #6, ...

........................................................................
.............................. CYCLE   37 ..............................
........................................................................
   1    -84.6431588 -0.846432E+02  0.571E-03    0.22       0.0  T
   2    -84.6431595 -0.726050E-06  0.233E-03    0.22       6.6  T
   3    -84.6431595 -0.503971E-07  0.147E-03    0.22      10.4  T
   4    -84.6431596 -0.124167E-07  0.101E-03    0.22      15.2  T
   5    -84.6431596 -0.514003E-07  0.211E-04    0.22      72.4  T
   6    -84.6431596 -0.244279E-08  0.354E-05    0.22     430.3  T
   7    -84.6431596 -0.334950E-10  0.105E-05    0.22    1448.9  T
     SCC iter.                  ...        0 min,  0.025 sec
     gradient                   ...        0 min,  0.082 sec
 * total energy  :   -83.8758990 Eh     change       -0.4853911E-04 Eh
   gradient norm :     0.0045231 Eh/α   predicted    -0.4323417E-04 ( -10.93%)
   displ. norm   :     0.3255832 α      lambda       -0.6405190E-04
   maximum displ.:     0.2371099 α      in ANC's #2, #1, #6, ...

........................................................................
.............................. CYCLE   38 ..............................
........................................................................
   1    -84.6429582 -0.846430E+02  0.523E-03    0.22       0.0  T
   2    -84.6429580  0.204402E-06  0.501E-03    0.22       3.0  T
   3    -84.6429599 -0.191700E-05  0.114E-03    0.22      13.4  T
   4    -84.6429599 -0.214248E-07  0.666E-04    0.22      22.9  T
   5    -84.6429599 -0.944719E-08  0.161E-04    0.22      94.4  T
   6    -84.6429599 -0.978616E-09  0.222E-05    0.22     687.5  T
     SCC iter.                  ...        0 min,  0.021 sec
     gradient                   ...        0 min,  0.082 sec
 * total energy  :   -83.8759476 Eh     change       -0.4851027E-04 Eh
   gradient norm :     0.0035537 Eh/α   predicted    -0.3542237E-04 ( -26.98%)
   displ. norm   :     0.2971171 α      lambda       -0.7810363E-04
   maximum displ.:     0.2156042 α      in ANC's #2, #1, #6, ...

........................................................................
.............................. CYCLE   39 ..............................
........................................................................
   1    -84.6446853 -0.846447E+02  0.111E-02    0.21       0.0  T
   2    -84.6446808  0.455949E-05  0.131E-02    0.23       1.2  T
   3    -84.6446953 -0.145528E-04  0.217E-03    0.22       7.0  T
   4    -84.6446954 -0.181482E-07  0.100E-03    0.22      15.2  T
   5    -84.6446954 -0.587818E-09  0.228E-04    0.22      66.8  T
   6    -84.6446954 -0.335289E-08  0.581E-05    0.22     262.4  T
   7    -84.6446954 -0.226649E-09  0.156E-05    0.22     977.6  T
     SCC iter.                  ...        0 min,  0.024 sec
     gradient                   ...        0 min,  0.083 sec
 * total energy  :   -83.8759917 Eh     change       -0.4414820E-04 Eh
   gradient norm :     0.0032971 Eh/α   predicted    -0.4250460E-04 (  -3.72%)
   displ. norm   :     0.3774382 α      lambda       -0.4805906E-04
   maximum displ.:     0.2733472 α      in ANC's #2, #1, #6, ...

........................................................................
.............................. CYCLE   40 ..............................
........................................................................
   1    -84.6411546 -0.846412E+02  0.120E-02    0.20       0.0  T
   2    -84.6411450  0.965435E-05  0.168E-02    0.23       1.0  T
   3    -84.6411695 -0.244636E-04  0.328E-03    0.21       4.7  T
   4    -84.6411698 -0.362076E-06  0.113E-03    0.21      13.5  T
   5    -84.6411699 -0.504066E-07  0.266E-04    0.21      57.3  T
   6    -84.6411699 -0.213944E-08  0.505E-05    0.21     302.3  T
   7    -84.6411699 -0.730012E-10  0.168E-05    0.21     908.0  T
     SCC iter.                  ...        0 min,  0.024 sec
     gradient                   ...        0 min,  0.083 sec
 * total energy  :   -83.8760065 Eh     change       -0.1478575E-04 Eh
   gradient norm :     0.0042759 Eh/α   predicted    -0.2745667E-04 (  85.70%)
   displ. norm   :     0.0687266 α      lambda       -0.3033203E-04
   maximum displ.:     0.0416217 α      in ANC's #2, #1, #9, ...

........................................................................
.............................. CYCLE   41 ..............................
........................................................................
   1    -84.6433693 -0.846434E+02  0.436E-03    0.22       0.0  T
   2    -84.6433689  0.370715E-06  0.385E-03    0.21       4.0  T
   3    -84.6433698 -0.928426E-06  0.169E-03    0.21       9.0  T
   4    -84.6433700 -0.117055E-06  0.714E-04    0.21      21.4  T
   5    -84.6433700 -0.103031E-07  0.979E-05    0.21     155.7  T
   6    -84.6433700 -0.324249E-09  0.172E-05    0.21     884.9  T
     SCC iter.                  ...        0 min,  0.021 sec
     gradient                   ...        0 min,  0.082 sec
 * total energy  :   -83.8760257 Eh     change       -0.1924827E-04 Eh
   gradient norm :     0.0023230 Eh/α   predicted    -0.1523910E-04 ( -20.83%)
   displ. norm   :     0.1517340 α      lambda       -0.2954464E-04
   maximum displ.:     0.1125616 α      in ANC's #2, #1, #4, ...

........................................................................
.............................. CYCLE   42 ..............................
........................................................................
   1    -84.6442446 -0.846442E+02  0.678E-03    0.22       0.0  T
   2    -84.6442419  0.272086E-05  0.879E-03    0.21       1.7  T
   3    -84.6442484 -0.654365E-05  0.137E-03    0.22      11.2  T
   4    -84.6442484  0.141683E-07  0.101E-03    0.22      15.1  T
   5    -84.6442484 -0.329732E-07  0.176E-04    0.22      86.7  T
   6    -84.6442484 -0.690576E-09  0.421E-05    0.22     362.0  T
     SCC iter.                  ...        0 min,  0.021 sec
     gradient                   ...        0 min,  0.082 sec
 * total energy  :   -83.8760420 Eh     change       -0.1629142E-04 Eh
   gradient norm :     0.0023636 Eh/α   predicted    -0.1511301E-04 (  -7.23%)
   displ. norm   :     0.1991032 α      lambda       -0.2603007E-04
   maximum displ.:     0.1468303 α      in ANC's #2, #1, #4, ...
 * RMSD in coord.:     0.8256823 α      energy gain  -0.1377657E-02 Eh

generating ANC from model Hessian ...
Using Lindh-Hessian (1995)
 Shifting diagonal of input Hessian by   9.757439390147397E-003
 Lowest  eigenvalues of input Hessian
    0.000000    0.000000    0.000000    0.000000    0.000000    0.000000
    0.010000    0.010028    0.010246    0.011088    0.011695    0.012170
    0.012817    0.013327    0.013981    0.014935    0.016060    0.016467
 Highest eigenvalues
    2.028368    2.135602    2.180184    2.284891    2.326817    2.400307
 

........................................................................
.............................. CYCLE   43 ..............................
........................................................................
   1    -84.6446633 -0.846447E+02  0.280E-03    0.21       0.0  T
   2    -84.6446636 -0.273039E-06  0.144E-03    0.22      10.6  T
   3    -84.6446637 -0.427381E-07  0.835E-04    0.22      18.3  T
   4    -84.6446637 -0.108720E-07  0.666E-04    0.22      22.9  T
   5    -84.6446637 -0.226732E-07  0.114E-04    0.22     134.1  T
   6    -84.6446637 -0.230116E-09  0.266E-05    0.22     573.9  T
     SCC iter.                  ...        0 min,  0.021 sec
     gradient                   ...        0 min,  0.082 sec
 * total energy  :   -83.8760611 Eh     change       -0.1910515E-04 Eh
   gradient norm :     0.0020623 Eh/α   predicted     0.0000000E+00 (-100.00%)
   displ. norm   :     0.0176854 α      lambda       -0.1077207E-04
   maximum displ.:     0.0072841 α      in ANC's #7, #2, #1, ...

........................................................................
.............................. CYCLE   44 ..............................
........................................................................
   1    -84.6442867 -0.846443E+02  0.154E-03    0.22       0.0  T
   2    -84.6442867 -0.447402E-07  0.842E-04    0.22      18.1  T
   3    -84.6442867 -0.257549E-08  0.547E-04    0.22      27.9  T
   4    -84.6442867 -0.888822E-08  0.396E-04    0.22      38.5  T
   5    -84.6442867 -0.807395E-08  0.554E-05    0.22     275.2  T
   6    -84.6442867 -0.533049E-10  0.967E-06    0.22    1576.4  T
     SCC iter.                  ...        0 min,  0.021 sec
     gradient                   ...        0 min,  0.085 sec
 * total energy  :   -83.8760696 Eh     change       -0.8437081E-05 Eh
   gradient norm :     0.0009264 Eh/α   predicted    -0.5440533E-05 ( -35.52%)
   displ. norm   :     0.0661033 α      lambda       -0.1240406E-04
   maximum displ.:     0.0280263 α      in ANC's #7, #2, #1, ...

........................................................................
.............................. CYCLE   45 ..............................
........................................................................
   1    -84.6437046 -0.846437E+02  0.309E-03    0.22       0.0  T
   2    -84.6437048 -0.236672E-06  0.185E-03    0.22       8.2  T
   3    -84.6437049 -0.672879E-07  0.108E-03    0.22      14.1  T
   4    -84.6437049 -0.460297E-07  0.758E-04    0.22      20.1  T
   5    -84.6437050 -0.246702E-07  0.153E-04    0.22      99.7  T
   6    -84.6437050 -0.284345E-09  0.229E-05    0.22     666.6  T
     SCC iter.                  ...        0 min,  0.020 sec
     gradient                   ...        0 min,  0.070 sec
 * total energy  :   -83.8760801 Eh     change       -0.1050761E-04 Eh
   gradient norm :     0.0017165 Eh/α   predicted    -0.6806405E-05 ( -35.22%)
   displ. norm   :     0.0395355 α      lambda       -0.5698000E-05
   maximum displ.:     0.0175095 α      in ANC's #2, #7, #1, ...

........................................................................
.............................. CYCLE   46 ..............................
........................................................................
   1    -84.6438912 -0.846439E+02  0.956E-04    0.22       0.0  T
   2    -84.6438913 -0.340628E-07  0.527E-04    0.22      28.9  T
   3    -84.6438913 -0.650606E-08  0.275E-04    0.22      55.4  T
   4    -84.6438913  0.199573E-08  0.228E-04    0.22      66.9  T
   5    -84.6438913 -0.384547E-08  0.439E-05    0.22     347.1  T
   6    -84.6438913 -0.223679E-10  0.961E-06    0.22    1587.6  T
     SCC iter.                  ...        0 min,  0.025 sec
     gradient                   ...        0 min,  0.087 sec
 * total energy  :   -83.8760877 Eh     change       -0.7635882E-05 Eh
   gradient norm :     0.0013672 Eh/α   predicted    -0.2918247E-05 ( -61.78%)
   displ. norm   :     0.1434167 α      lambda       -0.1770140E-04
   maximum displ.:     0.0659653 α      in ANC's #2, #7, #1, ...

........................................................................
.............................. CYCLE   47 ..............................
........................................................................
   1    -84.6440916 -0.846441E+02  0.306E-03    0.21       0.0  T
   2    -84.6440919 -0.300797E-06  0.195E-03    0.22       7.8  T
   3    -84.6440921 -0.209510E-06  0.974E-04    0.22      15.7  T
   4    -84.6440921 -0.491575E-07  0.475E-04    0.22      32.1  T
   5    -84.6440922 -0.709522E-08  0.133E-04    0.22     114.3  T
   6    -84.6440922 -0.736264E-10  0.329E-05    0.22     463.1  T
     SCC iter.                  ...        0 min,  0.023 sec
     gradient                   ...        0 min,  0.087 sec
 * total energy  :   -83.8761054 Eh     change       -0.1767084E-04 Eh
   gradient norm :     0.0008763 Eh/α   predicted    -0.8940993E-05 ( -49.40%)
   displ. norm   :     0.1249174 α      lambda       -0.9471993E-05
   maximum displ.:     0.0606249 α      in ANC's #2, #1, #7, ...

........................................................................
.............................. CYCLE   48 ..............................
........................................................................
   1    -84.6440077 -0.846440E+02  0.271E-03    0.21       0.0  T
   2    -84.6440078 -0.305374E-07  0.236E-03    0.22       6.5  T
   3    -84.6440082 -0.467598E-06  0.715E-04    0.22      21.3  T
   4    -84.6440082 -0.309545E-07  0.248E-04    0.22      61.5  T
   5    -84.6440083 -0.694612E-09  0.839E-05    0.22     181.7  T
   6    -84.6440083 -0.613767E-10  0.253E-05    0.22     603.2  T
     SCC iter.                  ...        0 min,  0.023 sec
     gradient                   ...        0 min,  0.087 sec
 * total energy  :   -83.8761149 Eh     change       -0.9540784E-05 Eh
   gradient norm :     0.0009605 Eh/α   predicted    -0.4773236E-05 ( -49.97%)
   displ. norm   :     0.1289656 α      lambda       -0.9432077E-05
   maximum displ.:     0.0669049 α      in ANC's #2, #1, #7, ...

........................................................................
.............................. CYCLE   49 ..............................
........................................................................
   1    -84.6439832 -0.846440E+02  0.200E-03    0.21       0.0  T
   2    -84.6439832 -0.232599E-07  0.167E-03    0.22       9.1  T
   3    -84.6439835 -0.220813E-06  0.631E-04    0.21      24.2  T
   4    -84.6439835 -0.220627E-07  0.267E-04    0.22      57.2  T
   5    -84.6439835 -0.816783E-09  0.861E-05    0.21     177.2  T
   6    -84.6439835 -0.636362E-10  0.227E-05    0.22     672.6  T
     SCC iter.                  ...        0 min,  0.023 sec
     gradient                   ...        0 min,  0.087 sec
 * total energy  :   -83.8761256 Eh     change       -0.1068932E-04 Eh
   gradient norm :     0.0008265 Eh/α   predicted    -0.4752872E-05 ( -55.54%)
   displ. norm   :     0.1507313 α      lambda       -0.1185343E-04
   maximum displ.:     0.0812926 α      in ANC's #2, #1, #9, ...

........................................................................
.............................. CYCLE   50 ..............................
........................................................................
   1    -84.6440141 -0.846440E+02  0.202E-03    0.21       0.0  T
   2    -84.6440141 -0.489504E-07  0.145E-03    0.22      10.5  T
   3    -84.6440142 -0.125485E-06  0.777E-04    0.21      19.6  T
   4    -84.6440143 -0.318665E-07  0.328E-04    0.21      46.5  T
   5    -84.6440143 -0.167337E-08  0.915E-05    0.21     166.7  T
   6    -84.6440143 -0.949711E-10  0.221E-05    0.21     689.1  T
     SCC iter.                  ...        0 min,  0.023 sec
     gradient                   ...        0 min,  0.086 sec
 * total energy  :   -83.8761395 Eh     change       -0.1386387E-04 Eh
   gradient norm :     0.0010363 Eh/α   predicted    -0.5990345E-05 ( -56.79%)
   displ. norm   :     0.1950242 α      lambda       -0.1490134E-04
   maximum displ.:     0.1064847 α      in ANC's #2, #1, #7, ...

........................................................................
.............................. CYCLE   51 ..............................
........................................................................
   1    -84.6437776 -0.846438E+02  0.226E-03    0.22       0.0  T
   2    -84.6437778 -0.190610E-06  0.112E-03    0.21      13.7  T
   3    -84.6437778 -0.142454E-07  0.627E-04    0.22      24.3  T
   4    -84.6437778  0.837741E-08  0.494E-04    0.21      30.9  T
   5    -84.6437778 -0.150269E-07  0.163E-04    0.22      93.6  T
   6    -84.6437778 -0.125014E-08  0.237E-05    0.21     642.3  T
     SCC iter.                  ...        0 min,  0.023 sec
     gradient                   ...        0 min,  0.087 sec
 * total energy  :   -83.8761576 Eh     change       -0.1810571E-04 Eh
   gradient norm :     0.0013077 Eh/α   predicted    -0.7580373E-05 ( -58.13%)
   displ. norm   :     0.2810692 α      lambda       -0.2107923E-04
   maximum displ.:     0.1543199 α      in ANC's #2, #1, #7, ...

........................................................................
.............................. CYCLE   52 ..............................
........................................................................
   1    -84.6433333 -0.846433E+02  0.399E-03    0.22       0.0  T
   2    -84.6433337 -0.411389E-06  0.282E-03    0.21       5.4  T
   3    -84.6433341 -0.374915E-06  0.145E-03    0.22      10.5  T
   4    -84.6433342 -0.101724E-06  0.763E-04    0.22      20.0  T
   5    -84.6433342 -0.166360E-07  0.218E-04    0.22      69.9  T
   6    -84.6433342 -0.316618E-09  0.357E-05    0.22     427.0  T
   7    -84.6433342 -0.244285E-10  0.109E-05    0.22    1401.4  T
     SCC iter.                  ...        0 min,  0.026 sec
     gradient                   ...        0 min,  0.086 sec
 * total energy  :   -83.8761829 Eh     change       -0.2529154E-04 Eh
   gradient norm :     0.0017503 Eh/α   predicted    -0.1091326E-04 ( -56.85%)
   displ. norm   :     0.3498278 α      lambda       -0.2939742E-04
   maximum displ.:     0.1912217 α      in ANC's #2, #1, #4, ...

........................................................................
.............................. CYCLE   53 ..............................
........................................................................
   1    -84.6432167 -0.846432E+02  0.563E-03    0.22       0.0  T
   2    -84.6432174 -0.740910E-06  0.427E-03    0.21       3.6  T
   3    -84.6432185 -0.114664E-05  0.185E-03    0.22       8.2  T
   4    -84.6432187 -0.165709E-06  0.887E-04    0.22      17.2  T
   5    -84.6432187 -0.156502E-07  0.296E-04    0.22      51.5  T
   6    -84.6432187 -0.369496E-09  0.512E-05    0.22     297.7  T
   7    -84.6432187 -0.770086E-10  0.147E-05    0.22    1037.7  T
     SCC iter.                  ...        0 min,  0.026 sec
     gradient                   ...        0 min,  0.086 sec
 * total energy  :   -83.8762168 Eh     change       -0.3392736E-04 Eh
   gradient norm :     0.0019182 Eh/α   predicted    -0.1550085E-04 ( -54.31%)
   displ. norm   :     0.4183845 α      lambda       -0.3244883E-04
   maximum displ.:     0.2297389 α      in ANC's #2, #1, #4, ...

........................................................................
.............................. CYCLE   54 ..............................
........................................................................
   1    -84.6419383 -0.846419E+02  0.880E-03    0.23       0.0  T
   2    -84.6419401 -0.183836E-05  0.665E-03    0.22       2.3  T
   3    -84.6419429 -0.275768E-05  0.254E-03    0.23       6.0  T
   4    -84.6419431 -0.259877E-06  0.132E-03    0.22      11.5  T
   5    -84.6419432 -0.395564E-07  0.387E-04    0.22      39.4  T
   6    -84.6419432 -0.651454E-09  0.680E-05    0.22     224.3  T
   7    -84.6419432 -0.167191E-09  0.168E-05    0.22     907.7  T
     SCC iter.                  ...        0 min,  0.027 sec
     gradient                   ...        0 min,  0.086 sec
 * total energy  :   -83.8762449 Eh     change       -0.2812297E-04 Eh
   gradient norm :     0.0030945 Eh/α   predicted    -0.1748857E-04 ( -37.81%)
   displ. norm   :     0.1858033 α      lambda       -0.5256158E-04
   maximum displ.:     0.0890360 α      in ANC's #4, #2, #1, ...

........................................................................
.............................. CYCLE   55 ..............................
........................................................................
   1    -84.6442936 -0.846443E+02  0.556E-03    0.23       0.0  T
   2    -84.6442941 -0.477278E-06  0.292E-03    0.22       5.2  T
   3    -84.6442941  0.389820E-07  0.205E-03    0.23       7.4  T
   4    -84.6442942 -0.149432E-06  0.885E-04    0.22      17.2  T
   5    -84.6442943 -0.383758E-07  0.210E-04    0.23      72.6  T
   6    -84.6442943 -0.125173E-08  0.314E-05    0.23     486.4  T
   7    -84.6442943 -0.398614E-10  0.767E-06    0.23    1988.5  T
     SCC iter.                  ...        0 min,  0.026 sec
     gradient                   ...        0 min,  0.087 sec
 * total energy  :   -83.8762637 Eh     change       -0.1882535E-04 Eh
   gradient norm :     0.0027708 Eh/α   predicted    -0.2721701E-04 (  44.58%)
   displ. norm   :     0.0387567 α      lambda       -0.1830841E-04
   maximum displ.:     0.0155124 α      in ANC's #1, #17, #7, ...

........................................................................
.............................. CYCLE   56 ..............................
........................................................................
   1    -84.6439799 -0.846440E+02  0.216E-03    0.22       0.0  T
   2    -84.6439799 -0.289149E-07  0.169E-03    0.23       9.0  T
   3    -84.6439800 -0.157411E-06  0.681E-04    0.22      22.4  T
   4    -84.6439801 -0.897448E-08  0.289E-04    0.23      52.7  T
   5    -84.6439801 -0.253821E-08  0.607E-05    0.22     251.1  T
   6    -84.6439801 -0.566445E-10  0.926E-06    0.23    1646.5  T
     SCC iter.                  ...        0 min,  0.023 sec
     gradient                   ...        0 min,  0.088 sec
 * total energy  :   -83.8762775 Eh     change       -0.1373475E-04 Eh
   gradient norm :     0.0015754 Eh/α   predicted    -0.9169628E-05 ( -33.24%)
   displ. norm   :     0.1258984 α      lambda       -0.1777021E-04
   maximum displ.:     0.0640875 α      in ANC's #1, #2, #5, ...

........................................................................
.............................. CYCLE   57 ..............................
........................................................................
   1    -84.6432381 -0.846432E+02  0.477E-03    0.22       0.0  T
   2    -84.6432384 -0.391524E-06  0.394E-03    0.23       3.9  T
   3    -84.6432396 -0.111227E-05  0.118E-03    0.22      13.0  T
   4    -84.6432396 -0.328469E-07  0.610E-04    0.22      25.0  T
   5    -84.6432396 -0.776976E-08  0.170E-04    0.22      89.9  T
   6    -84.6432396 -0.224645E-09  0.368E-05    0.22     414.5  T
     SCC iter.                  ...        0 min,  0.023 sec
     gradient                   ...        0 min,  0.088 sec
 * total energy  :   -83.8762906 Eh     change       -0.1313866E-04 Eh
   gradient norm :     0.0013506 Eh/α   predicted    -0.8953152E-05 ( -31.86%)
   displ. norm   :     0.0450820 α      lambda       -0.5680618E-05
   maximum displ.:     0.0224668 α      in ANC's #1, #4, #2, ...

........................................................................
.............................. CYCLE   58 ..............................
........................................................................
   1    -84.6435190 -0.846435E+02  0.179E-03    0.22       0.0  T
   2    -84.6435190 -0.104931E-07  0.158E-03    0.23       9.6  T
   3    -84.6435192 -0.196377E-06  0.512E-04    0.22      29.8  T
   4    -84.6435192 -0.457412E-08  0.237E-04    0.22      64.4  T
   5    -84.6435192 -0.664784E-09  0.574E-05    0.22     265.7  T
   6    -84.6435192 -0.371898E-10  0.141E-05    0.22    1082.4  T
     SCC iter.                  ...        0 min,  0.023 sec
     gradient                   ...        0 min,  0.086 sec
 * total energy  :   -83.8762974 Eh     change       -0.6766211E-05 Eh
   gradient norm :     0.0007874 Eh/α   predicted    -0.2845314E-05 ( -57.95%)
   displ. norm   :     0.1166856 α      lambda       -0.9586161E-05
   maximum displ.:     0.0633236 α      in ANC's #1, #4, #8, ...

........................................................................
.............................. CYCLE   59 ..............................
........................................................................
   1    -84.6434279 -0.846434E+02  0.364E-03    0.22       0.0  T
   2    -84.6434281 -0.179183E-06  0.293E-03    0.23       5.2  T
   3    -84.6434288 -0.768706E-06  0.969E-04    0.22      15.7  T
   4    -84.6434289 -0.377145E-07  0.394E-04    0.22      38.7  T
   5    -84.6434289 -0.108231E-08  0.139E-04    0.22     109.8  T
   6    -84.6434289 -0.129489E-09  0.382E-05    0.22     398.8  T
     SCC iter.                  ...        0 min,  0.023 sec
     gradient                   ...        0 min,  0.071 sec
 * total energy  :   -83.8763075 Eh     change       -0.1012986E-04 Eh
   gradient norm :     0.0011685 Eh/α   predicted    -0.4823618E-05 ( -52.38%)
   displ. norm   :     0.1206071 α      lambda       -0.6798654E-05
   maximum displ.:     0.0668136 α      in ANC's #1, #4, #8, ...

........................................................................
.............................. CYCLE   60 ..............................
........................................................................
   1    -84.6436224 -0.846436E+02  0.402E-03    0.22       0.0  T
   2    -84.6436223  0.416199E-07  0.400E-03    0.23       3.8  T
   3    -84.6436237 -0.136220E-05  0.660E-04    0.22      23.1  T
   4    -84.6436237 -0.102288E-07  0.371E-04    0.22      41.1  T
   5    -84.6436237 -0.219380E-08  0.133E-04    0.22     115.0  T
   6    -84.6436237 -0.267875E-10  0.366E-05    0.22     416.9  T
     SCC iter.                  ...        0 min,  0.016 sec
     gradient                   ...        0 min,  0.047 sec
 * total energy  :   -83.8763150 Eh     change       -0.7480621E-05 Eh
   gradient norm :     0.0014085 Eh/α   predicted    -0.3423493E-05 ( -54.24%)
   displ. norm   :     0.1300070 α      lambda       -0.6035237E-05
   maximum displ.:     0.0719993 α      in ANC's #1, #4, #8, ...

[...]
H31-C6-H29=108.87              H31-C6-H30=109.21              C8-N7-C5=119.22                C9-C8-N7=117.37                
N21-C8-N7=125.70               N21-C8-C9=116.86               C10-C9-C8=107.81               C11-C9-C8=110.67               
C11-C9-C10=110.44              N12-C9-C8=110.50               N12-C9-C10=107.11              N12-C9-C11=110.22              
H32-C10-C9=110.24              H33-C10-C9=109.52              H33-C10-H32=108.91             H34-C10-C9=110.36              
H34-C10-H32=108.91             H34-C10-H33=108.88             
 
 selected dihedral angles (degree)
 ---------------------------------
C3-O2-C1-H26=300.16           C3-O2-C1-H27= 60.66           C3-O2-C1-H28=180.56           O4-C3-O2-C1=  0.00            
C5-C3-O2-C1=185.32            C6-C5-C3-O2=201.98            C6-C5-C3-O4= 27.48            N7-C5-C3-O2=320.85            
N7-C5-C3-O4=146.34            C24-C5-C3-O2= 81.65           C24-C5-C3-O4=267.15           H29-C6-C5-C3=183.51           
H29-C6-C5-N7= 63.42           H29-C6-C5-C24=298.76          H30-C6-C5-C3=303.60           H30-C6-C5-N7=183.51           
H30-C6-C5-C24= 58.85          H31-C6-C5-C3= 63.96           H31-C6-C5-N7=303.88           H31-C6-C5-C24=179.21          
C8-N7-C5-C3= 98.01            C8-N7-C5-C6=217.08            C8-N7-C5-C24=341.92           C9-C8-N7-C5=176.77            
N21-C8-N7-C5=359.90           C10-C9-C8-N7=268.50           C10-C9-C8-N21= 85.65          C11-C9-C8-N7= 29.38           
C11-C9-C8-N21=206.53          N12-C9-C8-N7=151.75           N12-C9-C8-N21=328.90          H32-C10-C9-C8=299.84          
H32-C10-C9-C11=178.81         H32-C10-C9-N12= 58.77         H33-C10-C9-C8= 59.65          H33-C10-C9-C11=298.62         
H33-C10-C9-N12=178.58         H34-C10-C9-C8=179.49          H34-C10-C9-C11= 58.46         H34-C10-C9-N12=298.43         
           -------------------------------------------------
          |                Final Singlepoint                |
           -------------------------------------------------

          ...................................................
          :                      SETUP                      :
          :.................................................:
          :  # basis functions                 136          :
          :  # atomic orbitals                 136          :
          :  # shells                           86          :
          :  # electrons                       136          :
          :  # halogen bonds                     0          :
          :  max. iterations                   250          :
          :  Hamiltonian                  GFN1-xTB          :
          :  restarted?                      false          :
          :  GBSA solvation                   true          :
          :  PC potential                    false          :
          :  electronic temp.          300.0000000     K    :
          :  accuracy                    1.0000000          :
          :  -> integral cutoff          0.2500000E+02      :
          :  -> integral neglect         0.1000000E-07      :
          :  -> SCF convergence          0.1000000E-05 Eh   :
          :  -> wf. convergence          0.2000000E-04 e    :
          :  Broyden damping             0.4000000          :
          ...................................................

 iter      E             dE          RMSdq      gap      omega  full diag
   1    -84.6426852 -0.846427E+02  0.173E-05    0.24       0.0  T
   2    -84.6426852 -0.311218E-11  0.106E-05    0.24    1434.9  T
   3    -84.6426852 -0.217426E-11  0.673E-06    0.24    2265.7  T

   *** convergence criteria satisfied after 3 iterations ***

         #    Occupation            Energy/Eh            Energy/eV
      -------------------------------------------------------------
         1        2.0000           -0.8576107             -23.3368
       ...           ...                  ...                  ...
        62        2.0000           -0.4431711             -12.0593
        63        2.0000           -0.4402887             -11.9809
        64        2.0000           -0.4322107             -11.7611
        65        2.0000           -0.3951412             -10.7523
        66        2.0000           -0.3873564             -10.5405
        67        2.0000           -0.3753819             -10.2147
        68        1.9819           -0.3091363              -8.4120 (HOMO)
        69        0.0181           -0.3002168              -8.1693 (LUMO)
        70                         -0.2501235              -6.8062
        71                         -0.2367317              -6.4418
        72                         -0.2169566              -5.9037
        73                         -0.1881313              -5.1193
       ...                                ...                  ...
       136                          0.7375120              20.0687
      -------------------------------------------------------------
                  HL-Gap            0.0089195 Eh            0.2427 eV
             Fermi-level           -0.3046766 Eh           -8.2907 eV

 SCC (total)                   0 d,  0 h,  0 min,  0.130 sec
 SCC setup                      ...        0 min,  0.002 sec (  1.468%)
 Dispersion                     ...        0 min,  0.000 sec (  0.264%)
 classical contributions        ...        0 min,  0.000 sec (  0.089%)
 integral evaluation            ...        0 min,  0.035 sec ( 27.307%)
 iterations                     ...        0 min,  0.011 sec (  8.552%)
 molecular gradient             ...        0 min,  0.080 sec ( 61.899%)
 printout                       ...        0 min,  0.001 sec (  0.393%)

         :::::::::::::::::::::::::::::::::::::::::::::::::::::
         ::                     SUMMARY                     ::
         :::::::::::::::::::::::::::::::::::::::::::::::::::::
         :: total energy             -83.876892447490 Eh    ::
         :: total w/o Gsasa/hb       -83.853445605105 Eh    ::
         :: gradient norm              0.000197924147 Eh/a0 ::
         :: HOMO-LUMO gap              0.242712579925 eV    ::
         ::.................................................::
         :: SCC energy               -84.642685171126 Eh    ::
         :: -> electrostatic           0.486531380016 Eh    ::
         :: -> Gsolv                  -0.134820312538 Eh    ::
         ::    -> Gelec               -0.111373470153 Eh    ::
         ::    -> Gsasa               -0.023959426687 Eh    ::
         ::    -> Ghb                 -0.007111694702 Eh    ::
         ::    -> Gshift               0.007624279005 Eh    ::
         :: repulsion energy           0.793425702317 Eh    ::
         :: dispersion energy         -0.027632978681 Eh    ::
         :: halogen bond corr.         0.000000000000 Eh    ::
         :: add. restraining           0.000000000000 Eh    ::
         :: total charge              -1.000000000000 e     ::
         :::::::::::::::::::::::::::::::::::::::::::::::::::::

           -------------------------------------------------
          |                Property Printout                |
           -------------------------------------------------

    * Orbital Energies and Occupations

         #    Occupation            Energy/Eh            Energy/eV
      -------------------------------------------------------------
         1        2.0000           -0.8576107             -23.3368
       ...           ...                  ...                  ...
        56        2.0000           -0.4728165             -12.8660
        57        2.0000           -0.4666405             -12.6979
        58        2.0000           -0.4659359             -12.6788
        59        2.0000           -0.4576505             -12.4533
        60        2.0000           -0.4524745             -12.3125
        61        2.0000           -0.4509865             -12.2720
        62        2.0000           -0.4431711             -12.0593
        63        2.0000           -0.4402887             -11.9809
        64        2.0000           -0.4322107             -11.7611
        65        2.0000           -0.3951412             -10.7523
        66        2.0000           -0.3873564             -10.5405
        67        2.0000           -0.3753819             -10.2147
        68        1.9819           -0.3091363              -8.4120 (HOMO)
        69        0.0181           -0.3002168              -8.1693 (LUMO)
        70                         -0.2501235              -6.8062
        71                         -0.2367317              -6.4418
        72                         -0.2169566              -5.9037
        73                         -0.1881313              -5.1193
        74                         -0.1386509              -3.7729
        75                         -0.1295960              -3.5265
        76                         -0.1288860              -3.5072
        77                         -0.1195651              -3.2535
        78                         -0.1096091              -2.9826
        79                         -0.0967039              -2.6314
       ...                                ...                  ...
       136                          0.7375120              20.0687
      -------------------------------------------------------------
                  HL-Gap            0.0089195 Eh            0.2427 eV
             Fermi-level           -0.3046766 Eh           -8.2907 eV

  Mulliken/CM5 charges         n(s)   n(p)   n(d)
     1C     0.17372  0.05394   0.972  2.854  0.000
     2O    -0.42075 -0.50331   1.686  4.735  0.000
     3C     0.55031  0.61375   0.999  2.451  0.000
     4O    -0.59730 -0.64680   1.733  4.864  0.000
     5C     0.13812  0.19033   1.061  2.801  0.000
     6C    -0.08249 -0.21970   1.009  3.074  0.000
     7N    -0.47389 -0.65813   1.550  3.924  0.000
     8C     0.29833  0.45404   1.008  2.694  0.000
     9C     0.15085  0.19118   1.065  2.784  0.000
    10C    -0.10698 -0.24755   1.021  3.086  0.000
    11C    -0.09323 -0.23136   1.013  3.080  0.000
    12N    -0.34085 -0.69917   1.433  3.908  0.000
    13C     0.46493  0.57482   0.975  2.560  0.000
    14O    -0.58696 -0.62762   1.727  4.860  0.000
    15C     0.32893  0.45429   1.011  2.660  0.000
    16N    -0.23299 -0.33658   1.568  3.665  0.000
    17N    -0.27466 -0.38252   1.565  3.709  0.000
    18C     0.38947  0.49830   1.006  2.605  0.000
    19C    -0.11160 -0.24904   1.011  3.100  0.000
    20O    -0.35981 -0.41668   1.697  4.663  0.000
    21N    -0.37027 -0.70512   1.443  3.927  0.000
    22C     0.35596  0.44167   0.976  2.668  0.000
    23O    -0.73371 -0.77341   1.750  4.984  0.000
    24C     0.03090  0.05827   0.999  2.970  0.000
    25O    -0.59827 -0.79280   1.714  4.885  0.000
    26H     0.03633  0.09806   0.964  0.000  0.000
    27H     0.03733  0.09887   0.963  0.000  0.000
    28H     0.03987  0.10030   0.960  0.000  0.000
    29H     0.02326  0.07954   0.977  0.000  0.000
    30H     0.03438  0.09412   0.966  0.000  0.000
    31H     0.01819  0.07493   0.982  0.000  0.000
    32H     0.04652  0.10400   0.953  0.000  0.000
    33H     0.04607  0.10139   0.954  0.000  0.000
    34H     0.04500  0.10051   0.955  0.000  0.000
    35H     0.03570  0.09411   0.964  0.000  0.000
    36H     0.04555  0.10726   0.954  0.000  0.000
    37H     0.03164  0.08742   0.968  0.000  0.000
    38H     0.25803  0.46503   0.742  0.000  0.000
    39H     0.07727  0.13181   0.923  0.000  0.000
    40H     0.06676  0.12257   0.933  0.000  0.000
    41H     0.07807  0.13258   0.922  0.000  0.000
    42H     0.22552  0.43278   0.774  0.000  0.000
    43H     0.35677  0.53393   0.643  0.000  0.000

Wiberg/Mayer (AO) data.
largest (>0.10) Wiberg bond orders for each atom

 ---------------------------------------------------------------------------
     #   Z sym  total        # sym  WBO       # sym  WBO       # sym  WBO
 ---------------------------------------------------------------------------
     1   6 C    3.892 --    28 H    0.987    26 H    0.981    27 H    0.981
                             2 O    0.913
     2   8 O    2.184 --     3 C    1.090     1 C    0.913     4 O    0.119
     3   6 C    3.807 --     4 O    1.636     2 O    1.090     5 C    0.920
     4   8 O    1.899 --     3 C    1.636     2 O    0.119
     5   6 C    3.965 --     6 C    0.986     7 N    0.969    24 C    0.958
                             3 C    0.920
     6   6 C    3.996 --    31 H    0.988    29 H    0.988     5 C    0.986
                            30 H    0.985
     7   7 N    2.972 --     8 C    1.672     5 C    0.969    21 N    0.164
     8   6 C    3.951 --     7 N    1.672    21 N    1.197     9 C    0.960
     9   6 C    3.929 --    11 C    0.992    10 C    0.989     8 C    0.960
                            12 N    0.919
    10   6 C    3.993 --     9 C    0.989    32 H    0.984    33 H    0.984
                            34 H    0.984
    11   6 C    3.992 --     9 C    0.992    37 H    0.987    35 H    0.983
                            36 H    0.981
    12   7 N    3.356 --    13 C    1.265     9 C    0.919    38 H    0.898
                            14 O    0.179
    13   6 C    3.914 --    14 O    1.579    12 N    1.265    15 C    0.989
    14   8 O    1.882 --    13 C    1.579    12 N    0.179
    15   6 C    3.861 --    16 N    1.620    20 O    1.045    13 C    0.989
    16   7 N    2.987 --    15 C    1.620    17 N    1.192
    17   7 N    2.980 --    18 C    1.617    16 N    1.192
    18   6 C    3.868 --    17 N    1.617    20 O    1.071    19 C    1.031
    19   6 C    3.987 --    18 C    1.031    40 H    0.983    39 H    0.964
                            41 H    0.964
    20   8 O    2.311 --    18 C    1.071    15 C    1.045
    21   7 N    3.310 --     8 C    1.197    42 H    0.912    22 C    0.904
                             7 N    0.164
    22   6 C    3.913 --    24 C    1.520    23 O    1.361    21 N    0.904
    23   8 O    1.699 --    22 C    1.361    24 C    0.171
    24   6 C    3.777 --    22 C    1.520     5 C    0.958    25 O    0.943
                            23 O    0.171
    25   8 O    1.912 --    24 C    0.943    43 H    0.859
    26   1 H    1.012 --     1 C    0.981
    27   1 H    1.012 --     1 C    0.981
    28   1 H    1.015 --     1 C    0.987
    29   1 H    1.012 --     6 C    0.988
    30   1 H    1.017 --     6 C    0.985
    31   1 H    1.011 --     6 C    0.988
    32   1 H    1.001 --    10 C    0.984
    33   1 H    1.005 --    10 C    0.984
    34   1 H    1.000 --    10 C    0.984
    35   1 H    1.019 --    11 C    0.983
    36   1 H    1.016 --    11 C    0.981
    37   1 H    1.003 --    11 C    0.987
    38   1 H    0.941 --    12 N    0.898
    39   1 H    0.997 --    19 C    0.964
    40   1 H    0.999 --    19 C    0.983
    41   1 H    0.997 --    19 C    0.964
    42   1 H    0.965 --    21 N    0.912
    43   1 H    0.891 --    25 O    0.859
 ---------------------------------------------------------------------------

Topologies differ in total number of bonds
Writing topology from bond orders to xtbtopo.mol

 dipole moment from electron density (au)
     X       Y       Z   
   7.6545  -3.4563  -1.3685  total (Debye):   21.629

           -------------------------------------------------
          |                Geometry Summary                 |
           -------------------------------------------------

      molecular mass/u    :      352.3231817
   center of mass at/Å    :       -0.0586250       0.4022322       0.1001200
  moments of inertia/u·Å² :        0.1219243E+04   0.4163681E+04   0.4300843E+04
rotational constants/cm⁻¹ :        0.1382631E-01   0.4048733E-02   0.3919611E-02

 * 35 selected distances

     #   Z          #   Z                                           value/Å
     1   6 C        2   8 O                                       1.4246221
     2   8 O        3   6 C                                       1.3424031
     3   6 C        4   8 O                                       1.2175581
     5   6 C        6   6 C                                       1.5360652 (max)
     7   7 N        8   6 C                                       1.2796033
     9   6 C       10   6 C                                       1.5321947
     9   6 C       11   6 C                                       1.5315644
     9   6 C       12   7 N                                       1.4663960
    12   7 N       13   6 C                                       1.3469753
    13   6 C       14   8 O                                       1.2209120
    15   6 C       16   7 N                                       1.2979383
    17   7 N       18   6 C                                       1.2956631
    18   6 C       19   6 C                                       1.4792138
    15   6 C       20   8 O                                       1.3521930
    18   6 C       20   8 O                                       1.3437362
     8   6 C       21   7 N                                       1.3556328
    22   6 C       24   6 C                                       1.3591411
     1   6 C       26   1 H                                       1.0939822
     1   6 C       27   1 H                                       1.0940711
     1   6 C       28   1 H                                       1.0892340
     6   6 C       29   1 H                                       1.0886930
     6   6 C       30   1 H                                       1.0893868
     6   6 C       31   1 H                                       1.0896809
    10   6 C       32   1 H                                       1.0890705
    10   6 C       33   1 H                                       1.0891592
    10   6 C       34   1 H                                       1.0884049
    11   6 C       35   1 H                                       1.0893807
    11   6 C       36   1 H                                       1.0895635
    11   6 C       37   1 H                                       1.0881631
    12   7 N       38   1 H                                       1.0044220
    19   6 C       39   1 H                                       1.0897031
    19   6 C       40   1 H                                       1.0871342
    19   6 C       41   1 H                                       1.0897406
    21   7 N       42   1 H                                       1.0071135
    25   8 O       43   1 H                                       0.9671819 (min)

 * 6 distinct bonds (by element types)

   Z      Z             #   av. dist./Å        max./Å        min./Å
   1 H    6 C          15     1.0896912     1.0940711     1.0871342
   6 C    6 C           5     1.4876358     1.5360652     1.3591411
   1 H    7 N           2     1.0057678     1.0071135     1.0044220
   6 C    7 N           6     1.3403681     1.4663960     1.2796033
   1 H    8 O           1     0.9671819     0.9671819     0.9671819
   6 C    8 O           6     1.3169041     1.4246221     1.2175581


optimized geometry written to: xtbopt.xyz


           -------------------------------------------------
          | TOTAL ENERGY              -83.876892447490 Eh   |
          | GRADIENT NORM               0.000197924147 Eh/α |
          | HOMO-LUMO GAP               0.242712579925 eV   |
           -------------------------------------------------

------------------------------------------------------------------------
 * finished run on 2023/06/20 at 14:57:18.594     
------------------------------------------------------------------------
 total:
 * wall-time:     0 d,  0 h,  0 min, 14.197 sec
 *  cpu-time:     0 d,  0 h,  0 min, 14.081 sec
 * ratio c/w:     0.992 speedup
 SCF:
 * wall-time:     0 d,  0 h,  0 min,  0.198 sec
 *  cpu-time:     0 d,  0 h,  0 min,  0.189 sec
 * ratio c/w:     0.954 speedup
 ANC optimizer:
 * wall-time:     0 d,  0 h,  0 min, 13.923 sec
 *  cpu-time:     0 d,  0 h,  0 min, 13.856 sec
 * ratio c/w:     0.995 speedup

