47
 energy: -80.219047737439 gnorm: 0.000557519506 xtb: 6.5.1 (579679a)
C           -3.77754539188059       -1.90017102538113        0.88623627508408
N           -2.55122278644399       -1.16480913179761        0.58772273879311
C           -1.40960331647187       -1.60762957504174        1.24255455855318
O           -1.49066591197039       -2.33292808785551        2.26290601171842
C           -0.16915704911888       -1.21853389675802        0.68054972307090
O            0.98252203317513       -1.63408846698108        1.38177863916610
C           -0.11338724929984       -0.62469652666583       -0.57684724339448
C            1.18008082222623       -0.40116946309836       -1.31006291864127
O            1.34134114116828        0.51462273756017       -2.11495782906983
N            2.15738078275405       -1.31813493801080       -1.08231924188633
C            3.50836201513489       -1.08081102430395       -1.57079196885709
C            4.26176246065516       -0.19249961993227       -0.60303109092316
C            4.13585166401291        1.19341011778179       -0.68350121006893
C            4.78494817145797        2.01604201513746        0.22579885270604
C            5.55630636669190        1.42467216147954        1.21010716250591
F            6.19078321072753        2.21607137177899        2.09503615437062
C            5.70608136250147        0.05453226964592        1.31911674682818
C            5.04647876182841       -0.75275831896570        0.40181767353816
N           -1.18595354231150       -0.21490908417038       -1.22857573415145
C           -2.48358251168852       -0.27031504111528       -0.58819611826463
C           -3.45076263676512       -0.74987329967072       -1.69268920865484
C           -2.83116092551848        1.21416535046496       -0.16382879820735
C           -1.82383609850222        1.72034676971984        0.88450653002414
C           -4.24506354303063        1.38643088936088        0.40089182913209
N           -2.73333018760346        2.02169242471771       -1.38135424858718
H           -3.87952039122257       -2.78701955627833        0.24882657965622
H           -3.73855112981721       -2.22477874074595        1.92855641218267
H           -4.65755247294398       -1.27233219521189        0.75595889537378
H            0.65000703818594       -2.15256274524079        2.13493651922659
H            2.08073610977450       -1.94159134034066       -0.29211325833148
H            4.01027671264740       -2.04581941904407       -1.67593781582176
H            3.44121078886801       -0.60397436264937       -2.55409691290510
H            3.52410123494174        1.63315932561582       -1.46416960782150
H            4.69952335676853        3.09380508161992        0.17480946466683
H            6.32325213784452       -0.36855719993400        2.10069852137238
H            5.15159356883221       -1.82958090649708        0.46980357776511
H           -4.48943929557990       -0.77535345499560       -1.37238821319011
H           -3.15625735701647       -1.74670272903572       -2.01967869004493
H           -3.36596312411770       -0.06775472609957       -2.53793609389255
H           -2.05357659681949        2.75232594801711        1.14985517262588
H           -1.87403664195561        1.11040203072022        1.78684652190338
H           -0.80950997455780        1.68485988114103        0.48770203386460
H           -5.00021132562108        1.05998963135916       -0.31289498830418
H           -4.36310010682197        0.83072641325690        1.32999422471282
H           -4.42203790553476        2.44141979245544        0.61567522585022
H           -1.79076940839787        1.91391366247272       -1.75558494319716
H           -2.86680385917684        2.99677000151532       -1.15031891047569
