      -----------------------------------------------------------      
     |                   =====================                   |     
     |                           x T B                           |     
     |                   =====================                   |     
     |                         S. Grimme                         |     
     |          Mulliken Center for Theoretical Chemistry        |     
     |                    University of Bonn                     |     
      -----------------------------------------------------------      

   * xtb version 6.5.1 (579679a) compiled by 'ehlert@majestix' on 2022-07-11

   xtb is free software: you can redistribute it and/or modify it under
   the terms of the GNU Lesser General Public License as published by
   the Free Software Foundation, either version 3 of the License, or
   (at your option) any later version.
   
   xtb is distributed in the hope that it will be useful,
   but WITHOUT ANY WARRANTY; without even the implied warranty of
   MERCHANTABILITY or FITNESS FOR A PARTICULAR PURPOSE.  See the
   GNU Lesser General Public License for more details.
   
   Cite this work as:
   * C. Bannwarth, E. Caldeweyher, S. Ehlert, A. Hansen, P. Pracht,
     J. Seibert, S. Spicher, S. Grimme, WIREs Comput. Mol. Sci., 2020, 11,
     e01493. DOI: 10.1002/wcms.1493
   
   for GFN2-xTB:
   * C. Bannwarth, S. Ehlert and S. Grimme., J. Chem. Theory Comput., 2019,
     15, 1652-1671. DOI: 10.1021/acs.jctc.8b01176
   for GFN1-xTB:
   * S. Grimme, C. Bannwarth, P. Shushkov, J. Chem. Theory Comput., 2017,
     13, 1989-2009. DOI: 10.1021/acs.jctc.7b00118
   for GFN0-xTB:
   * P. Pracht, E. Caldeweyher, S. Ehlert, S. Grimme, ChemRxiv, 2019, preprint.
     DOI: 10.26434/chemrxiv.8326202.v1
   for GFN-FF:
   * S. Spicher and S. Grimme, Angew. Chem. Int. Ed., 2020, 59, 15665-15673.
     DOI: 10.1002/anie.202004239
   
   for ALPB and GBSA implicit solvation:
   * S. Ehlert, M. Stahn, S. Spicher, S. Grimme, J. Chem. Theory Comput.,
     2021, 17, 4250-4261. DOI: 10.1021/acs.jctc.1c00471
   
   for DFT-D4:
   * E. Caldeweyher, C. Bannwarth and S. Grimme, J. Chem. Phys., 2017,
     147, 034112. DOI: 10.1063/1.4993215
   * E. Caldeweyher, S. Ehlert, A. Hansen, H. Neugebauer, S. Spicher,
     C. Bannwarth and S. Grimme, J. Chem. Phys., 2019, 150, 154122.
     DOI: 10.1063/1.5090222
   * E. Caldeweyher, J.-M. Mewes, S. Ehlert and S. Grimme, Phys. Chem. Chem. Phys.
     2020, 22, 8499-8512. DOI: 10.1039/D0CP00502A
   
   for sTDA-xTB:
   * S. Grimme and C. Bannwarth, J. Chem. Phys., 2016, 145, 054103.
     DOI: 10.1063/1.4959605
   
   in the mass-spec context:
   * V. Asgeirsson, C. Bauer and S. Grimme, Chem. Sci., 2017, 8, 4879.
     DOI: 10.1039/c7sc00601b
   * J. Koopman and S. Grimme, ACS Omega 2019, 4, 12, 15120-15133.
     DOI: 10.1021/acsomega.9b02011
   
   for metadynamics refer to:
   * S. Grimme, J. Chem. Theory Comput., 2019, 155, 2847-2862
     DOI: 10.1021/acs.jctc.9b00143
   
   for SPH calculations refer to:
   * S. Spicher and S. Grimme, J. Chem. Theory Comput., 2021, 17, 1701-1714
     DOI: 10.1021/acs.jctc.0c01306
   
   with help from (in alphabetical order)
   P. Atkinson, C. Bannwarth, F. Bohle, G. Brandenburg, E. Caldeweyher
   M. Checinski, S. Dohm, S. Ehlert, S. Ehrlich, I. Gerasimov, C. Hölzer
   A. Katbashev, J. Koopman, C. Lavigne, S. Lehtola, F. März, M. Müller,
   F. Musil, H. Neugebauer, J. Pisarek, C. Plett, P. Pracht, F. Pultar,
   J. Seibert, P. Shushkov, S. Spicher, M. Stahn, M. Steiner, T. Strunk,
   J. Stückrath, T. Rose, and J. Unsleber
   
 * started run on 2023/06/20 at 15:17:50.703     

           -------------------------------------------------
          |                Calculation Setup                |
           -------------------------------------------------

          program call               : /lustre/hpc/kemi/ree/PhD/git/ReactivityQM/dep/xtb-6.5.1/bin/xtb --gfn 1 /lustre/hpc/kemi/ree/PhD/git/ReactivityQM/calculations/R03/reac02prodE04/conf15/R03_reac02prodE04_conf15_gfn1.xyz --opt --vfukui --chrg -1 --uhf 0 --alpb DMSO
          hostname                   : node068
          coordinate file            : /lustre/hpc/kemi/ree/PhD/git/ReactivityQM/calculations/R03/reac02prodE04/conf15/R03_reac02prodE04_conf15_gfn1.xyz
          omp threads                :                     1

   ID    Z sym.   atoms
    1    6 C      1, 3, 5, 6, 8-11, 13, 15, 18, 19, 22, 23, 25
    2    8 O      2, 4, 14, 20, 24, 26
    3    7 N      7, 12, 16, 17, 21
    4    1 H      27-46

           -------------------------------------------------
          |                 G F N 1 - x T B                 |
           -------------------------------------------------

        Reference                      10.1021/acs.jctc.7b00118
      * Hamiltonian:
        H0-scaling (s, p, d)           1.850000    2.250000    2.000000
        zeta-weighting                 0.000000
      * Dispersion:
        s8                             2.400000
        a1                             0.630000
        a2                             5.000000
        s9                             0.000000
      * Repulsion:
        kExp                           1.500000
        rExp                           1.000000
      * Coulomb:
        alpha                          2.000000
        third order                    atomic
        anisotropic                    false
      * Halogen bond correction:
        rad-scale                      1.300000
        damping                        0.440000

      * Solvation model:               ALPB
        Solvent                        DMSO
        Parameter file                 internal GFN1-xTB/ALPB
        Dielectric constant                4.6680E+01
        Reference state                gsolv [1 M gas/solution]
        Free energy shift                  7.6243E-03 Eh       4.7843E+00 kcal/mol
        Temperature                        2.9815E+02 K
        Density                            1.1000E+00 kg/L
        Solvent mass                       7.8130E+01 g/mol
        Interaction kernel             P16
        Born radius scaling (c1)           1.7672E+00
        Born radii integrator          GBOBC
        Born offset                        0.0000E+00 a0       0.0000E+00 AA
        H-bond correction              true
        Ion screening                  false
        Surface tension                    1.0000E-05 Eh       1.5569E+01 dyn/cm
        Grid points                               230 per atom

          ...................................................
          :                      SETUP                      :
          :.................................................:
          :  # basis functions                 144          :
          :  # atomic orbitals                 144          :
          :  # shells                           92          :
          :  # electrons                       142          :
          :  # halogen bonds                     0          :
          :  max. iterations                   250          :
          :  Hamiltonian                  GFN1-xTB          :
          :  restarted?                      false          :
          :  GBSA solvation                   true          :
          :  PC potential                    false          :
          :  electronic temp.          300.0000000     K    :
          :  accuracy                    1.0000000          :
          :  -> integral cutoff          0.2500000E+02      :
          :  -> integral neglect         0.1000000E-07      :
          :  -> SCF convergence          0.1000000E-05 Eh   :
          :  -> wf. convergence          0.2000000E-04 e    :
          :  Broyden damping             0.4000000          :
          ...................................................

 iter      E             dE          RMSdq      gap      omega  full diag
   1    -87.5094579 -0.875095E+02  0.848E+00    1.39       0.0  T
   2    -87.7502622 -0.240804E+00  0.510E+00    0.04       1.0  T
   3    -87.6963597  0.539026E-01  0.204E+00    2.45       1.0  T
   4    -87.7966504 -0.100291E+00  0.413E-01    0.77       1.0  T
   5    -87.6702936  0.126357E+00  0.974E-01    0.02       1.0  T
   6    -87.7964656 -0.126172E+00  0.378E-01    0.81       1.0  T
   7    -87.7988897 -0.242407E-02  0.304E-01    0.57       1.0  T
   8    -87.8002900 -0.140032E-02  0.260E-01    0.37       1.0  T
   9    -87.8060162 -0.572615E-02  0.115E-01    0.15       1.0  T
  10    -87.5432593  0.262757E+00  0.136E+00    0.07       1.0  T
  11    -87.8008490 -0.257590E+00  0.241E-01    0.31       1.0  T
  12    -87.8017666 -0.917570E-03  0.218E-01    0.25       1.0  T
  13    -87.8037088 -0.194221E-02  0.175E-01    0.19       1.0  T
  14    -87.8062246 -0.251577E-02  0.105E-01    0.15       1.0  T
  15    -87.8075202 -0.129565E-02  0.354E-02    0.12       1.0  T
  16    -87.8076554 -0.135161E-03  0.161E-02    0.11       1.0  T
  17    -87.8076907 -0.352662E-04  0.786E-04    0.11      18.8  T
  18    -87.8076864  0.428060E-05  0.566E-03    0.11       2.6  T
  19    -87.8076906 -0.421832E-05  0.103E-03    0.11      14.3  T
  20    -87.8076908 -0.144271E-06  0.595E-05    0.11     247.9  T
  21    -87.8076908 -0.381434E-09  0.279E-05    0.11     527.7  T

   *** convergence criteria satisfied after 21 iterations ***

         #    Occupation            Energy/Eh            Energy/eV
      -------------------------------------------------------------
         1        2.0000           -0.8413698             -22.8948
       ...           ...                  ...                  ...
        65        2.0000           -0.4327023             -11.7744
        66        2.0000           -0.4254729             -11.5777
        67        2.0000           -0.4187007             -11.3934
        68        2.0000           -0.3990683             -10.8592
        69        2.0000           -0.3856918             -10.4952
        70        2.0000           -0.3800461             -10.3416
        71        1.7882           -0.3000708              -8.1653 (HOMO)
        72        0.2118           -0.2960173              -8.0550 (LUMO)
        73                         -0.2561976              -6.9715
        74                         -0.2417169              -6.5775
        75                         -0.2289012              -6.2287
        76                         -0.1798577              -4.8942
       ...                                ...                  ...
       144                          0.7023583              19.1121
      -------------------------------------------------------------
                  HL-Gap            0.0040535 Eh            0.1103 eV
             Fermi-level           -0.2980441 Eh           -8.1102 eV

 SCC (total)                   0 d,  0 h,  0 min,  0.223 sec
 SCC setup                      ...        0 min,  0.002 sec (  0.900%)
 Dispersion                     ...        0 min,  0.000 sec (  0.141%)
 classical contributions        ...        0 min,  0.000 sec (  0.049%)
 integral evaluation            ...        0 min,  0.032 sec ( 14.152%)
 iterations                     ...        0 min,  0.122 sec ( 54.583%)
 molecular gradient             ...        0 min,  0.066 sec ( 29.531%)
 printout                       ...        0 min,  0.001 sec (  0.635%)

         :::::::::::::::::::::::::::::::::::::::::::::::::::::
         ::                     SUMMARY                     ::
         :::::::::::::::::::::::::::::::::::::::::::::::::::::
         :: total energy             -87.024658902935 Eh    ::
         :: total w/o Gsasa/hb       -87.001352394148 Eh    ::
         :: gradient norm              0.151535873000 Eh/a0 ::
         :: HOMO-LUMO gap              0.110301377124 eV    ::
         ::.................................................::
         :: SCC energy               -87.807690750975 Eh    ::
         :: -> electrostatic           0.442404407867 Eh    ::
         :: -> Gsolv                  -0.107162105964 Eh    ::
         ::    -> Gelec               -0.083855597177 Eh    ::
         ::    -> Gsasa               -0.024786034086 Eh    ::
         ::    -> Ghb                 -0.006144753706 Eh    ::
         ::    -> Gshift               0.007624279005 Eh    ::
         :: repulsion energy           0.812645657983 Eh    ::
         :: dispersion energy         -0.029613809943 Eh    ::
         :: halogen bond corr.         0.000000000000 Eh    ::
         :: add. restraining           0.000000000000 Eh    ::
         :: total charge              -1.000000000000 e     ::
         :::::::::::::::::::::::::::::::::::::::::::::::::::::

      ----------------------------------------------------------- 
     |                   =====================                   |
     |                        A N C O P T                        |
     |                   =====================                   |
     |               Approximate Normal Coordinate               |
     |                Rational Function Optimizer                |
      ----------------------------------------------------------- 

          ...................................................
          :                      SETUP                      :
          :.................................................:
          :   optimization level            normal          :
          :   max. optcycles                   200          :
          :   ANC micro-cycles                  20          :
          :   degrees of freedom               132          :
          :.................................................:
          :   RF solver                   davidson          :
          :   write xtbopt.log                true          :
          :   linear?                        false          :
          :   energy convergence         0.5000000E-05 Eh   :
          :   grad. convergence          0.1000000E-02 Eh/α :
          :   maximium RF displ.         1.0000000          :
          :   Hlow (freq-cutoff)         0.1000000E-01      :
          :   Hmax (freq-cutoff)         5.0000000          :
          :   S6 in model hess.         20.0000000          :
          ...................................................

generating ANC from model Hessian ...
Using Lindh-Hessian (1995)
 Shifting diagonal of input Hessian by   9.834378328304843E-003
 Lowest  eigenvalues of input Hessian
    0.000000    0.000000    0.000000    0.000000    0.000000    0.000000
    0.010000    0.010150    0.010505    0.010807    0.011370    0.012114
    0.012526    0.013817    0.014374    0.014739    0.015888    0.016363
 Highest eigenvalues
    1.956003    2.075624    2.111811    2.254442    2.278666    2.312482
 

........................................................................
.............................. CYCLE    1 ..............................
........................................................................
   1    -87.8076908 -0.878077E+02  0.227E-05    0.11       0.0  T
   2    -87.8076907  0.690807E-08  0.227E-04    0.11      64.9  T
   3    -87.8076908 -0.697788E-08  0.135E-06    0.11   10914.9  T
   4    -87.8076908 -0.483169E-12  0.473E-07    0.11   31173.5  T
     SCC iter.                  ...        0 min,  0.025 sec
     gradient                   ...        0 min,  0.064 sec
 * total energy  :   -87.0246589 Eh     change       -0.1048903E-09 Eh
   gradient norm :     0.1515388 Eh/α   predicted     0.0000000E+00 (-100.00%)
   displ. norm   :     0.2854722 α      lambda       -0.2003694E-01
   maximum displ.:     0.1171986 α      in ANC's #29, #8, #45, ...

........................................................................
.............................. CYCLE    2 ..............................
........................................................................
   1    -87.8189790 -0.878190E+02  0.205E-01    0.41       0.0  T
   2    -87.3675204  0.451459E+00  0.180E+00    0.19       1.0  T
   3    -87.8200487 -0.452528E+00  0.175E-01    0.31       1.0  T
   4    -87.8206588 -0.610060E-03  0.154E-01    0.26       1.0  T
   5    -87.8232947 -0.263596E-02  0.554E-02    0.15       1.0  T
   6    -87.8234662 -0.171492E-03  0.414E-02    0.12       1.0  T
   7    -87.8236894 -0.223187E-03  0.107E-02    0.13       1.4  T
   8    -87.8237042 -0.148210E-04  0.159E-03    0.13       9.3  T
   9    -87.8237045 -0.275899E-06  0.466E-04    0.13      31.6  T
  10    -87.8237043  0.183997E-06  0.124E-03    0.13      11.8  T
  11    -87.8237045 -0.196487E-06  0.268E-04    0.13      55.0  T
  12    -87.8237045 -0.917815E-08  0.331E-05    0.13     445.3  T
  13    -87.8237045 -0.130271E-09  0.151E-06    0.13    9766.0  T
     SCC iter.                  ...        0 min,  0.076 sec
     gradient                   ...        0 min,  0.065 sec
 * total energy  :   -87.0392358 Eh     change       -0.1457689E-01 Eh
   gradient norm :     0.0782571 Eh/α   predicted    -0.1084340E-01 ( -25.61%)
   displ. norm   :     0.3085953 α      lambda       -0.9809988E-02
   maximum displ.:     0.1223187 α      in ANC's #29, #9, #8, ...

........................................................................
.............................. CYCLE    3 ..............................
........................................................................
   1    -87.8367884 -0.878368E+02  0.155E-01    0.47       0.0  T
   2    -87.7872539  0.495345E-01  0.621E-01    0.03       1.0  T
   3    -87.8375935 -0.503396E-01  0.120E-01    0.36       1.0  T
   4    -87.8378694 -0.275916E-03  0.102E-01    0.30       1.0  T
   5    -87.8389296 -0.106017E-02  0.336E-02    0.18       1.0  T
   6    -87.8390016 -0.719499E-04  0.227E-02    0.15       1.0  T
   7    -87.8390595 -0.579676E-04  0.923E-03    0.17       1.6  T
   8    -87.8390703 -0.107674E-04  0.931E-04    0.16      15.8  T
   9    -87.8390703 -0.416868E-07  0.567E-04    0.16      26.0  T
  10    -87.8390704 -0.227745E-07  0.362E-04    0.16      40.8  T
  11    -87.8390704 -0.149217E-07  0.848E-05    0.16     173.9  T
  12    -87.8390704 -0.808825E-09  0.142E-05    0.16    1035.5  T
     SCC iter.                  ...        0 min,  0.070 sec
     gradient                   ...        0 min,  0.065 sec
 * total energy  :   -87.0449884 Eh     change       -0.5752655E-02 Eh
   gradient norm :     0.0283617 Eh/α   predicted    -0.5375174E-02 (  -6.56%)
   displ. norm   :     0.2392917 α      lambda       -0.1592557E-02
   maximum displ.:     0.1172288 α      in ANC's #9, #8, #6, ...

........................................................................
.............................. CYCLE    4 ..............................
........................................................................
   1    -87.8413599 -0.878414E+02  0.753E-02    0.27       0.0  T
   2    -87.8171273  0.242327E-01  0.429E-01    0.06       1.0  T
   3    -87.8416501 -0.245228E-01  0.518E-02    0.24       1.0  T
   4    -87.8417928 -0.142698E-03  0.388E-02    0.22       1.0  T
   5    -87.8419586 -0.165814E-03  0.135E-02    0.19       1.1  T
   6    -87.8419779 -0.192589E-04  0.526E-03    0.17       2.8  T
   7    -87.8419814 -0.353553E-05  0.112E-03    0.18      13.2  T
   8    -87.8419815 -0.147421E-06  0.300E-04    0.18      49.2  T
   9    -87.8419816 -0.577376E-08  0.168E-04    0.18      87.6  T
  10    -87.8419816 -0.272340E-08  0.734E-05    0.18     200.9  T
     SCC iter.                  ...        0 min,  0.058 sec
     gradient                   ...        0 min,  0.066 sec
 * total energy  :   -87.0461772 Eh     change       -0.1188755E-02 Eh
   gradient norm :     0.0187868 Eh/α   predicted    -0.8419561E-03 ( -29.17%)
   displ. norm   :     0.3617294 α      lambda       -0.1397524E-02
   maximum displ.:     0.1773145 α      in ANC's #9, #6, #8, ...

........................................................................
.............................. CYCLE    5 ..............................
........................................................................
   1    -87.8429673 -0.878430E+02  0.635E-02    0.26       0.0  T
   2    -87.8402721  0.269524E-02  0.156E-01    0.12       1.0  T
   3    -87.8431755 -0.290340E-02  0.339E-02    0.24       1.0  T
   4    -87.8432686 -0.931174E-04  0.192E-02    0.22       1.0  T
   5    -87.8433095 -0.408816E-04  0.240E-03    0.20       6.1  T
   6    -87.8433059  0.357607E-05  0.531E-03    0.19       2.8  T
   7    -87.8433096 -0.362406E-05  0.382E-04    0.20      38.6  T
   8    -87.8433096 -0.286424E-08  0.305E-04    0.20      48.3  T
   9    -87.8433096 -0.985027E-08  0.395E-05    0.20     372.9  T
  10    -87.8433096 -0.448495E-10  0.276E-05    0.20     534.4  T
     SCC iter.                  ...        0 min,  0.059 sec
     gradient                   ...        0 min,  0.065 sec
 * total energy  :   -87.0471151 Eh     change       -0.9378677E-03 Eh
   gradient norm :     0.0105787 Eh/α   predicted    -0.7901933E-03 ( -15.75%)
   displ. norm   :     0.2932016 α      lambda       -0.5759152E-03
   maximum displ.:     0.1408515 α      in ANC's #6, #9, #3, ...

........................................................................
.............................. CYCLE    6 ..............................
........................................................................
   1    -87.8444721 -0.878445E+02  0.250E-02    0.22       0.0  T
   2    -87.8444105  0.616224E-04  0.298E-02    0.18       1.0  T
   3    -87.8444970 -0.865393E-04  0.118E-02    0.21       1.2  T
   4    -87.8445105 -0.135236E-04  0.350E-03    0.20       4.2  T
   5    -87.8445111 -0.529897E-06  0.982E-04    0.20      15.0  T
   6    -87.8445111  0.256975E-09  0.238E-04    0.20      62.1  T
   7    -87.8445111 -0.362304E-08  0.140E-04    0.20     105.0  T
   8    -87.8445111 -0.138887E-08  0.438E-05    0.20     336.8  T
     SCC iter.                  ...        0 min,  0.047 sec
     gradient                   ...        0 min,  0.065 sec
 * total energy  :   -87.0475382 Eh     change       -0.4231442E-03 Eh
   gradient norm :     0.0103675 Eh/α   predicted    -0.3128518E-03 ( -26.06%)
   displ. norm   :     0.3283244 α      lambda       -0.4708146E-03
   maximum displ.:     0.1584339 α      in ANC's #6, #3, #9, ...

........................................................................
.............................. CYCLE    7 ..............................
........................................................................
   1    -87.8454745 -0.878455E+02  0.120E-02    0.20       0.0  T
   2    -87.8454767 -0.228633E-05  0.103E-02    0.21       1.4  T
   3    -87.8454822 -0.548923E-05  0.472E-03    0.20       3.1  T
   4    -87.8454832 -0.934024E-06  0.379E-03    0.21       3.9  T
   5    -87.8454840 -0.835843E-06  0.870E-04    0.20      16.9  T
   6    -87.8454840 -0.900181E-08  0.115E-04    0.20     127.8  T
   7    -87.8454840 -0.500805E-09  0.473E-05    0.20     311.4  T
     SCC iter.                  ...        0 min,  0.041 sec
     gradient                   ...        0 min,  0.065 sec
 * total energy  :   -87.0478836 Eh     change       -0.3454202E-03 Eh
   gradient norm :     0.0103755 Eh/α   predicted    -0.2608003E-03 ( -24.50%)
   displ. norm   :     0.2990121 α      lambda       -0.3380754E-03
   maximum displ.:     0.1663993 α      in ANC's #3, #6, #9, ...

........................................................................
.............................. CYCLE    8 ..............................
........................................................................
   1    -87.8463765 -0.878464E+02  0.207E-02    0.18       0.0  T
   2    -87.8463181  0.584353E-04  0.330E-02    0.24       1.0  T
   3    -87.8464235 -0.105430E-03  0.664E-03    0.21       2.2  T
   4    -87.8464265 -0.297333E-05  0.200E-03    0.20       7.4  T
   5    -87.8464265 -0.892179E-08  0.490E-04    0.20      30.1  T
   6    -87.8464265 -0.920787E-08  0.899E-05    0.20     164.1  T
   7    -87.8464265  0.707558E-10  0.693E-05    0.20     212.9  T
     SCC iter.                  ...        0 min,  0.053 sec
     gradient                   ...        0 min,  0.068 sec
 * total energy  :   -87.0481308 Eh     change       -0.2471631E-03 Eh
   gradient norm :     0.0083772 Eh/α   predicted    -0.1841520E-03 ( -25.49%)
   displ. norm   :     0.2403584 α      lambda       -0.2227676E-03
   maximum displ.:     0.1561822 α      in ANC's #3, #6, #9, ...

........................................................................
.............................. CYCLE    9 ..............................
........................................................................
   1    -87.8470646 -0.878471E+02  0.191E-02    0.18       0.0  T
   2    -87.8470078  0.567426E-04  0.297E-02    0.23       1.0  T
   3    -87.8471010 -0.931969E-04  0.285E-03    0.20       5.2  T
   4    -87.8471014 -0.337999E-06  0.125E-03    0.20      11.8  T
   5    -87.8471013  0.173981E-07  0.597E-04    0.20      24.7  T
   6    -87.8471014 -0.106843E-07  0.321E-04    0.20      46.0  T
   7    -87.8471014 -0.121266E-07  0.766E-05    0.20     192.4  T
   8    -87.8471014 -0.629484E-09  0.122E-05    0.20    1211.1  T
     SCC iter.                  ...        0 min,  0.047 sec
     gradient                   ...        0 min,  0.069 sec
 * total energy  :   -87.0482983 Eh     change       -0.1675052E-03 Eh
   gradient norm :     0.0060468 Eh/α   predicted    -0.1178204E-03 ( -29.66%)
   displ. norm   :     0.2130926 α      lambda       -0.1721019E-03
   maximum displ.:     0.1543845 α      in ANC's #3, #6, #2, ...

........................................................................
.............................. CYCLE   10 ..............................
........................................................................
   1    -87.8474864 -0.878475E+02  0.137E-02    0.19       0.0  T
   2    -87.8474559  0.305167E-04  0.202E-02    0.21       1.0  T
   3    -87.8475018 -0.459628E-04  0.273E-03    0.19       5.4  T
   4    -87.8475023 -0.486822E-06  0.101E-03    0.19      14.7  T
   5    -87.8475023  0.460663E-07  0.802E-04    0.19      18.4  T
   6    -87.8475023 -0.506284E-07  0.133E-04    0.19     110.6  T
   7    -87.8475023 -0.200981E-08  0.281E-05    0.19     524.7  T
     SCC iter.                  ...        0 min,  0.043 sec
     gradient                   ...        0 min,  0.066 sec
 * total energy  :   -87.0484323 Eh     change       -0.1340139E-03 Eh
   gradient norm :     0.0050714 Eh/α   predicted    -0.8996322E-04 ( -32.87%)
   displ. norm   :     0.2118115 α      lambda       -0.1503189E-03
   maximum displ.:     0.1585742 α      in ANC's #3, #2, #13, ...

........................................................................
.............................. CYCLE   11 ..............................
........................................................................
   1    -87.8474081 -0.878474E+02  0.662E-03    0.19       0.0  T
   2    -87.8474088 -0.770031E-06  0.395E-03    0.20       3.7  T
   3    -87.8474081  0.744671E-06  0.477E-03    0.19       3.1  T
   4    -87.8474102 -0.216206E-05  0.999E-04    0.19      14.8  T
   5    -87.8474102  0.177031E-07  0.671E-04    0.19      22.0  T
   6    -87.8474102 -0.232360E-07  0.110E-04    0.19     133.8  T
   7    -87.8474102 -0.753957E-09  0.254E-05    0.19     580.5  T
     SCC iter.                  ...        0 min,  0.041 sec
     gradient                   ...        0 min,  0.066 sec
 * total energy  :   -87.0485516 Eh     change       -0.1192637E-03 Eh
   gradient norm :     0.0051536 Eh/α   predicted    -0.7853240E-04 ( -34.15%)
   displ. norm   :     0.2222346 α      lambda       -0.1383308E-03
   maximum displ.:     0.1668711 α      in ANC's #3, #2, #13, ...

........................................................................
.............................. CYCLE   12 ..............................
........................................................................
   1    -87.8472747 -0.878473E+02  0.642E-03    0.20       0.0  T
   2    -87.8472659  0.883826E-05  0.109E-02    0.19       1.4  T
   3    -87.8472780 -0.120929E-04  0.225E-03    0.20       6.6  T
   4    -87.8472781 -0.976283E-07  0.148E-03    0.19      10.0  T
   5    -87.8472782 -0.124419E-06  0.484E-04    0.19      30.5  T
   6    -87.8472782 -0.497006E-08  0.739E-05    0.19     199.6  T
   7    -87.8472782 -0.181259E-09  0.256E-05    0.19     575.9  T
     SCC iter.                  ...        0 min,  0.041 sec
     gradient                   ...        0 min,  0.067 sec
 * total energy  :   -87.0486628 Eh     change       -0.1111972E-03 Eh
   gradient norm :     0.0054614 Eh/α   predicted    -0.7258428E-04 ( -34.72%)
   displ. norm   :     0.2473706 α      lambda       -0.1366376E-03
   maximum displ.:     0.1831199 α      in ANC's #3, #2, #17, ...

........................................................................
.............................. CYCLE   13 ..............................
........................................................................
   1    -87.8469878 -0.878470E+02  0.103E-02    0.21       0.0  T
   2    -87.8469509  0.369282E-04  0.204E-02    0.18       1.0  T
   3    -87.8469976 -0.466973E-04  0.264E-03    0.20       5.6  T
   4    -87.8469981 -0.499189E-06  0.111E-03    0.20      13.2  T
   5    -87.8469981 -0.208340E-07  0.450E-04    0.20      32.7  T
   6    -87.8469981 -0.811781E-08  0.975E-05    0.20     151.3  T
   7    -87.8469981 -0.949285E-10  0.532E-05    0.20     277.3  T
     SCC iter.                  ...        0 min,  0.042 sec
     gradient                   ...        0 min,  0.067 sec
 * total energy  :   -87.0487729 Eh     change       -0.1100921E-03 Eh
   gradient norm :     0.0057992 Eh/α   predicted    -0.7250216E-04 ( -34.14%)
   displ. norm   :     0.2761849 α      lambda       -0.1427439E-03
   maximum displ.:     0.2031829 α      in ANC's #3, #2, #5, ...

........................................................................
.............................. CYCLE   14 ..............................
........................................................................
   1    -87.8471507 -0.878472E+02  0.118E-02    0.21       0.0  T
   2    -87.8471136  0.371293E-04  0.209E-02    0.18       1.0  T
   3    -87.8471623 -0.487612E-04  0.318E-03    0.20       4.6  T
   4    -87.8471633 -0.938448E-06  0.983E-04    0.20      15.0  T
   5    -87.8471633 -0.426742E-08  0.359E-04    0.20      41.1  T
   6    -87.8471633 -0.175514E-08  0.109E-04    0.20     135.3  T
   7    -87.8471633 -0.310934E-10  0.551E-05    0.20     267.4  T
     SCC iter.                  ...        0 min,  0.043 sec
     gradient                   ...        0 min,  0.069 sec
 * total energy  :   -87.0488895 Eh     change       -0.1165937E-03 Eh
   gradient norm :     0.0057759 Eh/α   predicted    -0.7681756E-04 ( -34.12%)
   displ. norm   :     0.3427968 α      lambda       -0.1649039E-03
   maximum displ.:     0.2511618 α      in ANC's #3, #17, #5, ...

........................................................................
.............................. CYCLE   15 ..............................
........................................................................
   1    -87.8466610 -0.878467E+02  0.127E-02    0.22       0.0  T
   2    -87.8466370  0.239958E-04  0.183E-02    0.19       1.0  T
   3    -87.8466727 -0.357125E-04  0.376E-03    0.21       3.9  T
   4    -87.8466740 -0.128553E-05  0.112E-03    0.20      13.2  T
   5    -87.8466740 -0.904831E-08  0.385E-04    0.20      38.3  T
   6    -87.8466740 -0.966779E-09  0.141E-04    0.20     104.5  T
   7    -87.8466740 -0.240277E-09  0.516E-05    0.20     285.9  T
     SCC iter.                  ...        0 min,  0.043 sec
     gradient                   ...        0 min,  0.068 sec
 * total energy  :   -87.0490190 Eh     change       -0.1295872E-03 Eh
   gradient norm :     0.0063100 Eh/α   predicted    -0.9214324E-04 ( -28.89%)
   displ. norm   :     0.3764784 α      lambda       -0.1890267E-03
   maximum displ.:     0.2746420 α      in ANC's #3, #6, #1, ...

........................................................................
.............................. CYCLE   16 ..............................
........................................................................
   1    -87.8482756 -0.878483E+02  0.105E-02    0.22       0.0  T
   2    -87.8482714  0.417169E-05  0.102E-02    0.20       1.4  T
   3    -87.8482803 -0.886435E-05  0.415E-03    0.21       3.6  T
   4    -87.8482815 -0.118857E-05  0.134E-03    0.21      11.0  T
   5    -87.8482815 -0.232981E-07  0.387E-04    0.21      38.1  T
   6    -87.8482815 -0.401357E-08  0.102E-04    0.21     144.8  T
   7    -87.8482815 -0.161535E-09  0.336E-05    0.21     438.6  T
     SCC iter.                  ...        0 min,  0.043 sec
     gradient                   ...        0 min,  0.069 sec
 * total energy  :   -87.0491505 Eh     change       -0.1314118E-03 Eh
   gradient norm :     0.0065161 Eh/α   predicted    -0.1079100E-03 ( -17.88%)
   displ. norm   :     0.4260892 α      lambda       -0.1881254E-03
   maximum displ.:     0.3134507 α      in ANC's #3, #17, #12, ...

........................................................................
.............................. CYCLE   17 ..............................
........................................................................
   1    -87.8454951 -0.878455E+02  0.121E-02    0.22       0.0  T
   2    -87.8454986 -0.349555E-05  0.740E-03    0.21       2.0  T
   3    -87.8455001 -0.146996E-05  0.475E-03    0.22       3.1  T
   4    -87.8455015 -0.141476E-05  0.220E-03    0.21       6.7  T
   5    -87.8455017 -0.211375E-06  0.554E-04    0.22      26.6  T
   6    -87.8455017 -0.349002E-08  0.136E-04    0.22     108.8  T
   7    -87.8455017 -0.363329E-09  0.341E-05    0.22     432.7  T
     SCC iter.                  ...        0 min,  0.042 sec
     gradient                   ...        0 min,  0.067 sec
 * total energy  :   -87.0492552 Eh     change       -0.1047636E-03 Eh
   gradient norm :     0.0088390 Eh/α   predicted    -0.1111450E-03 (   6.09%)
   displ. norm   :     0.2191525 α      lambda       -0.1851410E-03
   maximum displ.:     0.1476962 α      in ANC's #3, #6, #7, ...

........................................................................
.............................. CYCLE   18 ..............................
........................................................................
   1    -87.8485589 -0.878486E+02  0.100E-02    0.21       0.0  T
   2    -87.8485588  0.524154E-07  0.778E-03    0.22       1.9  T
   3    -87.8485627 -0.385878E-05  0.378E-03    0.21       3.9  T
   4    -87.8485632 -0.460374E-06  0.159E-03    0.22       9.3  T
   5    -87.8485633 -0.136057E-06  0.424E-04    0.22      34.7  T
   6    -87.8485633 -0.859501E-08  0.731E-05    0.22     201.6  T
   7    -87.8485633 -0.183263E-09  0.255E-05    0.22     579.3  T
     SCC iter.                  ...        0 min,  0.042 sec
     gradient                   ...        0 min,  0.065 sec
 * total energy  :   -87.0493774 Eh     change       -0.1222228E-03 Eh
   gradient norm :     0.0066358 Eh/α   predicted    -0.9701682E-04 ( -20.62%)
   displ. norm   :     0.4431048 α      lambda       -0.2167903E-03
   maximum displ.:     0.3162965 α      in ANC's #3, #7, #6, ...

........................................................................
.............................. CYCLE   19 ..............................
........................................................................
   1    -87.8471661 -0.878472E+02  0.175E-02    0.21       0.0  T
   2    -87.8471758 -0.971286E-05  0.109E-02    0.23       1.4  T
   3    -87.8471830 -0.717677E-05  0.591E-03    0.21       2.5  T
   4    -87.8471845 -0.150794E-05  0.268E-03    0.22       5.5  T
   5    -87.8471847 -0.167957E-06  0.907E-04    0.22      16.3  T
   6    -87.8471847 -0.199711E-07  0.170E-04    0.22      86.7  T
   7    -87.8471847 -0.216198E-08  0.359E-05    0.22     410.7  T
     SCC iter.                  ...        0 min,  0.050 sec
     gradient                   ...        0 min,  0.079 sec
 * total energy  :   -87.0494624 Eh     change       -0.8496114E-04 Eh
   gradient norm :     0.0121568 Eh/α   predicted    -0.1296787E-03 (  52.63%)
   displ. norm   :     0.1699634 α      lambda       -0.2163983E-03
   maximum displ.:     0.1113802 α      in ANC's #3, #7, #14, ...

........................................................................
.............................. CYCLE   20 ..............................
........................................................................
   1    -87.8479343 -0.878479E+02  0.137E-02    0.20       0.0  T
   2    -87.8479285  0.574831E-05  0.145E-02    0.23       1.0  T
   3    -87.8479491 -0.205712E-04  0.292E-03    0.21       5.0  T
   4    -87.8479492 -0.668794E-07  0.146E-03    0.21      10.1  T
   5    -87.8479492  0.871437E-08  0.415E-04    0.21      35.5  T
   6    -87.8479492 -0.134178E-07  0.664E-05    0.21     221.9  T
   7    -87.8479492 -0.174026E-09  0.207E-05    0.21     711.4  T
     SCC iter.                  ...        0 min,  0.051 sec
     gradient                   ...        0 min,  0.077 sec
 * total energy  :   -87.0496108 Eh     change       -0.1483824E-03 Eh
   gradient norm :     0.0068017 Eh/α   predicted    -0.1113269E-03 ( -24.97%)
   displ. norm   :     0.2844270 α      lambda       -0.1926335E-03
   maximum displ.:     0.1883621 α      in ANC's #3, #7, #14, ...
 * RMSD in coord.:     0.6348707 α      energy gain  -0.2495189E-01 Eh

generating ANC from model Hessian ...
Using Lindh-Hessian (1995)
 Shifting diagonal of input Hessian by   9.840381120780549E-003
 Lowest  eigenvalues of input Hessian
    0.000000    0.000000    0.000000    0.000000    0.000000    0.000000
    0.010000    0.010165    0.010503    0.010720    0.011426    0.011994
    0.012211    0.013435    0.014004    0.014754    0.015710    0.016548
 Highest eigenvalues
    2.025113    2.104050    2.179031    2.262380    2.272532    2.395664
 

........................................................................
.............................. CYCLE   21 ..............................
........................................................................
   1    -87.8483319 -0.878483E+02  0.125E-02    0.21       0.0  T
   2    -87.8483315  0.431641E-06  0.998E-03    0.22       1.5  T
   3    -87.8483401 -0.862634E-05  0.445E-03    0.21       3.3  T
   4    -87.8483414 -0.130982E-05  0.131E-03    0.21      11.2  T
   5    -87.8483414 -0.377069E-08  0.480E-04    0.21      30.7  T
   6    -87.8483415 -0.801586E-08  0.106E-04    0.21     139.2  T
   7    -87.8483415 -0.181032E-09  0.261E-05    0.21     565.0  T
     SCC iter.                  ...        0 min,  0.047 sec
     gradient                   ...        0 min,  0.076 sec
 * total energy  :   -87.0497480 Eh     change       -0.1372187E-03 Eh
   gradient norm :     0.0057604 Eh/α   predicted     0.0000000E+00 (-100.00%)
   displ. norm   :     0.0541294 α      lambda       -0.5917955E-04
   maximum displ.:     0.0247107 α      in ANC's #9, #3, #6, ...

........................................................................
.............................. CYCLE   22 ..............................
........................................................................
   1    -87.8486273 -0.878486E+02  0.490E-03    0.22       0.0  T
   2    -87.8486271  0.228212E-06  0.395E-03    0.21       3.7  T
   3    -87.8486283 -0.122193E-05  0.179E-03    0.22       8.2  T
   4    -87.8486285 -0.210237E-06  0.621E-04    0.21      23.7  T
   5    -87.8486285 -0.256961E-09  0.216E-04    0.21      68.2  T
   6    -87.8486285 -0.220531E-08  0.355E-05    0.21     415.2  T
   7    -87.8486285 -0.396199E-10  0.121E-05    0.21    1214.4  T
     SCC iter.                  ...        0 min,  0.050 sec
     gradient                   ...        0 min,  0.081 sec
 * total energy  :   -87.0498174 Eh     change       -0.6943874E-04 Eh
   gradient norm :     0.0035067 Eh/α   predicted    -0.4306626E-04 ( -37.98%)
   displ. norm   :     0.1746995 α      lambda       -0.1764477E-03
   maximum displ.:     0.0847017 α      in ANC's #9, #3, #6, ...

........................................................................
.............................. CYCLE   23 ..............................
........................................................................
   1    -87.8487304 -0.878487E+02  0.135E-02    0.23       0.0  T
   2    -87.8487266  0.377119E-05  0.122E-02    0.20       1.2  T
   3    -87.8487399 -0.133064E-04  0.432E-03    0.22       3.4  T
   4    -87.8487412 -0.129877E-05  0.155E-03    0.22       9.5  T
   5    -87.8487412 -0.315758E-08  0.428E-04    0.22      34.5  T
   6    -87.8487412 -0.272361E-08  0.908E-05    0.22     162.4  T
   7    -87.8487412 -0.153292E-09  0.374E-05    0.22     394.1  T
     SCC iter.                  ...        0 min,  0.051 sec
     gradient                   ...        0 min,  0.081 sec
 * total energy  :   -87.0499344 Eh     change       -0.1169528E-03 Eh
   gradient norm :     0.0034332 Eh/α   predicted    -0.9093128E-04 ( -22.25%)
   displ. norm   :     0.1702999 α      lambda       -0.9526010E-04
   maximum displ.:     0.0841374 α      in ANC's #9, #3, #6, ...

........................................................................
.............................. CYCLE   24 ..............................
........................................................................
   1    -87.8483891 -0.878484E+02  0.766E-03    0.23       0.0  T
   2    -87.8483885  0.637080E-06  0.722E-03    0.21       2.0  T
   3    -87.8483933 -0.481707E-05  0.192E-03    0.22       7.7  T
   4    -87.8483935 -0.226762E-06  0.831E-04    0.22      17.7  T
   5    -87.8483935 -0.574458E-08  0.267E-04    0.22      55.3  T
   6    -87.8483935 -0.291564E-09  0.650E-05    0.22     226.7  T
   7    -87.8483935 -0.177138E-09  0.175E-05    0.22     841.1  T
     SCC iter.                  ...        0 min,  0.049 sec
     gradient                   ...        0 min,  0.080 sec
 * total energy  :   -87.0500083 Eh     change       -0.7391957E-04 Eh
   gradient norm :     0.0054874 Eh/α   predicted    -0.4901397E-04 ( -33.69%)
   displ. norm   :     0.2563978 α      lambda       -0.1341204E-03
   maximum displ.:     0.1225219 α      in ANC's #9, #3, #6, ...

........................................................................
.............................. CYCLE   25 ..............................
........................................................................
   1    -87.8477375 -0.878477E+02  0.715E-03    0.23       0.0  T
   2    -87.8477396 -0.213333E-05  0.525E-03    0.22       2.8  T
   3    -87.8477416 -0.196961E-05  0.189E-03    0.22       7.8  T
   4    -87.8477418 -0.205682E-06  0.107E-03    0.22      13.7  T
   5    -87.8477418 -0.356853E-07  0.368E-04    0.22      40.1  T
   6    -87.8477419 -0.657877E-09  0.578E-05    0.22     255.3  T
   7    -87.8477419 -0.210321E-09  0.154E-05    0.22     959.3  T
     SCC iter.                  ...        0 min,  0.049 sec
     gradient                   ...        0 min,  0.078 sec
 * total energy  :   -87.0500999 Eh     change       -0.9161455E-04 Eh
   gradient norm :     0.0070058 Eh/α   predicted    -0.7148321E-04 ( -21.97%)
   displ. norm   :     0.1781254 α      lambda       -0.1099368E-03
   maximum displ.:     0.0864514 α      in ANC's #3, #9, #6, ...

........................................................................
.............................. CYCLE   26 ..............................
........................................................................
   1    -87.8482386 -0.878482E+02  0.621E-03    0.22       0.0  T
   2    -87.8482394 -0.858039E-06  0.409E-03    0.23       3.6  T
   3    -87.8482405 -0.106867E-05  0.178E-03    0.22       8.3  T
   4    -87.8482406 -0.132918E-06  0.691E-04    0.22      21.3  T
   5    -87.8482407 -0.167758E-07  0.326E-04    0.22      45.2  T
   6    -87.8482407 -0.393990E-08  0.461E-05    0.22     319.9  T
   7    -87.8482407 -0.934079E-10  0.180E-05    0.22     821.2  T
     SCC iter.                  ...        0 min,  0.048 sec
     gradient                   ...        0 min,  0.078 sec
 * total energy  :   -87.0501867 Eh     change       -0.8674896E-04 Eh
   gradient norm :     0.0050177 Eh/α   predicted    -0.5671264E-04 ( -34.62%)
   displ. norm   :     0.2907906 α      lambda       -0.1385109E-03
   maximum displ.:     0.1488566 α      in ANC's #3, #6, #9, ...

........................................................................
.............................. CYCLE   27 ..............................
........................................................................
   1    -87.8480868 -0.878481E+02  0.119E-02    0.21       0.0  T
   2    -87.8480879 -0.116837E-05  0.100E-02    0.23       1.5  T
   3    -87.8480970 -0.906535E-05  0.227E-03    0.22       6.5  T
   4    -87.8480972 -0.204266E-06  0.970E-04    0.22      15.2  T
   5    -87.8480972 -0.589147E-08  0.538E-04    0.22      27.4  T
   6    -87.8480972 -0.830995E-08  0.103E-04    0.22     142.9  T
   7    -87.8480972 -0.111611E-08  0.313E-05    0.22     471.6  T
     SCC iter.                  ...        0 min,  0.050 sec
     gradient                   ...        0 min,  0.079 sec
 * total energy  :   -87.0502915 Eh     change       -0.1048096E-03 Eh
   gradient norm :     0.0040679 Eh/α   predicted    -0.7511574E-04 ( -28.33%)
   displ. norm   :     0.2891392 α      lambda       -0.1155041E-03
   maximum displ.:     0.1609609 α      in ANC's #3, #6, #2, ...

........................................................................
.............................. CYCLE   28 ..............................
........................................................................
   1    -87.8481964 -0.878482E+02  0.123E-02    0.21       0.0  T
   2    -87.8481945  0.193134E-05  0.121E-02    0.23       1.2  T
   3    -87.8482088 -0.142852E-04  0.200E-03    0.22       7.4  T
   4    -87.8482088 -0.597145E-07  0.974E-04    0.22      15.1  T
   5    -87.8482088 -0.335802E-10  0.429E-04    0.22      34.4  T
   6    -87.8482088 -0.528459E-08  0.112E-04    0.22     131.5  T
   7    -87.8482089 -0.124136E-08  0.297E-05    0.22     497.2  T
     SCC iter.                  ...        0 min,  0.050 sec
     gradient                   ...        0 min,  0.079 sec
 * total energy  :   -87.0503753 Eh     change       -0.8384770E-04 Eh
   gradient norm :     0.0046362 Eh/α   predicted    -0.6258155E-04 ( -25.36%)
   displ. norm   :     0.2336230 α      lambda       -0.8005941E-04
   maximum displ.:     0.1373393 α      in ANC's #3, #6, #2, ...

........................................................................
.............................. CYCLE   29 ..............................
........................................................................
   1    -87.8482562 -0.878483E+02  0.695E-03    0.21       0.0  T
   2    -87.8482562 -0.337406E-07  0.624E-03    0.23       2.4  T
   3    -87.8482599 -0.368042E-05  0.162E-03    0.22       9.1  T
   4    -87.8482600 -0.107612E-06  0.779E-04    0.22      18.9  T
   5    -87.8482600 -0.591382E-08  0.251E-04    0.22      58.8  T
   6    -87.8482600 -0.601744E-09  0.580E-05    0.22     254.1  T
   7    -87.8482600 -0.117467E-09  0.171E-05    0.22     863.6  T
     SCC iter.                  ...        0 min,  0.050 sec
     gradient                   ...        0 min,  0.078 sec
 * total energy  :   -87.0504373 Eh     change       -0.6200268E-04 Eh
   gradient norm :     0.0047104 Eh/α   predicted    -0.4221962E-04 ( -31.91%)
   displ. norm   :     0.2012233 α      lambda       -0.8681030E-04
   maximum displ.:     0.1307991 α      in ANC's #3, #6, #2, ...

........................................................................
.............................. CYCLE   30 ..............................
........................................................................
   1    -87.8499099 -0.878499E+02  0.672E-03    0.22       0.0  T
   2    -87.8499114 -0.148171E-05  0.387E-03    0.22       3.8  T
   3    -87.8499116 -0.204667E-06  0.235E-03    0.22       6.3  T
   4    -87.8499116 -0.611998E-07  0.176E-03    0.22       8.4  T
   5    -87.8499118 -0.187094E-06  0.246E-04    0.22      59.9  T
   6    -87.8499118 -0.805301E-09  0.502E-05    0.22     293.7  T
   7    -87.8499118 -0.568718E-10  0.184E-05    0.22     800.6  T
     SCC iter.                  ...        0 min,  0.050 sec
     gradient                   ...        0 min,  0.078 sec
 * total energy  :   -87.0504898 Eh     change       -0.5242563E-04 Eh
   gradient norm :     0.0055576 Eh/α   predicted    -0.4516397E-04 ( -13.85%)
   displ. norm   :     0.3533295 α      lambda       -0.1095196E-03
   maximum displ.:     0.2087366 α      in ANC's #3, #6, #9, ...

........................................................................
.............................. CYCLE   31 ..............................
........................................................................
   1    -87.8468644 -0.878469E+02  0.130E-02    0.23       0.0  T
   2    -87.8468723 -0.785897E-05  0.772E-03    0.22       1.9  T
   3    -87.8468754 -0.313202E-05  0.345E-03    0.23       4.3  T
   4    -87.8468759 -0.494492E-06  0.193E-03    0.22       7.6  T
   5    -87.8468760 -0.101481E-06  0.643E-04    0.22      22.9  T
   6    -87.8468760 -0.764537E-08  0.129E-04    0.22     113.9  T
   7    -87.8468760 -0.577643E-09  0.342E-05    0.22     431.3  T
     SCC iter.                  ...        0 min,  0.048 sec
     gradient                   ...        0 min,  0.078 sec
 * total energy  :   -87.0505143 Eh     change       -0.2456602E-04 Eh
   gradient norm :     0.0054403 Eh/α   predicted    -0.6162144E-04 ( 150.84%)
   displ. norm   :     0.0797864 α      lambda       -0.7350931E-04
   maximum displ.:     0.0429904 α      in ANC's #9, #6, #2, ...

........................................................................
.............................. CYCLE   32 ..............................
........................................................................
   1    -87.8491497 -0.878491E+02  0.642E-03    0.23       0.0  T
   2    -87.8491511 -0.141149E-05  0.397E-03    0.22       3.7  T
   3    -87.8491519 -0.735729E-06  0.209E-03    0.23       7.0  T
   4    -87.8491520 -0.118338E-06  0.125E-03    0.22      11.8  T
   5    -87.8491520 -0.558946E-07  0.183E-04    0.22      80.8  T
   6    -87.8491520 -0.536801E-09  0.405E-05    0.22     364.1  T
     SCC iter.                  ...        0 min,  0.042 sec
     gradient                   ...        0 min,  0.078 sec
 * total energy  :   -87.0505578 Eh     change       -0.4348232E-04 Eh
   gradient norm :     0.0022185 Eh/α   predicted    -0.3699305E-04 ( -14.92%)
   displ. norm   :     0.0809054 α      lambda       -0.2960556E-04
   maximum displ.:     0.0578683 α      in ANC's #3, #1, #4, ...

........................................................................
.............................. CYCLE   33 ..............................
........................................................................
   1    -87.8496580 -0.878497E+02  0.320E-03    0.23       0.0  T
   2    -87.8496581 -0.133626E-07  0.331E-03    0.22       4.5  T
   3    -87.8496590 -0.959323E-06  0.778E-04    0.23      18.9  T
   4    -87.8496590  0.129603E-09  0.505E-04    0.23      29.2  T
   5    -87.8496590 -0.507347E-08  0.710E-05    0.23     207.8  T
   6    -87.8496590 -0.920863E-10  0.152E-05    0.23     970.1  T
     SCC iter.                  ...        0 min,  0.042 sec
     gradient                   ...        0 min,  0.079 sec
 * total energy  :   -87.0505809 Eh     change       -0.2310834E-04 Eh
   gradient norm :     0.0030178 Eh/α   predicted    -0.1490099E-04 ( -35.52%)
   displ. norm   :     0.1261354 α      lambda       -0.3981372E-04
   maximum displ.:     0.0895815 α      in ANC's #3, #1, #5, ...

........................................................................
.............................. CYCLE   34 ..............................
........................................................................
   1    -87.8500553 -0.878501E+02  0.502E-03    0.23       0.0  T
   2    -87.8500561 -0.807332E-06  0.477E-03    0.22       3.1  T
   3    -87.8500579 -0.179500E-05  0.108E-03    0.23      13.6  T
   4    -87.8500579 -0.358793E-08  0.772E-04    0.23      19.1  T
   5    -87.8500579 -0.179774E-07  0.243E-04    0.23      60.8  T
   6    -87.8500579 -0.556838E-09  0.423E-05    0.23     348.4  T
   7    -87.8500579 -0.619877E-10  0.135E-05    0.23    1089.4  T
     SCC iter.                  ...        0 min,  0.050 sec
     gradient                   ...        0 min,  0.079 sec
 * total energy  :   -87.0506102 Eh     change       -0.2929421E-04 Eh
   gradient norm :     0.0032473 Eh/α   predicted    -0.2022509E-04 ( -30.96%)
   displ. norm   :     0.1270349 α      lambda       -0.3054153E-04
   maximum displ.:     0.0881422 α      in ANC's #3, #1, #5, ...

........................................................................
.............................. CYCLE   35 ..............................
........................................................................
   1    -87.8496647 -0.878497E+02  0.344E-03    0.23       0.0  T
   2    -87.8496655 -0.812525E-06  0.231E-03    0.23       6.4  T
   3    -87.8496657 -0.182810E-06  0.842E-04    0.23      17.5  T
   4    -87.8496657  0.106060E-07  0.674E-04    0.23      21.9  T
   5    -87.8496657 -0.189606E-07  0.184E-04    0.23      80.2  T
   6    -87.8496657 -0.849312E-09  0.394E-05    0.23     374.6  T
     SCC iter.                  ...        0 min,  0.042 sec
     gradient                   ...        0 min,  0.079 sec
 * total energy  :   -87.0506347 Eh     change       -0.2449037E-04 Eh
   gradient norm :     0.0033132 Eh/α   predicted    -0.1552085E-04 ( -36.62%)
   displ. norm   :     0.1681877 α      lambda       -0.3862842E-04
   maximum displ.:     0.1147106 α      in ANC's #3, #1, #5, ...

........................................................................
.............................. CYCLE   36 ..............................
........................................................................
   1    -87.8490842 -0.878491E+02  0.432E-03    0.23       0.0  T
   2    -87.8490856 -0.143914E-05  0.280E-03    0.23       5.3  T
   3    -87.8490860 -0.399880E-06  0.104E-03    0.23      14.1  T
   4    -87.8490860  0.247361E-08  0.649E-04    0.23      22.7  T
   5    -87.8490860 -0.197413E-07  0.301E-04    0.23      48.9  T
   6    -87.8490861 -0.132933E-08  0.487E-05    0.23     302.9  T
   7    -87.8490861 -0.109495E-09  0.121E-05    0.23    1223.5  T
     SCC iter.                  ...        0 min,  0.048 sec
     gradient                   ...        0 min,  0.077 sec
 * total energy  :   -87.0506657 Eh     change       -0.3097179E-04 Eh
   gradient norm :     0.0025977 Eh/α   predicted    -0.1986143E-04 ( -35.87%)
   displ. norm   :     0.2621657 α      lambda       -0.4952476E-04
   maximum displ.:     0.1768998 α      in ANC's #3, #1, #5, ...

........................................................................
.............................. CYCLE   37 ..............................
........................................................................
   1    -87.8480887 -0.878481E+02  0.678E-03    0.22       0.0  T
   2    -87.8480912 -0.248315E-05  0.504E-03    0.24       2.9  T
   3    -87.8480934 -0.222773E-05  0.148E-03    0.23      10.0  T
   4    -87.8480935 -0.500717E-07  0.746E-04    0.23      19.8  T
   5    -87.8480935 -0.103705E-07  0.355E-04    0.23      41.6  T
   6    -87.8480935 -0.772928E-09  0.593E-05    0.23     248.8  T
   7    -87.8480935 -0.141412E-09  0.158E-05    0.23     935.3  T
     SCC iter.                  ...        0 min,  0.049 sec
     gradient                   ...        0 min,  0.079 sec
 * total energy  :   -87.0506998 Eh     change       -0.3409424E-04 Eh
   gradient norm :     0.0026958 Eh/α   predicted    -0.2646764E-04 ( -22.37%)
   displ. norm   :     0.1744344 α      lambda       -0.3278784E-04
   maximum displ.:     0.1124797 α      in ANC's #3, #1, #5, ...

........................................................................
.............................. CYCLE   38 ..............................
........................................................................
   1    -87.8480841 -0.878481E+02  0.476E-03    0.22       0.0  T
   2    -87.8480850 -0.823306E-06  0.387E-03    0.23       3.8  T
   3    -87.8480864 -0.148064E-05  0.921E-04    0.23      16.0  T
   4    -87.8480865 -0.238698E-07  0.468E-04    0.23      31.5  T
   5    -87.8480865 -0.289107E-08  0.207E-04    0.23      71.3  T
   6    -87.8480865 -0.102219E-09  0.412E-05    0.23     358.1  T
   7    -87.8480865 -0.603109E-10  0.109E-05    0.23    1350.8  T
     SCC iter.                  ...        0 min,  0.049 sec
     gradient                   ...        0 min,  0.076 sec
 * total energy  :   -87.0507254 Eh     change       -0.2564280E-04 Eh
   gradient norm :     0.0027640 Eh/α   predicted    -0.1689946E-04 ( -34.10%)
   displ. norm   :     0.2276758 α      lambda       -0.4412882E-04
   maximum displ.:     0.1359510 α      in ANC's #3, #1, #4, ...

........................................................................
.............................. CYCLE   39 ..............................
........................................................................
   1    -87.8483350 -0.878483E+02  0.533E-03    0.22       0.0  T
   2    -87.8483356 -0.538043E-06  0.438E-03    0.23       3.4  T
   3    -87.8483374 -0.185028E-05  0.112E-03    0.23      13.1  T
   4    -87.8483375 -0.307136E-07  0.579E-04    0.23      25.5  T
   5    -87.8483375 -0.297344E-08  0.184E-04    0.23      80.2  T
   6    -87.8483375 -0.330530E-09  0.465E-05    0.23     317.0  T
     SCC iter.                  ...        0 min,  0.041 sec
     gradient                   ...        0 min,  0.078 sec
 * total energy  :   -87.0507591 Eh     change       -0.3364551E-04 Eh
   gradient norm :     0.0029611 Eh/α   predicted    -0.2320981E-04 ( -31.02%)
   displ. norm   :     0.2264290 α      lambda       -0.4228328E-04
   maximum displ.:     0.1261534 α      in ANC's #1, #3, #4, ...

........................................................................
.............................. CYCLE   40 ..............................
........................................................................
   1    -87.8489818 -0.878490E+02  0.365E-03    0.23       0.0  T
   2    -87.8489822 -0.430306E-06  0.193E-03    0.23       7.6  T
   3    -87.8489823 -0.110336E-06  0.117E-03    0.23      12.7  T
   4    -87.8489824 -0.663806E-07  0.583E-04    0.23      25.3  T
   5    -87.8489824 -0.104323E-07  0.150E-04    0.23      98.0  T
   6    -87.8489824 -0.248619E-09  0.359E-05    0.23     410.9  T
     SCC iter.                  ...        0 min,  0.041 sec
     gradient                   ...        0 min,  0.077 sec
 * total energy  :   -87.0507913 Eh     change       -0.3223794E-04 Eh
   gradient norm :     0.0028459 Eh/α   predicted    -0.2222953E-04 ( -31.05%)
   displ. norm   :     0.2190592 α      lambda       -0.3602028E-04
   maximum displ.:     0.1236184 α      in ANC's #1, #3, #4, ...

........................................................................
.............................. CYCLE   41 ..............................
........................................................................
   1    -87.8489508 -0.878490E+02  0.320E-03    0.23       0.0  T
   2    -87.8489512 -0.328636E-06  0.156E-03    0.23       9.5  T
   3    -87.8489512 -0.650207E-07  0.103E-03    0.23      14.4  T
   4    -87.8489513 -0.505482E-07  0.374E-04    0.23      39.4  T
   5    -87.8489513 -0.241417E-08  0.142E-04    0.23     103.6  T
   6    -87.8489513 -0.603833E-09  0.262E-05    0.23     563.5  T
     SCC iter.                  ...        0 min,  0.042 sec
     gradient                   ...        0 min,  0.077 sec
 * total energy  :   -87.0508210 Eh     change       -0.2965478E-04 Eh
   gradient norm :     0.0022122 Eh/α   predicted    -0.1887894E-04 ( -36.34%)
   displ. norm   :     0.2162234 α      lambda       -0.4120327E-04
   maximum displ.:     0.1320059 α      in ANC's #1, #2, #4, ...

........................................................................
.............................. CYCLE   42 ..............................
........................................................................
   1    -87.8495698 -0.878496E+02  0.448E-03    0.24       0.0  T
   2    -87.8495705 -0.675195E-06  0.318E-03    0.23       4.6  T
   3    -87.8495713 -0.823017E-06  0.111E-03    0.24      13.3  T
   4    -87.8495714 -0.277246E-07  0.491E-04    0.23      30.0  T
   5    -87.8495714 -0.248713E-08  0.149E-04    0.23      99.2  T
   6    -87.8495714 -0.225569E-09  0.302E-05    0.23     488.6  T
     SCC iter.                  ...        0 min,  0.041 sec
     gradient                   ...        0 min,  0.077 sec
 * total energy  :   -87.0508519 Eh     change       -0.3095786E-04 Eh
   gradient norm :     0.0013307 Eh/α   predicted    -0.2156726E-04 ( -30.33%)
   displ. norm   :     0.3190730 α      lambda       -0.3019241E-04
   maximum displ.:     0.1919922 α      in ANC's #1, #3, #2, ...
 * RMSD in coord.:     0.5452534 α      energy gain  -0.1241125E-02 Eh

generating ANC from model Hessian ...
Using Lindh-Hessian (1995)
 Shifting diagonal of input Hessian by   9.840872784979339E-003
 Lowest  eigenvalues of input Hessian
    0.000000    0.000000    0.000000    0.000000    0.000000    0.000000
    0.010000    0.010150    0.010538    0.010713    0.011591    0.011847
    0.012231    0.013385    0.013988    0.014740    0.015718    0.016525
 Highest eigenvalues
    2.026714    2.100174    2.176407    2.256973    2.264512    2.397416
 

........................................................................
.............................. CYCLE   43 ..............................
........................................................................
   1    -87.8487474 -0.878487E+02  0.531E-03    0.24       0.0  T
   2    -87.8487486 -0.118635E-05  0.320E-03    0.24       4.6  T
   3    -87.8487491 -0.539103E-06  0.142E-03    0.24      10.4  T
   4    -87.8487491 -0.318790E-07  0.689E-04    0.24      21.4  T
   5    -87.8487491 -0.114529E-07  0.196E-04    0.24      75.1  T
   6    -87.8487491 -0.623913E-09  0.278E-05    0.24     530.5  T
     SCC iter.                  ...        0 min,  0.042 sec
     gradient                   ...        0 min,  0.076 sec
 * total energy  :   -87.0508822 Eh     change       -0.3026971E-04 Eh
   gradient norm :     0.0026846 Eh/α   predicted     0.0000000E+00 (-100.00%)
   displ. norm   :     0.0263797 α      lambda       -0.1606429E-04
   maximum displ.:     0.0132274 α      in ANC's #1, #3, #8, ...

........................................................................
.............................. CYCLE   44 ..............................
........................................................................
   1    -87.8492436 -0.878492E+02  0.194E-03    0.24       0.0  T
   2    -87.8492437 -0.900779E-07  0.124E-03    0.24      11.9  T
   3    -87.8492438 -0.770454E-07  0.603E-04    0.24      24.5  T
   4    -87.8492438 -0.760525E-08  0.242E-04    0.24      61.0  T
   5    -87.8492438 -0.972989E-09  0.480E-05    0.24     307.3  T
   6    -87.8492438 -0.396483E-10  0.779E-06    0.24    1893.0  T
     SCC iter.                  ...        0 min,  0.042 sec
     gradient                   ...        0 min,  0.078 sec
 * total energy  :   -87.0508969 Eh     change       -0.1468279E-04 Eh
   gradient norm :     0.0014933 Eh/α   predicted    -0.9148771E-05 ( -37.69%)
   displ. norm   :     0.1091822 α      lambda       -0.2849917E-04
   maximum displ.:     0.0560241 α      in ANC's #1, #3, #8, ...

........................................................................
.............................. CYCLE   45 ..............................
........................................................................
   1    -87.8498735 -0.878499E+02  0.554E-03    0.23       0.0  T
   2    -87.8498742 -0.720889E-06  0.422E-03    0.24       3.5  T
   3    -87.8498756 -0.144184E-05  0.130E-03    0.23      11.3  T
   4    -87.8498757 -0.239458E-07  0.572E-04    0.23      25.8  T
   5    -87.8498757 -0.185983E-08  0.163E-04    0.23      90.6  T
   6    -87.8498757 -0.449930E-09  0.230E-05    0.23     641.8  T
     SCC iter.                  ...        0 min,  0.043 sec
     gradient                   ...        0 min,  0.078 sec
 * total energy  :   -87.0509188 Eh     change       -0.2197952E-04 Eh
   gradient norm :     0.0023083 Eh/α   predicted    -0.1432552E-04 ( -34.82%)
   displ. norm   :     0.0350727 α      lambda       -0.9893624E-05
   maximum displ.:     0.0201690 α      in ANC's #1, #3, #2, ...

........................................................................
.............................. CYCLE   46 ..............................
........................................................................
   1    -87.8495905 -0.878496E+02  0.109E-03    0.23       0.0  T
   2    -87.8495905 -0.513073E-07  0.477E-04    0.23      30.9  T
   3    -87.8495905 -0.384848E-08  0.259E-04    0.23      57.0  T
   4    -87.8495905  0.372182E-10  0.143E-04    0.23     102.7  T
   5    -87.8495906 -0.840075E-09  0.502E-05    0.23     293.8  T
     SCC iter.                  ...        0 min,  0.030 sec
     gradient                   ...        0 min,  0.068 sec
 * total energy  :   -87.0509275 Eh     change       -0.8681050E-05 Eh
   gradient norm :     0.0018151 Eh/α   predicted    -0.4953625E-05 ( -42.94%)
   displ. norm   :     0.1416415 α      lambda       -0.2214575E-04
   maximum displ.:     0.0816830 α      in ANC's #1, #2, #3, ...

........................................................................
.............................. CYCLE   47 ..............................
........................................................................
   1    -87.8485863 -0.878486E+02  0.428E-03    0.24       0.0  T
   2    -87.8485871 -0.756687E-06  0.246E-03    0.23       6.0  T
   3    -87.8485874 -0.346039E-06  0.129E-03    0.23      11.5  T
   4    -87.8485875 -0.639079E-07  0.670E-04    0.23      22.0  T
   5    -87.8485875 -0.734541E-08  0.164E-04    0.23      90.1  T
   6    -87.8485875 -0.525574E-09  0.361E-05    0.23     408.2  T
     SCC iter.                  ...        0 min,  0.038 sec
     gradient                   ...        0 min,  0.071 sec
 * total energy  :   -87.0509440 Eh     change       -0.1650476E-04 Eh
   gradient norm :     0.0017507 Eh/α   predicted    -0.1117308E-04 ( -32.30%)
   displ. norm   :     0.0366374 α      lambda       -0.4981733E-05
   maximum displ.:     0.0248761 α      in ANC's #1, #2, #5, ...

........................................................................
.............................. CYCLE   48 ..............................
........................................................................
   1    -87.8488732 -0.878489E+02  0.136E-03    0.23       0.0  T
   2    -87.8488732 -0.306839E-07  0.102E-03    0.23      14.5  T
   3    -87.8488733 -0.971966E-07  0.290E-04    0.23      50.8  T
   4    -87.8488733 -0.174549E-08  0.100E-04    0.23     147.5  T
   5    -87.8488733 -0.989786E-10  0.317E-05    0.23     465.7  T
     SCC iter.                  ...        0 min,  0.028 sec
     gradient                   ...        0 min,  0.069 sec
 * total energy  :   -87.0509505 Eh     change       -0.6483663E-05 Eh
   gradient norm :     0.0011673 Eh/α   predicted    -0.2497965E-05 ( -61.47%)
   displ. norm   :     0.0889564 α      lambda       -0.1193614E-04
   maximum displ.:     0.0594352 α      in ANC's #1, #2, #5, ...

........................................................................
.............................. CYCLE   49 ..............................
........................................................................
   1    -87.8495928 -0.878496E+02  0.324E-03    0.24       0.0  T
   2    -87.8495930 -0.204162E-06  0.212E-03    0.23       6.9  T
   3    -87.8495934 -0.368167E-06  0.789E-04    0.24      18.7  T
   4    -87.8495934 -0.170411E-07  0.272E-04    0.24      54.2  T
   5    -87.8495934 -0.337181E-09  0.850E-05    0.24     173.5  T
   6    -87.8495934 -0.284942E-09  0.151E-05    0.24     973.9  T
     SCC iter.                  ...        0 min,  0.036 sec
     gradient                   ...        0 min,  0.068 sec
 * total energy  :   -87.0509624 Eh     change       -0.1193471E-04 Eh
   gradient norm :     0.0008568 Eh/α   predicted    -0.5993984E-05 ( -49.78%)
   displ. norm   :     0.0938774 α      lambda       -0.6620759E-05
   maximum displ.:     0.0631575 α      in ANC's #1, #2, #9, ...

........................................................................
.............................. CYCLE   50 ..............................
........................................................................
   1    -87.8495783 -0.878496E+02  0.151E-03    0.24       0.0  T
   2    -87.8495784 -0.551321E-07  0.943E-04    0.23      15.6  T
   3    -87.8495784 -0.764161E-07  0.356E-04    0.24      41.4  T
   4    -87.8495784 -0.407519E-08  0.117E-04    0.24     125.7  T
   5    -87.8495784 -0.857483E-10  0.508E-05    0.24     290.5  T
     SCC iter.                  ...        0 min,  0.031 sec
     gradient                   ...        0 min,  0.069 sec
 * total energy  :   -87.0509702 Eh     change       -0.7706231E-05 Eh
   gradient norm :     0.0012450 Eh/α   predicted    -0.3323756E-05 ( -56.87%)
   displ. norm   :     0.0912501 α      lambda       -0.5871502E-05
   maximum displ.:     0.0617829 α      in ANC's #1, #2, #9, ...

........................................................................
.............................. CYCLE   51 ..............................
........................................................................
   1    -87.8494847 -0.878495E+02  0.771E-04    0.23       0.0  T
   2    -87.8494847 -0.129835E-07  0.481E-04    0.24      30.6  T
   3    -87.8494847 -0.729625E-08  0.239E-04    0.24      61.6  T
   4    -87.8494847 -0.140227E-08  0.107E-04    0.24     138.1  T
   5    -87.8494847 -0.338730E-09  0.234E-05    0.24     629.8  T
     SCC iter.                  ...        0 min,  0.031 sec
     gradient                   ...        0 min,  0.071 sec
 * total energy  :   -87.0509779 Eh     change       -0.7717149E-05 Eh
   gradient norm :     0.0010480 Eh/α   predicted    -0.2947418E-05 ( -61.81%)
   displ. norm   :     0.1170817 α      lambda       -0.7961096E-05
   maximum displ.:     0.0795532 α      in ANC's #1, #2, #9, ...

........................................................................
.............................. CYCLE   52 ..............................
........................................................................
   1    -87.8492604 -0.878493E+02  0.192E-03    0.23       0.0  T
   2    -87.8492605 -0.881118E-07  0.151E-03    0.24       9.8  T
   3    -87.8492607 -0.180477E-06  0.399E-04    0.23      36.9  T
   4    -87.8492607 -0.171116E-08  0.179E-04    0.23      82.6  T
   5    -87.8492607 -0.436373E-09  0.549E-05    0.23     268.5  T
     SCC iter.                  ...        0 min,  0.031 sec
     gradient                   ...        0 min,  0.073 sec
 * total energy  :   -87.0509879 Eh     change       -0.1006359E-04 Eh
   gradient norm :     0.0005419 Eh/α   predicted    -0.4006105E-05 ( -60.19%)
   displ. norm   :     0.1414855 α      lambda       -0.8532374E-05
   maximum displ.:     0.0961693 α      in ANC's #1, #2, #9, ...

........................................................................
.............................. CYCLE   53 ..............................
........................................................................
   1    -87.8490233 -0.878490E+02  0.237E-03    0.23       0.0  T
   2    -87.8490235 -0.145740E-06  0.188E-03    0.24       7.9  T
   3    -87.8490238 -0.292713E-06  0.465E-04    0.23      31.7  T
   4    -87.8490238 -0.312447E-08  0.213E-04    0.23      69.2  T
   5    -87.8490238 -0.746610E-09  0.764E-05    0.23     193.1  T
   6    -87.8490238 -0.430020E-10  0.150E-05    0.23     980.3  T
     SCC iter.                  ...        0 min,  0.036 sec
     gradient                   ...        0 min,  0.067 sec
 * total energy  :   -87.0509982 Eh     change       -0.1024000E-04 Eh
   gradient norm :     0.0008122 Eh/α   predicted    -0.4306577E-05 ( -57.94%)
   displ. norm   :     0.1272911 α      lambda       -0.7191014E-05
   maximum displ.:     0.0864895 α      in ANC's #1, #2, #9, ...

........................................................................
.............................. CYCLE   54 ..............................
........................................................................
   1    -87.8489406 -0.878489E+02  0.183E-03    0.23       0.0  T
   2    -87.8489407 -0.989902E-07  0.140E-03    0.23      10.5  T
   3    -87.8489409 -0.161121E-06  0.378E-04    0.23      39.0  T
   4    -87.8489409 -0.295734E-08  0.174E-04    0.23      84.9  T
   5    -87.8489409 -0.734175E-09  0.637E-05    0.23     231.6  T
     SCC iter.                  ...        0 min,  0.030 sec
     gradient                   ...        0 min,  0.068 sec
 * total energy  :   -87.0510076 Eh     change       -0.9426580E-05 Eh
   gradient norm :     0.0011403 Eh/α   predicted    -0.3622642E-05 ( -61.57%)
   displ. norm   :     0.1611663 α      lambda       -0.1001342E-04
   maximum displ.:     0.1081625 α      in ANC's #1, #2, #3, ...

........................................................................
.............................. CYCLE   55 ..............................
........................................................................
   1    -87.8489187 -0.878489E+02  0.163E-03    0.23       0.0  T
   2    -87.8489188 -0.995635E-07  0.104E-03    0.23      14.2  T
   3    -87.8489189 -0.611078E-07  0.435E-04    0.23      33.9  T
   4    -87.8489189 -0.541550E-08  0.212E-04    0.23      69.7  T
   5    -87.8489189 -0.193847E-08  0.647E-05    0.23     227.8  T
   6    -87.8489189 -0.221263E-10  0.137E-05    0.23    1078.7  T
     SCC iter.                  ...        0 min,  0.036 sec
     gradient                   ...        0 min,  0.068 sec
 * total energy  :   -87.0510211 Eh     change       -0.1353093E-04 Eh
   gradient norm :     0.0012638 Eh/α   predicted    -0.5067348E-05 ( -62.55%)
   displ. norm   :     0.2373660 α      lambda       -0.1502596E-04
   maximum displ.:     0.1584223 α      in ANC's #1, #2, #3, ...

........................................................................
.............................. CYCLE   56 ..............................
........................................................................
   1    -87.8488071 -0.878488E+02  0.191E-03    0.23       0.0  T
   2    -87.8488073 -0.145735E-06  0.101E-03    0.23      14.7  T
   3    -87.8488073 -0.225949E-07  0.449E-04    0.23      32.9  T
   4    -87.8488073 -0.150546E-08  0.181E-04    0.23      81.4  T
   5    -87.8488073 -0.948418E-09  0.889E-05    0.23     165.8  T
     SCC iter.                  ...        0 min,  0.028 sec
     gradient                   ...        0 min,  0.063 sec
 * total energy  :   -87.0510398 Eh     change       -0.1866237E-04 Eh
   gradient norm :     0.0011796 Eh/α   predicted    -0.7705894E-05 ( -58.71%)
   displ. norm   :     0.2288384 α      lambda       -0.1332108E-04
   maximum displ.:     0.1529347 α      in ANC's #1, #2, #3, ...

........................................................................
.............................. CYCLE   57 ..............................
........................................................................
   1    -87.8489757 -0.878490E+02  0.179E-03    0.23       0.0  T
   2    -87.8489758 -0.105335E-06  0.115E-03    0.23      12.8  T
   3    -87.8489758 -0.474565E-07  0.527E-04    0.23      28.0  T
   4    -87.8489758 -0.126570E-08  0.247E-04    0.23      59.7  T
   5    -87.8489758 -0.368426E-08  0.758E-05    0.23     194.6  T
   6    -87.8489758 -0.219487E-09  0.168E-05    0.23     879.7  T
     SCC iter.                  ...        0 min,  0.035 sec
     gradient                   ...        0 min,  0.065 sec
 * total energy  :   -87.0510559 Eh     change       -0.1612482E-04 Eh
   gradient norm :     0.0008918 Eh/α   predicted    -0.6817204E-05 ( -57.72%)
   displ. norm   :     0.2042568 α      lambda       -0.1020210E-04
   maximum displ.:     0.1374273 α      in ANC's #1, #2, #3, ...

........................................................................
.............................. CYCLE   58 ..............................
........................................................................
   1    -87.8491099 -0.878491E+02  0.181E-03    0.24       0.0  T
   2    -87.8491100 -0.109750E-06  0.143E-03    0.23      10.3  T
   3    -87.8491101 -0.124809E-06  0.479E-04    0.23      30.8  T
   4    -87.8491101 -0.822382E-10  0.247E-04    0.23      59.7  T
   5    -87.8491101 -0.213798E-08  0.618E-05    0.23     238.5  T
   6    -87.8491101 -0.115719E-09  0.154E-05    0.23     958.3  T
     SCC iter.                  ...        0 min,  0.035 sec
     gradient                   ...        0 min,  0.066 sec
 * total energy  :   -87.0510685 Eh     change       -0.1253809E-04 Eh
   gradient norm :     0.0006362 Eh/α   predicted    -0.5200496E-05 ( -58.52%)
   displ. norm   :     0.1764714 α      lambda       -0.9157648E-05
   maximum displ.:     0.1188775 α      in ANC's #1, #3, #2, ...

........................................................................
.............................. CYCLE   59 ..............................
........................................................................
   1    -87.8494626 -0.878495E+02  0.178E-03    0.24       0.0  T
   2    -87.8494627 -0.116249E-06  0.142E-03    0.23      10.4  T
   3    -87.8494628 -0.120782E-06  0.439E-04    0.24      33.6  T
   4    -87.8494628  0.336470E-09  0.237E-04    0.24      62.3  T
   5    -87.8494628 -0.183668E-08  0.625E-05    0.24     236.1  T
   6    -87.8494628 -0.137760E-09  0.130E-05    0.24    1130.8  T
     SCC iter.                  ...        0 min,  0.036 sec
     gradient                   ...        0 min,  0.067 sec
 * total energy  :   -87.0510800 Eh     change       -0.1153489E-04 Eh
   gradient norm :     0.0007611 Eh/α   predicted    -0.4644554E-05 ( -59.73%)
   displ. norm   :     0.1979205 α      lambda       -0.9823846E-05
   maximum displ.:     0.1335688 α      in ANC's #1, #2, #3, ...

........................................................................
.............................. CYCLE   60 ..............................
........................................................................
   1    -87.8493838 -0.878494E+02  0.157E-03    0.24       0.0  T
   2    -87.8493839 -0.122454E-06  0.102E-03    0.24      14.5  T
   3    -87.8493839 -0.389512E-07  0.402E-04    0.24      36.7  T
   4    -87.8493839  0.690349E-09  0.230E-04    0.24      64.0  T
   5    -87.8493839 -0.210531E-08  0.694E-05    0.24     212.5  T
   6    -87.8493839 -0.208544E-09  0.132E-05    0.24    1115.9  T
     SCC iter.                  ...        0 min,  0.035 sec
     gradient                   ...        0 min,  0.068 sec
 * total energy  :   -87.0510927 Eh     change       -0.1273892E-04 Eh
   gradient norm :     0.0008164 Eh/α   predicted    -0.5001333E-05 ( -60.74%)
   displ. norm   :     0.2282632 α      lambda       -0.1208379E-04
[...]
 
 selected dihedral angles (degree)
 ---------------------------------
C3-O2-C1-H27= 65.32           C3-O2-C1-H28=304.67           C3-O2-C1-H29=184.80           O4-C3-O2-C1=358.21            
C5-C3-O2-C1=171.42            C6-C5-C3-O2= 38.05            C6-C5-C3-O4=211.00            N7-C5-C3-O2=158.74            
N7-C5-C3-O4=331.69            C25-C5-C3-O2=276.12           C25-C5-C3-O4= 89.07           H30-C6-C5-C3=299.99           
H30-C6-C5-N7=179.46           H30-C6-C5-C25= 55.40          H31-C6-C5-C3= 60.64           H31-C6-C5-N7=300.11           
H31-C6-C5-C25=176.05          H32-C6-C5-C3=180.08           H32-C6-C5-N7= 59.55           H32-C6-C5-C25=295.49          
C8-N7-C5-C3= 84.73            C8-N7-C5-C6=207.17            C8-N7-C5-C25=332.77           C9-C8-N7-C5=184.17            
N21-C8-N7-C5=  4.95           C10-C9-C8-N7=  4.80           C10-C9-C8-N21=184.05          C11-C9-C8-N7=244.35           
C11-C9-C8-N21= 63.60          N12-C9-C8-N7=122.03           N12-C9-C8-N21=301.28          H33-C10-C9-C8=178.19          
H33-C10-C9-C11=299.61         H33-C10-C9-N12= 60.82         H34-C10-C9-C8= 57.72          H34-C10-C9-C11=179.14         
H34-C10-C9-N12=300.36         H35-C10-C9-C8=298.16          H35-C10-C9-C11= 59.57         H35-C10-C9-N12=180.79         
           -------------------------------------------------
          |                Final Singlepoint                |
           -------------------------------------------------

          ...................................................
          :                      SETUP                      :
          :.................................................:
          :  # basis functions                 144          :
          :  # atomic orbitals                 144          :
          :  # shells                           92          :
          :  # electrons                       142          :
          :  # halogen bonds                     0          :
          :  max. iterations                   250          :
          :  Hamiltonian                  GFN1-xTB          :
          :  restarted?                      false          :
          :  GBSA solvation                   true          :
          :  PC potential                    false          :
          :  electronic temp.          300.0000000     K    :
          :  accuracy                    1.0000000          :
          :  -> integral cutoff          0.2500000E+02      :
          :  -> integral neglect         0.1000000E-07      :
          :  -> SCF convergence          0.1000000E-05 Eh   :
          :  -> wf. convergence          0.2000000E-04 e    :
          :  Broyden damping             0.4000000          :
          ...................................................

 iter      E             dE          RMSdq      gap      omega  full diag
   1    -87.8490412 -0.878490E+02  0.106E-05    0.24       0.0  T
   2    -87.8490412 -0.129319E-11  0.546E-06    0.24    2699.7  T
   3    -87.8490412  0.127898E-12  0.310E-06    0.24    4753.6  T

   *** convergence criteria satisfied after 3 iterations ***

         #    Occupation            Energy/Eh            Energy/eV
      -------------------------------------------------------------
         1        2.0000           -0.8579604             -23.3463
       ...           ...                  ...                  ...
        65        2.0000           -0.4423846             -12.0379
        66        2.0000           -0.4351524             -11.8411
        67        2.0000           -0.4311931             -11.7334
        68        2.0000           -0.3931315             -10.6977
        69        2.0000           -0.3844741             -10.4621
        70        2.0000           -0.3718567             -10.1187
        71        1.9818           -0.3098575              -8.4317 (HOMO)
        72        0.0182           -0.3009467              -8.1892 (LUMO)
        73                         -0.2507424              -6.8230
        74                         -0.2337177              -6.3598
        75                         -0.2192348              -5.9657
        76                         -0.1889532              -5.1417
       ...                                ...                  ...
       144                          0.7300194              19.8648
      -------------------------------------------------------------
                  HL-Gap            0.0089107 Eh            0.2425 eV
             Fermi-level           -0.3054021 Eh           -8.3104 eV

 SCC (total)                   0 d,  0 h,  0 min,  0.110 sec
 SCC setup                      ...        0 min,  0.002 sec (  1.876%)
 Dispersion                     ...        0 min,  0.000 sec (  0.256%)
 classical contributions        ...        0 min,  0.000 sec (  0.094%)
 integral evaluation            ...        0 min,  0.033 sec ( 30.371%)
 iterations                     ...        0 min,  0.022 sec ( 19.634%)
 molecular gradient             ...        0 min,  0.052 sec ( 47.009%)
 printout                       ...        0 min,  0.001 sec (  0.734%)

         :::::::::::::::::::::::::::::::::::::::::::::::::::::
         ::                     SUMMARY                     ::
         :::::::::::::::::::::::::::::::::::::::::::::::::::::
         :: total energy             -87.051276112468 Eh    ::
         :: total w/o Gsasa/hb       -87.027980330937 Eh    ::
         :: gradient norm              0.000674677739 Eh/a0 ::
         :: HOMO-LUMO gap              0.242473050254 eV    ::
         ::.................................................::
         :: SCC energy               -87.849041158791 Eh    ::
         :: -> electrostatic           0.464769870422 Eh    ::
         :: -> Gsolv                  -0.112548457216 Eh    ::
         ::    -> Gelec               -0.089252675685 Eh    ::
         ::    -> Gsasa               -0.024980609099 Eh    ::
         ::    -> Ghb                 -0.005939451437 Eh    ::
         ::    -> Gshift               0.007624279005 Eh    ::
         :: repulsion energy           0.827884231644 Eh    ::
         :: dispersion energy         -0.030119185320 Eh    ::
         :: halogen bond corr.         0.000000000000 Eh    ::
         :: add. restraining           0.000000000000 Eh    ::
         :: total charge              -1.000000000000 e     ::
         :::::::::::::::::::::::::::::::::::::::::::::::::::::

           -------------------------------------------------
          |                Property Printout                |
           -------------------------------------------------

    * Orbital Energies and Occupations

         #    Occupation            Energy/Eh            Energy/eV
      -------------------------------------------------------------
         1        2.0000           -0.8579604             -23.3463
       ...           ...                  ...                  ...
        59        2.0000           -0.4716245             -12.8336
        60        2.0000           -0.4666868             -12.6992
        61        2.0000           -0.4624301             -12.5834
        62        2.0000           -0.4556214             -12.3981
        63        2.0000           -0.4519245             -12.2975
        64        2.0000           -0.4506662             -12.2633
        65        2.0000           -0.4423846             -12.0379
        66        2.0000           -0.4351524             -11.8411
        67        2.0000           -0.4311931             -11.7334
        68        2.0000           -0.3931315             -10.6977
        69        2.0000           -0.3844741             -10.4621
        70        2.0000           -0.3718567             -10.1187
        71        1.9818           -0.3098575              -8.4317 (HOMO)
        72        0.0182           -0.3009467              -8.1892 (LUMO)
        73                         -0.2507424              -6.8230
        74                         -0.2337177              -6.3598
        75                         -0.2192348              -5.9657
        76                         -0.1889532              -5.1417
        77                         -0.1393110              -3.7908
        78                         -0.1306065              -3.5540
        79                         -0.1266885              -3.4474
        80                         -0.1147272              -3.1219
        81                         -0.1071922              -2.9168
        82                         -0.1007057              -2.7403
       ...                                ...                  ...
       144                          0.7300194              19.8648
      -------------------------------------------------------------
                  HL-Gap            0.0089107 Eh            0.2425 eV
             Fermi-level           -0.3054021 Eh           -8.3104 eV

  Mulliken/CM5 charges         n(s)   n(p)   n(d)
     1C     0.17044  0.05045   0.974  2.856  0.000
     2O    -0.43112 -0.51935   1.690  4.741  0.000
     3C     0.54354  0.60735   0.998  2.458  0.000
     4O    -0.59947 -0.64408   1.732  4.867  0.000
     5C     0.13835  0.19149   1.058  2.804  0.000
     6C    -0.08374 -0.22091   1.008  3.076  0.000
     7N    -0.47200 -0.65877   1.547  3.925  0.000
     8C     0.27687  0.43227   1.012  2.711  0.000
     9C     0.15216  0.19180   1.069  2.779  0.000
    10C    -0.08957 -0.22676   1.015  3.075  0.000
    11C    -0.09827 -0.23870   1.015  3.083  0.000
    12N    -0.32698 -0.68573   1.434  3.893  0.000
    13C     0.46170  0.57043   0.975  2.563  0.000
    14O    -0.59022 -0.63459   1.728  4.862  0.000
    15C     0.32877  0.45390   1.011  2.660  0.000
    16N    -0.23263 -0.33613   1.568  3.665  0.000
    17N    -0.27475 -0.38253   1.565  3.709  0.000
    18C     0.38906  0.49773   1.006  2.605  0.000
    19C    -0.11049 -0.24790   1.011  3.099  0.000
    20O    -0.35822 -0.41501   1.697  4.661  0.000
    21N    -0.28680 -0.52708   1.454  3.833  0.000
    22C     0.06673 -0.01950   0.980  2.954  0.000
    23C     0.35110  0.43724   0.981  2.668  0.000
    24O    -0.72286 -0.76737   1.749  4.973  0.000
    25C     0.04221  0.07012   0.999  2.959  0.000
    26O    -0.59472 -0.78899   1.714  4.881  0.000
    27H     0.03708  0.09819   0.963  0.000  0.000
    28H     0.04166  0.10364   0.958  0.000  0.000
    29H     0.03961  0.09978   0.960  0.000  0.000
    30H     0.03406  0.09449   0.966  0.000  0.000
    31H     0.01866  0.07508   0.981  0.000  0.000
    32H     0.02590  0.08221   0.974  0.000  0.000
    33H     0.03783  0.09726   0.962  0.000  0.000
    34H     0.03279  0.09294   0.967  0.000  0.000
    35H     0.03317  0.09139   0.967  0.000  0.000
    36H     0.04739  0.10677   0.953  0.000  0.000
    37H     0.03533  0.09052   0.965  0.000  0.000
    38H     0.03916  0.09800   0.961  0.000  0.000
    39H     0.25315  0.46002   0.747  0.000  0.000
    40H     0.06633  0.12223   0.934  0.000  0.000
    41H     0.07743  0.13192   0.923  0.000  0.000
    42H     0.07698  0.13144   0.923  0.000  0.000
    43H     0.03038  0.09403   0.970  0.000  0.000
    44H     0.02038  0.09266   0.980  0.000  0.000
    45H     0.04475  0.11185   0.955  0.000  0.000
    46H     0.35887  0.53623   0.641  0.000  0.000

Wiberg/Mayer (AO) data.
largest (>0.10) Wiberg bond orders for each atom

 ---------------------------------------------------------------------------
     #   Z sym  total        # sym  WBO       # sym  WBO       # sym  WBO
 ---------------------------------------------------------------------------
     1   6 C    3.890 --    29 H    0.987    27 H    0.981    28 H    0.981
                             2 O    0.912
     2   8 O    2.173 --     3 C    1.071     1 C    0.912     4 O    0.116
     3   6 C    3.812 --     4 O    1.633     2 O    1.071     5 C    0.917
     4   8 O    1.893 --     3 C    1.633     2 O    0.116
     5   6 C    3.966 --     6 C    0.989     7 N    0.974    25 C    0.956
                             3 C    0.917
     6   6 C    3.996 --     5 C    0.989    31 H    0.988    32 H    0.987
                            30 H    0.985
     7   7 N    2.977 --     8 C    1.647     5 C    0.974    21 N    0.173
     8   6 C    3.950 --     7 N    1.647    21 N    1.201     9 C    0.961
     9   6 C    3.926 --    10 C    0.992    11 C    0.990     8 C    0.961
                            12 N    0.911
    10   6 C    3.993 --     9 C    0.992    35 H    0.985    34 H    0.984
                            33 H    0.984
    11   6 C    3.992 --     9 C    0.990    37 H    0.986    38 H    0.982
                            36 H    0.981
    12   7 N    3.371 --    13 C    1.275     9 C    0.911    39 H    0.899
                            14 O    0.179
    13   6 C    3.915 --    14 O    1.566    12 N    1.275    15 C    0.990
    14   8 O    1.882 --    13 C    1.566    12 N    0.179
    15   6 C    3.862 --    16 N    1.618    20 O    1.046    13 C    0.990
    16   7 N    2.986 --    15 C    1.618    17 N    1.194
    17   7 N    2.980 --    18 C    1.615    16 N    1.194
    18   6 C    3.868 --    17 N    1.615    20 O    1.072    19 C    1.031
    19   6 C    3.987 --    18 C    1.031    40 H    0.983    41 H    0.964
                            42 H    0.964
    20   8 O    2.312 --    18 C    1.072    15 C    1.046
    21   7 N    3.364 --     8 C    1.201    22 C    0.957    23 C    0.894
                             7 N    0.173
    22   6 C    3.958 --    44 H    0.982    45 H    0.980    43 H    0.979
                            21 N    0.957
    23   6 C    3.915 --    25 C    1.511    24 O    1.361    21 N    0.894
    24   8 O    1.721 --    23 C    1.361    25 C    0.164
    25   6 C    3.789 --    23 C    1.511     5 C    0.956    26 O    0.949
                            24 O    0.164
    26   8 O    1.919 --    25 C    0.949    46 H    0.855
    27   1 H    1.011 --     1 C    0.981
    28   1 H    1.011 --     1 C    0.981
    29   1 H    1.014 --     1 C    0.987
    30   1 H    1.016 --     6 C    0.985
    31   1 H    1.010 --     6 C    0.988
    32   1 H    1.012 --     6 C    0.987
    33   1 H    1.009 --    10 C    0.984
    34   1 H    1.018 --    10 C    0.984
    35   1 H    1.018 --    10 C    0.985
    36   1 H    1.015 --    11 C    0.981
    37   1 H    1.004 --    11 C    0.986
    38   1 H    1.006 --    11 C    0.982
    39   1 H    0.948 --    12 N    0.899
    40   1 H    0.999 --    19 C    0.983
    41   1 H    0.997 --    19 C    0.964
    42   1 H    0.997 --    19 C    0.964
    43   1 H    1.015 --    22 C    0.979
    44   1 H    1.013 --    22 C    0.982
    45   1 H    1.022 --    22 C    0.980
    46   1 H    0.890 --    26 O    0.855
 ---------------------------------------------------------------------------

Topologies differ in total number of bonds
Writing topology from bond orders to xtbtopo.mol

 dipole moment from electron density (au)
     X       Y       Z   
   1.3584   2.7219   1.7621  total (Debye):    8.936

           -------------------------------------------------
          |                Geometry Summary                 |
           -------------------------------------------------

      molecular mass/u    :      366.3497991
   center of mass at/Å    :        0.2012009      -0.0146364      -0.0018013
  moments of inertia/u·Å² :        0.1534939E+04   0.4211759E+04   0.4682879E+04
rotational constants/cm⁻¹ :        0.1098261E-01   0.4002516E-02   0.3599844E-02

 * 38 selected distances

     #   Z          #   Z                                           value/Å
     1   6 C        2   8 O                                       1.4253171
     2   8 O        3   6 C                                       1.3490865
     3   6 C        4   8 O                                       1.2171638
     5   6 C        6   6 C                                       1.5325904
     7   7 N        8   6 C                                       1.2865201
     9   6 C       10   6 C                                       1.5362925 (max)
     9   6 C       11   6 C                                       1.5353057
     9   6 C       12   7 N                                       1.4716171
    12   7 N       13   6 C                                       1.3440132
    13   6 C       14   8 O                                       1.2235608
    15   6 C       16   7 N                                       1.2986978
    17   7 N       18   6 C                                       1.2963613
    18   6 C       19   6 C                                       1.4792972
    15   6 C       20   8 O                                       1.3517835
    18   6 C       20   8 O                                       1.3437795
     8   6 C       21   7 N                                       1.3613100
    21   7 N       22   6 C                                       1.4569520
    23   6 C       25   6 C                                       1.3589111
     1   6 C       27   1 H                                       1.0940458
     1   6 C       28   1 H                                       1.0941891
     1   6 C       29   1 H                                       1.0890966
     6   6 C       30   1 H                                       1.0887782
     6   6 C       31   1 H                                       1.0895061
     6   6 C       32   1 H                                       1.0895436
    10   6 C       33   1 H                                       1.0888136
    10   6 C       34   1 H                                       1.0891156
    10   6 C       35   1 H                                       1.0886278
    11   6 C       36   1 H                                       1.0886993
    11   6 C       37   1 H                                       1.0896983
    11   6 C       38   1 H                                       1.0871072
    12   7 N       39   1 H                                       1.0097493
    19   6 C       40   1 H                                       1.0870442
    19   6 C       41   1 H                                       1.0897804
    19   6 C       42   1 H                                       1.0898817
    22   6 C       43   1 H                                       1.0942904
    22   6 C       44   1 H                                       1.0861156
    22   6 C       45   1 H                                       1.0923009
    26   8 O       46   1 H                                       0.9684445 (min)

 * 6 distinct bonds (by element types)

   Z      Z             #   av. dist./Å        max./Å        min./Å
   1 H    6 C          18     1.0898130     1.0942904     1.0861156
   6 C    6 C           5     1.4884794     1.5362925     1.3589111
   1 H    7 N           1     1.0097493     1.0097493     1.0097493
   6 C    7 N           7     1.3593531     1.4716171     1.2865201
   1 H    8 O           1     0.9684445     0.9684445     0.9684445
   6 C    8 O           6     1.3184485     1.4253171     1.2171638


optimized geometry written to: xtbopt.xyz


           -------------------------------------------------
          | TOTAL ENERGY              -87.051276112468 Eh   |
          | GRADIENT NORM               0.000674677739 Eh/α |
          | HOMO-LUMO GAP               0.242473050254 eV   |
           -------------------------------------------------

------------------------------------------------------------------------
 * finished run on 2023/06/20 at 15:18:02.243     
------------------------------------------------------------------------
 total:
 * wall-time:     0 d,  0 h,  0 min, 11.540 sec
 *  cpu-time:     0 d,  0 h,  0 min, 11.447 sec
 * ratio c/w:     0.992 speedup
 SCF:
 * wall-time:     0 d,  0 h,  0 min,  0.224 sec
 *  cpu-time:     0 d,  0 h,  0 min,  0.220 sec
 * ratio c/w:     0.982 speedup
 ANC optimizer:
 * wall-time:     0 d,  0 h,  0 min, 11.204 sec
 *  cpu-time:     0 d,  0 h,  0 min, 11.185 sec
 * ratio c/w:     0.998 speedup

