33
 energy: -58.508711513751 gnorm: 0.000665727712 xtb: 6.5.1 (579679a)
C            4.20556162481585        0.52676229153734        1.38607632374344
O            2.88642760699336        0.44144744531816        0.88212665579006
C            2.68338896177356       -0.60350193292355       -0.05365522757644
O            3.66006443121823       -1.35424177304102       -0.32200879612928
C            1.42156059397496       -0.71047270671208       -0.60052155016351
C            1.08420959276437       -1.80496944437730       -1.53892194253433
O            2.09003004494571       -2.21099557787082       -2.44322000961650
C           -0.16022569467991       -2.32379187532138       -1.56600217689236
O           -0.78548700531806       -3.16828204174772       -2.26307644232870
N           -1.03230746707592       -1.64719055221544       -0.50053651128816
C           -0.90350162275566       -0.32686609180714       -0.28321426780717
C           -2.15275730182742        0.49080866150716        0.05312958585082
C           -2.09396146197919        0.93095478616878        1.52291998429843
C           -3.44317200299655       -0.31703378352575       -0.15936645123944
N           -2.20891981188710        1.67961359526908       -0.80336941493329
N            0.32291396032730        0.15901053507057       -0.28374475297291
C            0.63475625001243        1.57252198042374       -0.08570609526168
H            4.93247059158743        0.68825624087912        0.57953029132318
H            4.23700321617235        1.37553039267971        2.07174706872200
H            4.48653815822097       -0.38516104619767        1.92910476430066
H            2.93669242468873       -2.13195316506257       -1.95660832083323
H           -1.97560879617149       -1.99868272256345       -0.56116577895433
H           -1.27434220197850        1.62476001980924        1.69702562967966
H           -1.96359549897673        0.06110980145447        2.16622280561171
H           -3.02500012443675        1.42691434713481        1.79246771683140
H           -3.51279433077082       -1.14695644502145        0.54263859871861
H           -4.29364129618763        0.34111901028518        0.00974144494629
H           -3.50555293974901       -0.69401554118123       -1.17950037758338
H           -2.50804686481551        1.41161891013619       -1.73184856264861
H           -2.90668387136902        2.30888264725910       -0.43564962994688
H            1.52508660004820        1.81998045530339       -0.66301321656067
H            0.83015209550782        1.77120073658758        0.96854817198083
H           -0.19125686007694        2.19362284274286       -0.42494451652780
