      -----------------------------------------------------------      
     |                   =====================                   |     
     |                           x T B                           |     
     |                   =====================                   |     
     |                         S. Grimme                         |     
     |          Mulliken Center for Theoretical Chemistry        |     
     |                    University of Bonn                     |     
      -----------------------------------------------------------      

   * xtb version 6.5.1 (579679a) compiled by 'ehlert@majestix' on 2022-07-11

   xtb is free software: you can redistribute it and/or modify it under
   the terms of the GNU Lesser General Public License as published by
   the Free Software Foundation, either version 3 of the License, or
   (at your option) any later version.
   
   xtb is distributed in the hope that it will be useful,
   but WITHOUT ANY WARRANTY; without even the implied warranty of
   MERCHANTABILITY or FITNESS FOR A PARTICULAR PURPOSE.  See the
   GNU Lesser General Public License for more details.
   
   Cite this work as:
   * C. Bannwarth, E. Caldeweyher, S. Ehlert, A. Hansen, P. Pracht,
     J. Seibert, S. Spicher, S. Grimme, WIREs Comput. Mol. Sci., 2020, 11,
     e01493. DOI: 10.1002/wcms.1493
   
   for GFN2-xTB:
   * C. Bannwarth, S. Ehlert and S. Grimme., J. Chem. Theory Comput., 2019,
     15, 1652-1671. DOI: 10.1021/acs.jctc.8b01176
   for GFN1-xTB:
   * S. Grimme, C. Bannwarth, P. Shushkov, J. Chem. Theory Comput., 2017,
     13, 1989-2009. DOI: 10.1021/acs.jctc.7b00118
   for GFN0-xTB:
   * P. Pracht, E. Caldeweyher, S. Ehlert, S. Grimme, ChemRxiv, 2019, preprint.
     DOI: 10.26434/chemrxiv.8326202.v1
   for GFN-FF:
   * S. Spicher and S. Grimme, Angew. Chem. Int. Ed., 2020, 59, 15665-15673.
     DOI: 10.1002/anie.202004239
   
   for ALPB and GBSA implicit solvation:
   * S. Ehlert, M. Stahn, S. Spicher, S. Grimme, J. Chem. Theory Comput.,
     2021, 17, 4250-4261. DOI: 10.1021/acs.jctc.1c00471
   
   for DFT-D4:
   * E. Caldeweyher, C. Bannwarth and S. Grimme, J. Chem. Phys., 2017,
     147, 034112. DOI: 10.1063/1.4993215
   * E. Caldeweyher, S. Ehlert, A. Hansen, H. Neugebauer, S. Spicher,
     C. Bannwarth and S. Grimme, J. Chem. Phys., 2019, 150, 154122.
     DOI: 10.1063/1.5090222
   * E. Caldeweyher, J.-M. Mewes, S. Ehlert and S. Grimme, Phys. Chem. Chem. Phys.
     2020, 22, 8499-8512. DOI: 10.1039/D0CP00502A
   
   for sTDA-xTB:
   * S. Grimme and C. Bannwarth, J. Chem. Phys., 2016, 145, 054103.
     DOI: 10.1063/1.4959605
   
   in the mass-spec context:
   * V. Asgeirsson, C. Bauer and S. Grimme, Chem. Sci., 2017, 8, 4879.
     DOI: 10.1039/c7sc00601b
   * J. Koopman and S. Grimme, ACS Omega 2019, 4, 12, 15120-15133.
     DOI: 10.1021/acsomega.9b02011
   
   for metadynamics refer to:
   * S. Grimme, J. Chem. Theory Comput., 2019, 155, 2847-2862
     DOI: 10.1021/acs.jctc.9b00143
   
   for SPH calculations refer to:
   * S. Spicher and S. Grimme, J. Chem. Theory Comput., 2021, 17, 1701-1714
     DOI: 10.1021/acs.jctc.0c01306
   
   with help from (in alphabetical order)
   P. Atkinson, C. Bannwarth, F. Bohle, G. Brandenburg, E. Caldeweyher
   M. Checinski, S. Dohm, S. Ehlert, S. Ehrlich, I. Gerasimov, C. Hölzer
   A. Katbashev, J. Koopman, C. Lavigne, S. Lehtola, F. März, M. Müller,
   F. Musil, H. Neugebauer, J. Pisarek, C. Plett, P. Pracht, F. Pultar,
   J. Seibert, P. Shushkov, S. Spicher, M. Stahn, M. Steiner, T. Strunk,
   J. Stückrath, T. Rose, and J. Unsleber
   
 * started run on 2023/06/20 at 18:15:21.112     

           -------------------------------------------------
          |                Calculation Setup                |
           -------------------------------------------------

          program call               : /lustre/hpc/kemi/ree/PhD/git/ReactivityQM/dep/xtb-6.5.1/bin/xtb --gfn 1 /lustre/hpc/kemi/ree/PhD/git/ReactivityQM/calculations/R02deprot/reac01prodN09/conf07/R02deprot_reac01prodN09_conf07_gfn1.xyz --opt --vfukui --chrg 0 --uhf 0 --alpb DMSO
          hostname                   : node308
          coordinate file            : /lustre/hpc/kemi/ree/PhD/git/ReactivityQM/calculations/R02deprot/reac01prodN09/conf07/R02deprot_reac01prodN09_conf07_gfn1.xyz
          omp threads                :                     1

   ID    Z sym.   atoms
    1    6 C      1, 3, 4, 6, 8-11, 13, 15, 18, 19, 22, 24
    2    8 O      2, 5, 14, 20, 23, 25
    3    7 N      7, 12, 16, 17, 21
    4    1 H      26-42

           -------------------------------------------------
          |                 G F N 1 - x T B                 |
           -------------------------------------------------

        Reference                      10.1021/acs.jctc.7b00118
      * Hamiltonian:
        H0-scaling (s, p, d)           1.850000    2.250000    2.000000
        zeta-weighting                 0.000000
      * Dispersion:
        s8                             2.400000
        a1                             0.630000
        a2                             5.000000
        s9                             0.000000
      * Repulsion:
        kExp                           1.500000
        rExp                           1.000000
      * Coulomb:
        alpha                          2.000000
        third order                    atomic
        anisotropic                    false
      * Halogen bond correction:
        rad-scale                      1.300000
        damping                        0.440000

      * Solvation model:               ALPB
        Solvent                        DMSO
        Parameter file                 internal GFN1-xTB/ALPB
        Dielectric constant                4.6680E+01
        Reference state                gsolv [1 M gas/solution]
        Free energy shift                  7.6243E-03 Eh       4.7843E+00 kcal/mol
        Temperature                        2.9815E+02 K
        Density                            1.1000E+00 kg/L
        Solvent mass                       7.8130E+01 g/mol
        Interaction kernel             P16
        Born radius scaling (c1)           1.7672E+00
        Born radii integrator          GBOBC
        Born offset                        0.0000E+00 a0       0.0000E+00 AA
        H-bond correction              true
        Ion screening                  false
        Surface tension                    1.0000E-05 Eh       1.5569E+01 dyn/cm
        Grid points                               230 per atom

          ...................................................
          :                      SETUP                      :
          :.................................................:
          :  # basis functions                 134          :
          :  # atomic orbitals                 134          :
          :  # shells                           84          :
          :  # electrons                       134          :
          :  # halogen bonds                     0          :
          :  max. iterations                   250          :
          :  Hamiltonian                  GFN1-xTB          :
          :  restarted?                      false          :
          :  GBSA solvation                   true          :
          :  PC potential                    false          :
          :  electronic temp.          300.0000000     K    :
          :  accuracy                    1.0000000          :
          :  -> integral cutoff          0.2500000E+02      :
          :  -> integral neglect         0.1000000E-07      :
          :  -> SCF convergence          0.1000000E-05 Eh   :
          :  -> wf. convergence          0.2000000E-04 e    :
          :  Broyden damping             0.4000000          :
          ...................................................

 iter      E             dE          RMSdq      gap      omega  full diag
   1    -83.1746338 -0.831746E+02  0.838E+00    0.26       0.0  T
   2    -83.2646162 -0.899824E-01  0.551E+00    0.47       1.0  T
   3    -83.3232127 -0.585965E-01  0.321E+00    0.33       1.0  T
   4    -83.4501277 -0.126915E+00  0.147E+00    0.09       1.0  T
   5    -83.5274030 -0.772753E-01  0.957E-01    0.11       1.0  T
   6    -83.4716698  0.557332E-01  0.119E+00    0.48       1.0  T
   7    -83.5402995 -0.686297E-01  0.808E-01    0.09       1.0  T
   8    -83.5737522 -0.334527E-01  0.513E-01    0.11       1.0  T
   9    -83.5794095 -0.565727E-02  0.419E-01    0.11       1.0  T
  10    -83.5892025 -0.979302E-02  0.229E-01    0.18       1.0  T
  11    -83.5928907 -0.368821E-02  0.119E-01    0.15       1.0  T
  12    -83.5942219 -0.133124E-02  0.275E-02    0.13       1.0  T
  13    -83.5942544 -0.324859E-04  0.132E-02    0.13       1.2  T
  14    -83.5942550 -0.560708E-06  0.121E-02    0.14       1.3  T
  15    -83.5942573 -0.228291E-05  0.109E-02    0.13       1.4  T
  16    -83.5942681 -0.107790E-04  0.160E-03    0.13       9.6  T
  17    -83.5942683 -0.209067E-06  0.440E-04    0.13      35.1  T
  18    -83.5942683  0.111556E-07  0.508E-04    0.13      30.4  T
  19    -83.5942683 -0.218833E-07  0.153E-04    0.13     100.6  T
  20    -83.5942683 -0.161553E-08  0.505E-05    0.13     305.6  T

   *** convergence criteria satisfied after 20 iterations ***

         #    Occupation            Energy/Eh            Energy/eV
      -------------------------------------------------------------
         1        2.0000           -0.8663178             -23.5737
       ...           ...                  ...                  ...
        61        2.0000           -0.4693671             -12.7721
        62        2.0000           -0.4660667             -12.6823
        63        2.0000           -0.4595722             -12.5056
        64        2.0000           -0.4542992             -12.3621
        65        1.9998           -0.4489837             -12.2175
        66        1.9975           -0.4466000             -12.1526
        67        1.8604           -0.4427182             -12.0470 (HOMO)
        68        0.1423           -0.4378170             -11.9136 (LUMO)
        69                         -0.3216524              -8.7526
        70                         -0.3146412              -8.5618
        71                         -0.2984204              -8.1204
        72                         -0.2635965              -7.1728
       ...                                ...                  ...
       134                          0.6866944              18.6859
      -------------------------------------------------------------
                  HL-Gap            0.0049012 Eh            0.1334 eV
             Fermi-level           -0.4402577 Eh          -11.9800 eV

 SCC (total)                   0 d,  0 h,  0 min,  0.209 sec
 SCC setup                      ...        0 min,  0.002 sec (  0.986%)
 Dispersion                     ...        0 min,  0.000 sec (  0.191%)
 classical contributions        ...        0 min,  0.000 sec (  0.061%)
 integral evaluation            ...        0 min,  0.056 sec ( 26.819%)
 iterations                     ...        0 min,  0.068 sec ( 32.729%)
 molecular gradient             ...        0 min,  0.081 sec ( 38.762%)
 printout                       ...        0 min,  0.001 sec (  0.433%)

         :::::::::::::::::::::::::::::::::::::::::::::::::::::
         ::                     SUMMARY                     ::
         :::::::::::::::::::::::::::::::::::::::::::::::::::::
         :: total energy             -82.847215201181 Eh    ::
         :: total w/o Gsasa/hb       -82.823126389804 Eh    ::
         :: gradient norm              0.147859669673 Eh/a0 ::
         :: HOMO-LUMO gap              0.133368338095 eV    ::
         ::.................................................::
         :: SCC energy               -83.594268279474 Eh    ::
         :: -> electrostatic           0.354047426321 Eh    ::
         :: -> Gsolv                  -0.051879140590 Eh    ::
         ::    -> Gelec               -0.027790329213 Eh    ::
         ::    -> Gsasa               -0.024390978976 Eh    ::
         ::    -> Ghb                 -0.007322111406 Eh    ::
         ::    -> Gshift               0.007624279005 Eh    ::
         :: repulsion energy           0.772490658852 Eh    ::
         :: dispersion energy         -0.025437580559 Eh    ::
         :: halogen bond corr.         0.000000000000 Eh    ::
         :: add. restraining           0.000000000000 Eh    ::
         :: total charge              -0.000000000000 e     ::
         :::::::::::::::::::::::::::::::::::::::::::::::::::::

      ----------------------------------------------------------- 
     |                   =====================                   |
     |                        A N C O P T                        |
     |                   =====================                   |
     |               Approximate Normal Coordinate               |
     |                Rational Function Optimizer                |
      ----------------------------------------------------------- 

          ...................................................
          :                      SETUP                      :
          :.................................................:
          :   optimization level            normal          :
          :   max. optcycles                   200          :
          :   ANC micro-cycles                  20          :
          :   degrees of freedom               120          :
          :.................................................:
          :   RF solver                   davidson          :
          :   write xtbopt.log                true          :
          :   linear?                        false          :
          :   energy convergence         0.5000000E-05 Eh   :
          :   grad. convergence          0.1000000E-02 Eh/α :
          :   maximium RF displ.         1.0000000          :
          :   Hlow (freq-cutoff)         0.1000000E-01      :
          :   Hmax (freq-cutoff)         5.0000000          :
          :   S6 in model hess.         20.0000000          :
          ...................................................

generating ANC from model Hessian ...
Using Lindh-Hessian (1995)
 Shifting diagonal of input Hessian by   9.796991375304912E-003
 Lowest  eigenvalues of input Hessian
    0.000000    0.000000    0.000000    0.000000    0.000000    0.000000
    0.010000    0.010151    0.010502    0.010839    0.011743    0.012605
    0.012878    0.013637    0.014693    0.014979    0.016398    0.017007
 Highest eigenvalues
    2.020574    2.035033    2.104115    2.189438    2.354579    2.380843
 

........................................................................
.............................. CYCLE    1 ..............................
........................................................................
   1    -83.5942683 -0.835943E+02  0.351E-05    0.13       0.0  T
   2    -83.5942683  0.404711E-08  0.208E-04    0.13      74.3  T
   3    -83.5942683 -0.415054E-08  0.778E-06    0.13    1982.6  T
   4    -83.5942683 -0.513012E-11  0.279E-06    0.13    5534.9  T
     SCC iter.                  ...        0 min,  0.014 sec
     gradient                   ...        0 min,  0.081 sec
 * total energy  :   -82.8472152 Eh     change       -0.1813163E-09 Eh
   gradient norm :     0.1478584 Eh/α   predicted     0.0000000E+00 (-100.00%)
   displ. norm   :     0.3484824 α      lambda       -0.2312510E-01
   maximum displ.:     0.1703793 α      in ANC's #20, #44, #26, ...

........................................................................
.............................. CYCLE    2 ..............................
........................................................................
   1    -83.6163444 -0.836163E+02  0.976E-02    0.26       0.0  T
   2    -83.6144096  0.193478E-02  0.166E-01    0.23       1.0  T
   3    -83.6164031 -0.199352E-02  0.790E-02    0.26       1.0  T
   4    -83.6169187 -0.515581E-03  0.325E-02    0.25       1.0  T
   5    -83.6169571 -0.383933E-04  0.111E-02    0.25       1.4  T
   6    -83.6169660 -0.890223E-05  0.325E-03    0.25       4.8  T
   7    -83.6169663 -0.293056E-06  0.164E-03    0.25       9.4  T
   8    -83.6169664 -0.156751E-06  0.367E-04    0.25      42.1  T
   9    -83.6169665 -0.845877E-08  0.128E-04    0.25     120.1  T
  10    -83.6169665 -0.829999E-09  0.537E-05    0.25     287.2  T
     SCC iter.                  ...        0 min,  0.035 sec
     gradient                   ...        0 min,  0.080 sec
 * total energy  :   -82.8653686 Eh     change       -0.1815335E-01 Eh
   gradient norm :     0.0965344 Eh/α   predicted    -0.1298373E-01 ( -28.48%)
   displ. norm   :     0.4226179 α      lambda       -0.1993341E-01
   maximum displ.:     0.1921066 α      in ANC's #20, #6, #27, ...

........................................................................
.............................. CYCLE    3 ..............................
........................................................................
   1    -83.6475927 -0.836476E+02  0.142E-01    0.47       0.0  T
   2    -83.6472591  0.333602E-03  0.135E-01    0.41       1.0  T
   3    -83.6481100 -0.850897E-03  0.887E-02    0.47       1.0  T
   4    -83.6487082 -0.598237E-03  0.313E-02    0.44       1.0  T
   5    -83.6487272 -0.189805E-04  0.984E-03    0.45       1.6  T
   6    -83.6487307 -0.352375E-05  0.230E-03    0.45       6.7  T
   7    -83.6487310 -0.300097E-06  0.611E-04    0.45      25.2  T
   8    -83.6487311 -0.176987E-07  0.244E-04    0.45      63.2  T
   9    -83.6487311 -0.221181E-08  0.740E-05    0.45     208.4  T
  10    -83.6487311 -0.262204E-09  0.224E-05    0.45     688.9  T
     SCC iter.                  ...        0 min,  0.035 sec
     gradient                   ...        0 min,  0.080 sec
 * total energy  :   -82.8774744 Eh     change       -0.1210586E-01 Eh
   gradient norm :     0.0440118 Eh/α   predicted    -0.1174682E-01 (  -2.97%)
   displ. norm   :     0.3398163 α      lambda       -0.4475358E-02
   maximum displ.:     0.1782101 α      in ANC's #6, #20, #12, ...

........................................................................
.............................. CYCLE    4 ..............................
........................................................................
   1    -83.6568616 -0.836569E+02  0.512E-02    0.55       0.0  T
   2    -83.6569202 -0.586104E-04  0.401E-02    0.55       1.0  T
   3    -83.6569781 -0.579147E-04  0.173E-02    0.54       1.0  T
   4    -83.6569867 -0.851175E-05  0.162E-02    0.55       1.0  T
   5    -83.6569998 -0.131587E-04  0.567E-03    0.54       2.7  T
   6    -83.6570006 -0.822107E-06  0.930E-04    0.55      16.6  T
   7    -83.6570007 -0.603015E-07  0.185E-04    0.54      83.5  T
   8    -83.6570007 -0.136201E-08  0.813E-05    0.54     189.9  T
     SCC iter.                  ...        0 min,  0.028 sec
     gradient                   ...        0 min,  0.080 sec
 * total energy  :   -82.8810091 Eh     change       -0.3534645E-02 Eh
   gradient norm :     0.0380122 Eh/α   predicted    -0.2496074E-02 ( -29.38%)
   displ. norm   :     0.4917240 α      lambda       -0.4941913E-02
   maximum displ.:     0.3039850 α      in ANC's #6, #20, #12, ...

........................................................................
.............................. CYCLE    5 ..............................
........................................................................
   1    -83.6667030 -0.836667E+02  0.652E-02    0.69       0.0  T
   2    -83.6668257 -0.122705E-03  0.410E-02    0.69       1.0  T
   3    -83.6668818 -0.560839E-04  0.155E-02    0.69       1.0  T
   4    -83.6668840 -0.221667E-05  0.167E-02    0.69       1.0  T
   5    -83.6668951 -0.110482E-04  0.556E-03    0.69       2.8  T
   6    -83.6668957 -0.651780E-06  0.105E-03    0.69      14.6  T
   7    -83.6668958 -0.801520E-07  0.159E-04    0.69      97.3  T
   8    -83.6668958 -0.447983E-09  0.768E-05    0.69     200.8  T
     SCC iter.                  ...        0 min,  0.028 sec
     gradient                   ...        0 min,  0.080 sec
 * total energy  :   -82.8848128 Eh     change       -0.3803716E-02 Eh
   gradient norm :     0.0334181 Eh/α   predicted    -0.3068410E-02 ( -19.33%)
   displ. norm   :     0.5345273 α      lambda       -0.4133604E-02
   maximum displ.:     0.3697217 α      in ANC's #6, #12, #20, ...

........................................................................
.............................. CYCLE    6 ..............................
........................................................................
   1    -83.6776766 -0.836777E+02  0.667E-02    0.87       0.0  T
   2    -83.6777756 -0.989833E-04  0.266E-02    0.86       1.0  T
   3    -83.6777966 -0.209638E-04  0.222E-02    0.87       1.0  T
   4    -83.6778180 -0.214126E-04  0.756E-03    0.86       2.0  T
   5    -83.6778178  0.139171E-06  0.391E-03    0.86       4.0  T
   6    -83.6778182 -0.421382E-06  0.758E-04    0.86      20.4  T
   7    -83.6778183 -0.433276E-07  0.151E-04    0.86     101.9  T
   8    -83.6778183 -0.399609E-09  0.660E-05    0.86     233.8  T
     SCC iter.                  ...        0 min,  0.027 sec
     gradient                   ...        0 min,  0.080 sec
 * total energy  :   -82.8882743 Eh     change       -0.3461577E-02 Eh
   gradient norm :     0.0382581 Eh/α   predicted    -0.2657330E-02 ( -23.23%)
   displ. norm   :     0.6201424 α      lambda       -0.5364269E-02
   maximum displ.:     0.4294061 α      in ANC's #6, #12, #8, ...

........................................................................
.............................. CYCLE    7 ..............................
........................................................................
   1    -83.6955815 -0.836956E+02  0.922E-02    1.16       0.0  T
   2    -83.6957850 -0.203444E-03  0.448E-02    1.13       1.0  T
   3    -83.6958981 -0.113083E-03  0.245E-02    1.14       1.0  T
   4    -83.6959211 -0.230252E-04  0.915E-03    1.14       1.7  T
   5    -83.6959211 -0.312824E-07  0.304E-03    1.14       5.1  T
   6    -83.6959214 -0.240999E-06  0.796E-04    1.13      19.4  T
   7    -83.6959214 -0.336497E-07  0.136E-04    1.13     113.6  T
   8    -83.6959214 -0.555957E-09  0.614E-05    1.13     251.1  T
     SCC iter.                  ...        0 min,  0.027 sec
     gradient                   ...        0 min,  0.080 sec
 * total energy  :   -82.8931352 Eh     change       -0.4860848E-02 Eh
   gradient norm :     0.0453551 Eh/α   predicted    -0.3713644E-02 ( -23.60%)
   displ. norm   :     0.6931040 α      lambda       -0.8584619E-02
   maximum displ.:     0.4310068 α      in ANC's #6, #8, #12, ...

........................................................................
.............................. CYCLE    8 ..............................
........................................................................
   1    -83.7267032 -0.837267E+02  0.117E-01    1.66       0.0  T
   2    -83.7271691 -0.465874E-03  0.501E-02    1.62       1.0  T
   3    -83.7272743 -0.105232E-03  0.226E-02    1.63       1.0  T
   4    -83.7272878 -0.134177E-04  0.110E-02    1.62       1.4  T
   5    -83.7272890 -0.128734E-05  0.416E-03    1.62       3.7  T
   6    -83.7272894 -0.306068E-06  0.116E-03    1.62      13.3  T
   7    -83.7272894 -0.801930E-07  0.227E-04    1.62      68.0  T
   8    -83.7272894 -0.174201E-08  0.855E-05    1.62     180.5  T
   9    -83.7272894 -0.126605E-09  0.388E-05    1.62     397.4  T
     SCC iter.                  ...        0 min,  0.030 sec
     gradient                   ...        0 min,  0.081 sec
 * total energy  :   -82.9005290 Eh     change       -0.7393813E-02 Eh
   gradient norm :     0.0489382 Eh/α   predicted    -0.6354297E-02 ( -14.06%)
   displ. norm   :     0.6651535 α      lambda       -0.8571621E-02
   maximum displ.:     0.3463244 α      in ANC's #6, #8, #12, ...

........................................................................
.............................. CYCLE    9 ..............................
........................................................................
   1    -83.7472692 -0.837473E+02  0.859E-02    2.12       0.0  T
   2    -83.7475852 -0.315992E-03  0.396E-02    2.12       1.0  T
   3    -83.7476364 -0.511907E-04  0.159E-02    2.11       1.0  T
   4    -83.7476382 -0.177552E-05  0.877E-03    2.11       1.8  T
   5    -83.7476394 -0.124412E-05  0.267E-03    2.11       5.8  T
   6    -83.7476395 -0.955084E-07  0.105E-03    2.11      14.7  T
   7    -83.7476395 -0.509718E-07  0.233E-04    2.11      66.3  T
   8    -83.7476395 -0.129914E-08  0.589E-05    2.11     262.0  T
   9    -83.7476395 -0.977849E-10  0.224E-05    2.11     688.7  T
     SCC iter.                  ...        0 min,  0.030 sec
     gradient                   ...        0 min,  0.080 sec
 * total energy  :   -82.9063505 Eh     change       -0.5821471E-02 Eh
   gradient norm :     0.0540327 Eh/α   predicted    -0.6181982E-02 (   6.19%)
   displ. norm   :     0.3796687 α      lambda       -0.4994724E-02
   maximum displ.:     0.1270254 α      in ANC's #6, #18, #40, ...

........................................................................
.............................. CYCLE   10 ..............................
........................................................................
   1    -83.7483597 -0.837484E+02  0.493E-02    2.22       0.0  T
   2    -83.7484752 -0.115527E-03  0.313E-02    2.23       1.0  T
   3    -83.7485179 -0.427078E-04  0.116E-02    2.23       1.3  T
   4    -83.7485187 -0.759959E-06  0.646E-03    2.23       2.4  T
   5    -83.7485191 -0.404223E-06  0.183E-03    2.23       8.4  T
   6    -83.7485191 -0.568947E-07  0.482E-04    2.23      32.0  T
   7    -83.7485191 -0.105662E-07  0.139E-04    2.23     111.2  T
   8    -83.7485191 -0.246970E-09  0.322E-05    2.23     479.3  T
     SCC iter.                  ...        0 min,  0.027 sec
     gradient                   ...        0 min,  0.080 sec
 * total energy  :   -82.9099155 Eh     change       -0.3565020E-02 Eh
   gradient norm :     0.0456453 Eh/α   predicted    -0.2857355E-02 ( -19.85%)
   displ. norm   :     0.5485454 α      lambda       -0.7066740E-02
   maximum displ.:     0.2018320 α      in ANC's #18, #6, #20, ...

........................................................................
.............................. CYCLE   11 ..............................
........................................................................
   1    -83.7378595 -0.837379E+02  0.580E-02    2.20       0.0  T
   2    -83.7379477 -0.882036E-04  0.355E-02    2.21       1.0  T
   3    -83.7379775 -0.298499E-04  0.181E-02    2.20       1.0  T
   4    -83.7379804 -0.285550E-05  0.761E-03    2.21       2.0  T
   5    -83.7379812 -0.779555E-06  0.115E-03    2.21      13.4  T
   6    -83.7379812 -0.348898E-07  0.270E-04    2.21      57.2  T
   7    -83.7379812 -0.216109E-08  0.136E-04    2.21     113.1  T
   8    -83.7379812 -0.174296E-09  0.577E-05    2.21     267.5  T
     SCC iter.                  ...        0 min,  0.027 sec
     gradient                   ...        0 min,  0.080 sec
 * total energy  :   -82.9140476 Eh     change       -0.4132151E-02 Eh
   gradient norm :     0.0457959 Eh/α   predicted    -0.4596600E-02 (  11.24%)
   displ. norm   :     0.4146126 α      lambda       -0.5025453E-02
   maximum displ.:     0.1454355 α      in ANC's #22, #40, #20, ...

........................................................................
.............................. CYCLE   12 ..............................
........................................................................
   1    -83.7447326 -0.837447E+02  0.388E-02    2.11       0.0  T
   2    -83.7447820 -0.493739E-04  0.225E-02    2.11       1.0  T
   3    -83.7447887 -0.674261E-05  0.124E-02    2.11       1.2  T
   4    -83.7447887  0.320859E-07  0.668E-03    2.11       2.3  T
   5    -83.7447898 -0.107490E-05  0.108E-03    2.11      14.3  T
   6    -83.7447898 -0.429759E-07  0.270E-04    2.11      57.2  T
   7    -83.7447898 -0.275261E-08  0.105E-04    2.11     146.3  T
   8    -83.7447898 -0.156106E-09  0.469E-05    2.11     328.7  T
     SCC iter.                  ...        0 min,  0.027 sec
     gradient                   ...        0 min,  0.080 sec
 * total energy  :   -82.9171530 Eh     change       -0.3105348E-02 Eh
   gradient norm :     0.0373928 Eh/α   predicted    -0.2944686E-02 (  -5.17%)
   displ. norm   :     0.6330755 α      lambda       -0.5092910E-02
   maximum displ.:     0.2589967 α      in ANC's #6, #20, #22, ...

........................................................................
.............................. CYCLE   13 ..............................
........................................................................
   1    -83.7312613 -0.837313E+02  0.628E-02    2.16       0.0  T
   2    -83.7313989 -0.137635E-03  0.366E-02    2.15       1.0  T
   3    -83.7314215 -0.225853E-04  0.188E-02    2.15       1.0  T
   4    -83.7314212  0.266177E-06  0.978E-03    2.15       1.6  T
   5    -83.7314236 -0.238149E-05  0.171E-03    2.15       9.0  T
   6    -83.7314237 -0.114882E-06  0.495E-04    2.15      31.1  T
   7    -83.7314237 -0.858522E-08  0.168E-04    2.15      92.1  T
   8    -83.7314237 -0.464638E-09  0.542E-05    2.15     284.5  T
     SCC iter.                  ...        0 min,  0.027 sec
     gradient                   ...        0 min,  0.079 sec
 * total energy  :   -82.9177325 Eh     change       -0.5794695E-03 Eh
   gradient norm :     0.0570038 Eh/α   predicted    -0.3567043E-02 ( 515.57%)
   displ. norm   :     0.3191118 α      lambda       -0.6148622E-02
   maximum displ.:     0.1119804 α      in ANC's #6, #27, #18, ...

........................................................................
.............................. CYCLE   14 ..............................
........................................................................
   1    -83.7546851 -0.837547E+02  0.473E-02    2.19       0.0  T
   2    -83.7547228 -0.377828E-04  0.229E-02    2.18       1.0  T
   3    -83.7547243 -0.143605E-05  0.129E-02    2.19       1.2  T
   4    -83.7547246 -0.298748E-06  0.355E-03    2.18       4.3  T
   5    -83.7547249 -0.331365E-06  0.125E-03    2.19      12.3  T
   6    -83.7547250 -0.776127E-07  0.242E-04    2.18      63.7  T
   7    -83.7547250 -0.210024E-08  0.780E-05    2.18     197.9  T
   8    -83.7547250 -0.888747E-10  0.226E-05    2.18     682.6  T
     SCC iter.                  ...        0 min,  0.027 sec
     gradient                   ...        0 min,  0.118 sec
 * total energy  :   -82.9213061 Eh     change       -0.3573606E-02 Eh
   gradient norm :     0.0272255 Eh/α   predicted    -0.3387377E-02 (  -5.21%)
   displ. norm   :     0.3764340 α      lambda       -0.2876201E-02
   maximum displ.:     0.1455734 α      in ANC's #20, #11, #18, ...

........................................................................
.............................. CYCLE   15 ..............................
........................................................................
   1    -83.7566835 -0.837567E+02  0.471E-02    2.12       0.0  T
   2    -83.7567501 -0.665953E-04  0.261E-02    2.11       1.0  T
   3    -83.7567821 -0.320022E-04  0.130E-02    2.12       1.2  T
   4    -83.7567846 -0.247201E-05  0.601E-03    2.11       2.6  T
   5    -83.7567848 -0.177666E-06  0.552E-04    2.11      28.0  T
   6    -83.7567848 -0.505848E-08  0.232E-04    2.11      66.5  T
   7    -83.7567848 -0.748059E-09  0.614E-05    2.11     251.5  T
   8    -83.7567848 -0.452616E-10  0.158E-05    2.11     978.3  T
     SCC iter.                  ...        0 min,  0.040 sec
     gradient                   ...        0 min,  0.118 sec
 * total energy  :   -82.9226918 Eh     change       -0.1385690E-02 Eh
   gradient norm :     0.0312214 Eh/α   predicted    -0.1641886E-02 (  18.49%)
   displ. norm   :     0.4674298 α      lambda       -0.2553809E-02
   maximum displ.:     0.1977226 α      in ANC's #20, #18, #22, ...

........................................................................
.............................. CYCLE   16 ..............................
........................................................................
   1    -83.7550207 -0.837550E+02  0.290E-02    2.09       0.0  T
   2    -83.7550464 -0.256636E-04  0.116E-02    2.09       1.3  T
   3    -83.7550476 -0.126402E-05  0.637E-03    2.08       2.4  T
   4    -83.7550477 -0.757528E-07  0.361E-03    2.09       4.3  T
   5    -83.7550481 -0.356643E-06  0.769E-04    2.09      20.1  T
   6    -83.7550481 -0.142027E-07  0.141E-04    2.09     109.4  T
   7    -83.7550481 -0.416094E-09  0.417E-05    2.09     369.7  T
     SCC iter.                  ...        0 min,  0.037 sec
     gradient                   ...        0 min,  0.135 sec
 * total energy  :   -82.9245199 Eh     change       -0.1828123E-02 Eh
   gradient norm :     0.0209082 Eh/α   predicted    -0.1555897E-02 ( -14.89%)
   displ. norm   :     0.5302334 α      lambda       -0.2108947E-02
   maximum displ.:     0.2471567 α      in ANC's #20, #18, #40, ...

........................................................................
.............................. CYCLE   17 ..............................
........................................................................
   1    -83.7535142 -0.837535E+02  0.306E-02    2.05       0.0  T
   2    -83.7535600 -0.458054E-04  0.213E-02    2.04       1.0  T
   3    -83.7535871 -0.270707E-04  0.534E-03    2.04       2.9  T
   4    -83.7535873 -0.197528E-06  0.338E-03    2.04       4.6  T
   5    -83.7535874 -0.823421E-07  0.653E-04    2.04      23.6  T
   6    -83.7535874 -0.122164E-07  0.215E-04    2.04      71.7  T
   7    -83.7535874 -0.120082E-08  0.732E-05    2.04     210.8  T
   8    -83.7535874 -0.800782E-10  0.234E-05    2.04     659.7  T
     SCC iter.                  ...        0 min,  0.027 sec
     gradient                   ...        0 min,  0.117 sec
 * total energy  :   -82.9258018 Eh     change       -0.1281900E-02 Eh
   gradient norm :     0.0194026 Eh/α   predicted    -0.1350951E-02 (   5.39%)
   displ. norm   :     0.3970365 α      lambda       -0.1330884E-02
   maximum displ.:     0.1652351 α      in ANC's #20, #11, #6, ...

........................................................................
.............................. CYCLE   18 ..............................
........................................................................
   1    -83.7561254 -0.837561E+02  0.176E-02    1.98       0.0  T
   2    -83.7561391 -0.136724E-04  0.109E-02    1.98       1.4  T
   3    -83.7561408 -0.166775E-05  0.607E-03    1.98       2.5  T
   4    -83.7561406  0.127824E-06  0.354E-03    1.98       4.4  T
   5    -83.7561409 -0.295777E-06  0.655E-04    1.98      23.6  T
   6    -83.7561409 -0.148635E-07  0.187E-04    1.98      82.7  T
   7    -83.7561409 -0.119989E-08  0.810E-05    1.98     190.6  T
     SCC iter.                  ...        0 min,  0.067 sec
     gradient                   ...        0 min,  0.126 sec
 * total energy  :   -82.9264706 Eh     change       -0.6688144E-03 Eh
   gradient norm :     0.0210599 Eh/α   predicted    -0.7703435E-03 (  15.18%)
   displ. norm   :     0.3598033 α      lambda       -0.9373858E-03
   maximum displ.:     0.1517260 α      in ANC's #20, #40, #1, ...

........................................................................
.............................. CYCLE   19 ..............................
........................................................................
   1    -83.7511033 -0.837511E+02  0.288E-02    1.95       0.0  T
   2    -83.7511356 -0.322450E-04  0.182E-02    1.95       1.0  T
   3    -83.7511483 -0.127677E-04  0.885E-03    1.95       1.7  T
   4    -83.7511488 -0.499999E-06  0.481E-03    1.95       3.2  T
   5    -83.7511491 -0.268337E-06  0.581E-04    1.95      26.6  T
   6    -83.7511491 -0.810158E-08  0.234E-04    1.95      65.9  T
   7    -83.7511491 -0.101902E-08  0.831E-05    1.95     185.6  T
   8    -83.7511491 -0.104279E-09  0.250E-05    1.95     616.1  T
     SCC iter.                  ...        0 min,  0.027 sec
     gradient                   ...        0 min,  0.117 sec
 * total energy  :   -82.9266949 Eh     change       -0.2242966E-03 Eh
   gradient norm :     0.0170062 Eh/α   predicted    -0.5293670E-03 ( 136.01%)
   displ. norm   :     0.0926853 α      lambda       -0.5551624E-03
   maximum displ.:     0.0509491 α      in ANC's #11, #6, #1, ...

........................................................................
.............................. CYCLE   20 ..............................
........................................................................
   1    -83.7537729 -0.837538E+02  0.206E-02    1.94       0.0  T
   2    -83.7537891 -0.161918E-04  0.109E-02    1.94       1.4  T
   3    -83.7537928 -0.371494E-05  0.549E-03    1.94       2.8  T
   4    -83.7537930 -0.217561E-06  0.331E-03    1.94       4.7  T
   5    -83.7537933 -0.220057E-06  0.358E-04    1.94      43.1  T
   6    -83.7537933 -0.198970E-08  0.135E-04    1.94     114.0  T
   7    -83.7537933 -0.371060E-09  0.428E-05    1.94     360.5  T
     SCC iter.                  ...        0 min,  0.025 sec
     gradient                   ...        0 min,  0.078 sec
 * total energy  :   -82.9269414 Eh     change       -0.2465515E-03 Eh
   gradient norm :     0.0117905 Eh/α   predicted    -0.2799650E-03 (  13.55%)
   displ. norm   :     0.1265029 α      lambda       -0.3588499E-03
   maximum displ.:     0.0453416 α      in ANC's #22, #2, #11, ...
 * RMSD in coord.:     0.9944517 α      energy gain  -0.7972625E-01 Eh

generating ANC from model Hessian ...
Using Lindh-Hessian (1995)
 Shifting diagonal of input Hessian by   1.000372949314051E-002
 Lowest  eigenvalues of input Hessian
    0.010000    0.000000    0.000000    0.000000    0.000000    0.000000
    0.000000    0.010033    0.010169    0.010217    0.010593    0.010703
    0.011141    0.011392    0.011810    0.012726    0.013712    0.015282
 Highest eigenvalues
    2.058809    2.134590    2.364674    2.428292    2.434129    2.540132
 

........................................................................
.............................. CYCLE   21 ..............................
........................................................................
   1    -83.7578259 -0.837578E+02  0.263E-02    1.95       0.0  T
   2    -83.7578582 -0.322793E-04  0.187E-02    1.96       1.0  T
   3    -83.7578771 -0.188975E-04  0.606E-03    1.96       2.5  T
   4    -83.7578772 -0.114728E-06  0.390E-03    1.96       4.0  T
   5    -83.7578773 -0.123672E-06  0.431E-04    1.96      35.8  T
   6    -83.7578774 -0.701722E-08  0.145E-04    1.96     106.5  T
   7    -83.7578774 -0.720632E-09  0.467E-05    1.96     330.4  T
     SCC iter.                  ...        0 min,  0.050 sec
     gradient                   ...        0 min,  0.089 sec
 * total energy  :   -82.9269822 Eh     change       -0.4077125E-04 Eh
   gradient norm :     0.0135155 Eh/α   predicted     0.0000000E+00 (-100.00%)
   displ. norm   :     0.0761792 α      lambda       -0.2972604E-03
   maximum displ.:     0.0506124 α      in ANC's #6, #1, #11, ...

........................................................................
.............................. CYCLE   22 ..............................
........................................................................
   1    -83.7569261 -0.837569E+02  0.822E-03    1.96       0.0  T
   2    -83.7569291 -0.297494E-05  0.659E-03    1.96       2.3  T
   3    -83.7569310 -0.186724E-05  0.264E-03    1.96       5.8  T
   4    -83.7569309  0.119776E-07  0.151E-03    1.96      10.2  T
   5    -83.7569310 -0.251587E-07  0.187E-04    1.96      82.4  T
   6    -83.7569310 -0.136913E-08  0.649E-05    1.96     237.7  T
     SCC iter.                  ...        0 min,  0.033 sec
     gradient                   ...        0 min,  0.131 sec
 * total energy  :   -82.9271856 Eh     change       -0.2033705E-03 Eh
   gradient norm :     0.0042729 Eh/α   predicted    -0.1494936E-03 ( -26.49%)
   displ. norm   :     0.1264425 α      lambda       -0.1531159E-03
   maximum displ.:     0.0885416 α      in ANC's #6, #11, #1, ...

........................................................................
.............................. CYCLE   23 ..............................
........................................................................
   1    -83.7564689 -0.837565E+02  0.508E-03    1.97       0.0  T
   2    -83.7564699 -0.997536E-06  0.388E-03    1.97       4.0  T
   3    -83.7564703 -0.458340E-06  0.179E-03    1.97       8.6  T
   4    -83.7564703  0.121423E-08  0.998E-04    1.97      15.5  T
   5    -83.7564703 -0.126037E-07  0.137E-04    1.97     113.0  T
   6    -83.7564703 -0.583540E-09  0.356E-05    1.97     433.4  T
     SCC iter.                  ...        0 min,  0.035 sec
     gradient                   ...        0 min,  0.092 sec
 * total energy  :   -82.9272952 Eh     change       -0.1096268E-03 Eh
   gradient norm :     0.0036784 Eh/α   predicted    -0.7784185E-04 ( -28.99%)
   displ. norm   :     0.1700971 α      lambda       -0.1248207E-03
   maximum displ.:     0.1105339 α      in ANC's #6, #11, #1, ...

........................................................................
.............................. CYCLE   24 ..............................
........................................................................
   1    -83.7562968 -0.837563E+02  0.329E-03    1.97       0.0  T
   2    -83.7562971 -0.273299E-06  0.153E-03    1.97      10.1  T
   3    -83.7562971 -0.172096E-07  0.109E-03    1.97      14.1  T
   4    -83.7562971 -0.924501E-08  0.357E-04    1.97      43.3  T
   5    -83.7562971 -0.386447E-08  0.118E-04    1.97     130.8  T
   6    -83.7562971 -0.429409E-09  0.278E-05    1.97     555.5  T
     SCC iter.                  ...        0 min,  0.021 sec
     gradient                   ...        0 min,  0.104 sec
 * total energy  :   -82.9273995 Eh     change       -0.1043326E-03 Eh
   gradient norm :     0.0061227 Eh/α   predicted    -0.6421676E-04 ( -38.45%)
   displ. norm   :     0.2794701 α      lambda       -0.1888881E-03
   maximum displ.:     0.1707273 α      in ANC's #6, #11, #1, ...

........................................................................
.............................. CYCLE   25 ..............................
........................................................................
   1    -83.7560533 -0.837561E+02  0.527E-03    1.98       0.0  T
   2    -83.7560542 -0.804816E-06  0.282E-03    1.98       5.5  T
   3    -83.7560547 -0.565973E-06  0.146E-03    1.98      10.6  T
   4    -83.7560547 -0.313792E-07  0.584E-04    1.98      26.4  T
   5    -83.7560548 -0.337654E-08  0.173E-04    1.98      89.1  T
   6    -83.7560548 -0.767415E-09  0.433E-05    1.98     356.6  T
     SCC iter.                  ...        0 min,  0.020 sec
     gradient                   ...        0 min,  0.077 sec
 * total energy  :   -82.9275548 Eh     change       -0.1552109E-03 Eh
   gradient norm :     0.0071867 Eh/α   predicted    -0.1018224E-03 ( -34.40%)
   displ. norm   :     0.3555316 α      lambda       -0.2148891E-03
   maximum displ.:     0.2144023 α      in ANC's #6, #1, #11, ...

........................................................................
.............................. CYCLE   26 ..............................
........................................................................
   1    -83.7560792 -0.837561E+02  0.725E-03    1.99       0.0  T
   2    -83.7560811 -0.190026E-05  0.460E-03    1.99       3.4  T
   3    -83.7560828 -0.161867E-05  0.154E-03    1.99      10.0  T
   4    -83.7560828 -0.240898E-07  0.730E-04    1.99      21.1  T
   5    -83.7560828 -0.498281E-08  0.170E-04    1.99      90.9  T
   6    -83.7560828 -0.692367E-09  0.531E-05    1.99     290.7  T
     SCC iter.                  ...        0 min,  0.021 sec
     gradient                   ...        0 min,  0.116 sec
 * total energy  :   -82.9277197 Eh     change       -0.1649821E-03 Eh
   gradient norm :     0.0064727 Eh/α   predicted    -0.1210265E-03 ( -26.64%)
   displ. norm   :     0.3395840 α      lambda       -0.1832549E-03
   maximum displ.:     0.2062362 α      in ANC's #6, #1, #11, ...

........................................................................
.............................. CYCLE   27 ..............................
........................................................................
   1    -83.7571476 -0.837571E+02  0.644E-03    2.00       0.0  T
   2    -83.7571491 -0.142155E-05  0.396E-03    2.00       3.9  T
   3    -83.7571500 -0.985457E-06  0.162E-03    2.00       9.5  T
   4    -83.7571501 -0.302929E-07  0.750E-04    2.00      20.6  T
   5    -83.7571501 -0.191277E-08  0.126E-04    2.00     122.8  T
   6    -83.7571501 -0.449958E-09  0.524E-05    2.00     294.3  T
     SCC iter.                  ...        0 min,  0.021 sec
     gradient                   ...        0 min,  0.078 sec
 * total energy  :   -82.9278609 Eh     change       -0.1411648E-03 Eh
   gradient norm :     0.0040936 Eh/α   predicted    -0.1021960E-03 ( -27.61%)
   displ. norm   :     0.3859926 α      lambda       -0.1576807E-03
   maximum displ.:     0.2279454 α      in ANC's #6, #1, #11, ...

........................................................................
.............................. CYCLE   28 ..............................
........................................................................
   1    -83.7579737 -0.837580E+02  0.471E-03    2.01       0.0  T
   2    -83.7579743 -0.612053E-06  0.240E-03    2.01       6.4  T
   3    -83.7579745 -0.220711E-06  0.146E-03    2.01      10.5  T
   4    -83.7579745 -0.407934E-07  0.602E-04    2.01      25.6  T
   5    -83.7579746 -0.198308E-08  0.115E-04    2.01     134.5  T
   6    -83.7579746 -0.166438E-09  0.459E-05    2.01     335.9  T
     SCC iter.                  ...        0 min,  0.047 sec
     gradient                   ...        0 min,  0.091 sec
 * total energy  :   -82.9279845 Eh     change       -0.1236052E-03 Eh
   gradient norm :     0.0039472 Eh/α   predicted    -0.9059190E-04 ( -26.71%)
   displ. norm   :     0.4009461 α      lambda       -0.1327309E-03
   maximum displ.:     0.2268592 α      in ANC's #6, #1, #11, ...

........................................................................
.............................. CYCLE   29 ..............................
........................................................................
   1    -83.7584050 -0.837584E+02  0.337E-03    2.02       0.0  T
   2    -83.7584052 -0.194067E-06  0.172E-03    2.02       9.0  T
   3    -83.7584053 -0.373455E-07  0.960E-04    2.02      16.1  T
   4    -83.7584053 -0.881624E-08  0.372E-04    2.02      41.5  T
   5    -83.7584053 -0.406253E-08  0.984E-05    2.02     156.7  T
   6    -83.7584053 -0.207066E-09  0.372E-05    2.02     415.2  T
     SCC iter.                  ...        0 min,  0.020 sec
     gradient                   ...        0 min,  0.129 sec
 * total energy  :   -82.9280809 Eh     change       -0.9641809E-04 Eh
   gradient norm :     0.0043004 Eh/α   predicted    -0.7703442E-04 ( -20.10%)
   displ. norm   :     0.2775553 α      lambda       -0.9731664E-04
   maximum displ.:     0.1523727 α      in ANC's #1, #6, #3, ...

........................................................................
.............................. CYCLE   30 ..............................
........................................................................
   1    -83.7600866 -0.837601E+02  0.605E-03    2.02       0.0  T
   2    -83.7600873 -0.705444E-06  0.277E-03    2.02       5.6  T
   3    -83.7600876 -0.275884E-06  0.181E-03    2.02       8.5  T
   4    -83.7600877 -0.544601E-07  0.657E-04    2.02      23.5  T
   5    -83.7600877 -0.122444E-08  0.938E-05    2.02     164.5  T
   6    -83.7600877 -0.261409E-09  0.323E-05    2.02     478.3  T
     SCC iter.                  ...        0 min,  0.020 sec
     gradient                   ...        0 min,  0.129 sec
 * total energy  :   -82.9281556 Eh     change       -0.7466500E-04 Eh
   gradient norm :     0.0043030 Eh/α   predicted    -0.5240841E-04 ( -29.81%)
   displ. norm   :     0.4795190 α      lambda       -0.1325410E-03
   maximum displ.:     0.2612603 α      in ANC's #1, #6, #3, ...

........................................................................
.............................. CYCLE   31 ..............................
........................................................................
   1    -83.7575426 -0.837575E+02  0.116E-02    2.01       0.0  T
   2    -83.7575461 -0.352685E-05  0.673E-03    2.00       2.3  T
   3    -83.7575485 -0.237311E-05  0.253E-03    2.00       6.1  T
   4    -83.7575486 -0.968848E-07  0.118E-03    2.00      13.0  T
   5    -83.7575486 -0.463812E-08  0.143E-04    2.00     107.8  T
   6    -83.7575486 -0.436685E-09  0.515E-05    2.00     299.3  T
     SCC iter.                  ...        0 min,  0.021 sec
     gradient                   ...        0 min,  0.077 sec
 * total energy  :   -82.9282427 Eh     change       -0.8709872E-04 Eh
   gradient norm :     0.0047750 Eh/α   predicted    -0.8150915E-04 (  -6.42%)
   displ. norm   :     0.2523547 α      lambda       -0.1185392E-03
   maximum displ.:     0.1529483 α      in ANC's #1, #2, #3, ...

........................................................................
.............................. CYCLE   32 ..............................
........................................................................
   1    -83.7590009 -0.837590E+02  0.995E-03    2.00       0.0  T
   2    -83.7590034 -0.242123E-05  0.586E-03    2.00       2.6  T
   3    -83.7590056 -0.224909E-05  0.236E-03    2.00       6.5  T
   4    -83.7590057 -0.703163E-07  0.966E-04    2.00      16.0  T
   5    -83.7590057 -0.584600E-08  0.104E-04    2.00     148.7  T
   6    -83.7590057 -0.150564E-09  0.270E-05    2.00     572.2  T
     SCC iter.                  ...        0 min,  0.021 sec
     gradient                   ...        0 min,  0.077 sec
 * total energy  :   -82.9283316 Eh     change       -0.8890234E-04 Eh
   gradient norm :     0.0032487 Eh/α   predicted    -0.6305317E-04 ( -29.08%)
   displ. norm   :     0.3331642 α      lambda       -0.1081652E-03
   maximum displ.:     0.2065051 α      in ANC's #1, #3, #2, ...

........................................................................
.............................. CYCLE   33 ..............................
........................................................................
   1    -83.7586119 -0.837586E+02  0.120E-02    1.99       0.0  T
   2    -83.7586155 -0.361604E-05  0.846E-03    1.98       1.8  T
   3    -83.7586203 -0.475033E-05  0.131E-03    1.98      11.7  T
   4    -83.7586203 -0.199656E-07  0.653E-04    1.98      23.6  T
   5    -83.7586203 -0.232522E-08  0.122E-04    1.98     126.4  T
   6    -83.7586203 -0.314131E-09  0.512E-05    1.98     301.6  T
     SCC iter.                  ...        0 min,  0.020 sec
     gradient                   ...        0 min,  0.077 sec
 * total energy  :   -82.9284116 Eh     change       -0.7999672E-04 Eh
   gradient norm :     0.0032896 Eh/α   predicted    -0.6008677E-04 ( -24.89%)
   displ. norm   :     0.2233538 α      lambda       -0.8849295E-04
   maximum displ.:     0.1399731 α      in ANC's #1, #2, #9, ...

........................................................................
.............................. CYCLE   34 ..............................
........................................................................
   1    -83.7592028 -0.837592E+02  0.110E-02    1.98       0.0  T
   2    -83.7592061 -0.329144E-05  0.839E-03    1.98       1.8  T
   3    -83.7592106 -0.446951E-05  0.108E-03    1.98      14.3  T
   4    -83.7592106 -0.377037E-08  0.578E-04    1.98      26.7  T
   5    -83.7592106 -0.140544E-08  0.128E-04    1.98     120.8  T
   6    -83.7592106 -0.724611E-09  0.377E-05    1.98     408.9  T
     SCC iter.                  ...        0 min,  0.020 sec
     gradient                   ...        0 min,  0.077 sec
 * total energy  :   -82.9284801 Eh     change       -0.6853863E-04 Eh
   gradient norm :     0.0034845 Eh/α   predicted    -0.4645512E-04 ( -32.22%)
   displ. norm   :     0.2926186 α      lambda       -0.9540308E-04
   maximum displ.:     0.1805470 α      in ANC's #1, #2, #9, ...

........................................................................
.............................. CYCLE   35 ..............................
........................................................................
   1    -83.7575961 -0.837576E+02  0.117E-02    1.97       0.0  T
   2    -83.7575996 -0.349294E-05  0.880E-03    1.96       1.8  T
   3    -83.7576044 -0.476632E-05  0.157E-03    1.97       9.8  T
   4    -83.7576044 -0.764631E-08  0.766E-04    1.97      20.2  T
   5    -83.7576044 -0.225445E-08  0.113E-04    1.97     136.6  T
   6    -83.7576044 -0.476618E-09  0.487E-05    1.97     316.8  T
     SCC iter.                  ...        0 min,  0.020 sec
     gradient                   ...        0 min,  0.077 sec
 * total energy  :   -82.9285527 Eh     change       -0.7260494E-04 Eh
   gradient norm :     0.0040056 Eh/α   predicted    -0.5178625E-04 ( -28.67%)
   displ. norm   :     0.2829723 α      lambda       -0.9179832E-04
   maximum displ.:     0.1684286 α      in ANC's #1, #2, #15, ...

........................................................................
.............................. CYCLE   36 ..............................
........................................................................
   1    -83.7574057 -0.837574E+02  0.757E-03    1.97       0.0  T
   2    -83.7574073 -0.157874E-05  0.610E-03    1.96       2.5  T
   3    -83.7574095 -0.218834E-05  0.129E-03    1.96      11.9  T
   4    -83.7574095 -0.902986E-09  0.476E-04    1.96      32.4  T
   5    -83.7574095 -0.205607E-08  0.105E-04    1.96     146.6  T
   6    -83.7574095 -0.308816E-09  0.430E-05    1.96     359.1  T
     SCC iter.                  ...        0 min,  0.020 sec
     gradient                   ...        0 min,  0.077 sec
 * total energy  :   -82.9286241 Eh     change       -0.7133847E-04 Eh
   gradient norm :     0.0045662 Eh/α   predicted    -0.4957867E-04 ( -30.50%)
   displ. norm   :     0.3429426 α      lambda       -0.1053444E-03
   maximum displ.:     0.2103938 α      in ANC's #1, #2, #15, ...

........................................................................
.............................. CYCLE   37 ..............................
........................................................................
   1    -83.7561750 -0.837562E+02  0.556E-03    1.96       0.0  T
   2    -83.7561760 -0.100886E-05  0.414E-03    1.96       3.7  T
   3    -83.7561769 -0.854077E-06  0.142E-03    1.96      10.9  T
   4    -83.7561769 -0.620828E-08  0.707E-04    1.96      21.8  T
   5    -83.7561769 -0.315856E-08  0.124E-04    1.96     124.7  T
   6    -83.7561769 -0.215650E-09  0.394E-05    1.96     391.8  T
     SCC iter.                  ...        0 min,  0.020 sec
     gradient                   ...        0 min,  0.077 sec
 * total energy  :   -82.9287071 Eh     change       -0.8304105E-04 Eh
   gradient norm :     0.0057504 Eh/α   predicted    -0.5887135E-04 ( -29.11%)
   displ. norm   :     0.3774049 α      lambda       -0.1421623E-03
   maximum displ.:     0.2314268 α      in ANC's #1, #2, #15, ...

........................................................................
.............................. CYCLE   38 ..............................
........................................................................
   1    -83.7572247 -0.837572E+02  0.776E-03    1.97       0.0  T
   2    -83.7572266 -0.189163E-05  0.474E-03    1.97       3.3  T
   3    -83.7572281 -0.148241E-05  0.151E-03    1.97      10.2  T
   4    -83.7572281 -0.337491E-07  0.715E-04    1.97      21.6  T
   5    -83.7572281 -0.212982E-08  0.188E-04    1.97      82.0  T
   6    -83.7572281 -0.977622E-09  0.645E-05    1.97     239.1  T
     SCC iter.                  ...        0 min,  0.020 sec
     gradient                   ...        0 min,  0.077 sec
 * total energy  :   -82.9288182 Eh     change       -0.1111001E-03 Eh
   gradient norm :     0.0055288 Eh/α   predicted    -0.8120614E-04 ( -26.91%)
   displ. norm   :     0.4321191 α      lambda       -0.1682755E-03
   maximum displ.:     0.2769138 α      in ANC's #1, #2, #15, ...

........................................................................
.............................. CYCLE   39 ..............................
........................................................................
   1    -83.7575802 -0.837576E+02  0.916E-03    1.99       0.0  T
   2    -83.7575822 -0.192004E-05  0.509E-03    1.99       3.0  T
   3    -83.7575837 -0.158480E-05  0.190E-03    1.99       8.1  T
   4    -83.7575838 -0.525274E-07  0.804E-04    1.99      19.2  T
   5    -83.7575838 -0.445017E-08  0.218E-04    1.99      70.9  T
   6    -83.7575838 -0.157611E-08  0.695E-05    1.99     221.9  T
   7    -83.7575838 -0.142450E-09  0.220E-05    1.99     701.5  T
     SCC iter.                  ...        0 min,  0.024 sec
     gradient                   ...        0 min,  0.076 sec
 * total energy  :   -82.9289511 Eh     change       -0.1328821E-03 Eh
   gradient norm :     0.0058078 Eh/α   predicted    -0.9985315E-04 ( -24.86%)
   displ. norm   :     0.4482151 α      lambda       -0.1996636E-03
   maximum displ.:     0.2977176 α      in ANC's #1, #2, #15, ...

........................................................................
.............................. CYCLE   40 ..............................
........................................................................
   1    -83.7596284 -0.837596E+02  0.175E-02    2.01       0.0  T
   2    -83.7596393 -0.108927E-04  0.121E-02    2.02       1.3  T
   3    -83.7596497 -0.104083E-04  0.243E-03    2.01       6.3  T
   4    -83.7596498 -0.636399E-07  0.129E-03    2.01      11.9  T
   5    -83.7596498 -0.427413E-08  0.245E-04    2.01      63.1  T
   6    -83.7596498 -0.262743E-08  0.861E-05    2.01     179.3  T
   7    -83.7596498 -0.183547E-09  0.292E-05    2.01     528.1  T
     SCC iter.                  ...        0 min,  0.024 sec
     gradient                   ...        0 min,  0.076 sec
 * total energy  :   -82.9291031 Eh     change       -0.1520382E-03 Eh
   gradient norm :     0.0046840 Eh/α   predicted    -0.1198899E-03 ( -21.14%)
   displ. norm   :     0.4942929 α      lambda       -0.1852897E-03
   maximum displ.:     0.3367656 α      in ANC's #1, #2, #3, ...

........................................................................
.............................. CYCLE   41 ..............................
........................................................................
   1    -83.7588808 -0.837589E+02  0.114E-02    2.03       0.0  T
   2    -83.7588851 -0.431681E-05  0.638E-03    2.04       2.4  T
   3    -83.7588879 -0.277648E-05  0.270E-03    2.04       5.7  T
   4    -83.7588880 -0.126366E-06  0.124E-03    2.04      12.4  T
   5    -83.7588880 -0.584630E-08  0.232E-04    2.04      66.6  T
   6    -83.7588880 -0.908912E-09  0.997E-05    2.04     154.8  T
   7    -83.7588880 -0.302734E-09  0.299E-05    2.04     516.0  T
     SCC iter.                  ...        0 min,  0.023 sec
     gradient                   ...        0 min,  0.076 sec
 * total energy  :   -82.9292410 Eh     change       -0.1378615E-03 Eh
   gradient norm :     0.0072410 Eh/α   predicted    -0.1152855E-03 ( -16.38%)
   displ. norm   :     0.4326480 α      lambda       -0.2447224E-03
   maximum displ.:     0.2960655 α      in ANC's #1, #2, #10, ...

........................................................................
.............................. CYCLE   42 ..............................
........................................................................
   1    -83.7639890 -0.837640E+02  0.130E-02    2.06       0.0  T
   2    -83.7639923 -0.321908E-05  0.665E-03    2.06       2.3  T
   3    -83.7639933 -0.102924E-05  0.453E-03    2.06       3.4  T
   4    -83.7639937 -0.418716E-06  0.153E-03    2.06      10.1  T
   5    -83.7639937 -0.204858E-07  0.208E-04    2.06      74.2  T
   6    -83.7639937 -0.735994E-09  0.707E-05    2.06     218.3  T
   7    -83.7639937 -0.103640E-09  0.239E-05    2.06     645.1  T
     SCC iter.                  ...        0 min,  0.023 sec
     gradient                   ...        0 min,  0.076 sec
 * total energy  :   -82.9293433 Eh     change       -0.1023327E-03 Eh
   gradient norm :     0.0086054 Eh/α   predicted    -0.1452709E-03 (  41.96%)
   displ. norm   :     0.5325607 α      lambda       -0.2412536E-03
   maximum displ.:     0.3640706 α      in ANC's #1, #2, #15, ...
 * RMSD in coord.:     0.9626012 α      energy gain  -0.2401883E-02 Eh

generating ANC from model Hessian ...
Using Lindh-Hessian (1995)
 Shifting diagonal of input Hessian by   1.000268430077541E-002
 Lowest  eigenvalues of input Hessian
    0.010000    0.000000    0.000000    0.000000    0.000000    0.000000
    0.000000    0.010033    0.010145    0.010196    0.010564    0.010610
    0.011035    0.011311    0.011752    0.012751    0.013764    0.015236
 Highest eigenvalues
    2.060656    2.132747    2.356499    2.431038    2.443650    2.540353
 

........................................................................
.............................. CYCLE   43 ..............................
........................................................................
   1    -83.7566136 -0.837566E+02  0.142E-02    2.06       0.0  T
   2    -83.7566155 -0.190887E-05  0.747E-03    2.06       2.1  T
   3    -83.7566158 -0.289511E-06  0.431E-03    2.06       3.6  T
   4    -83.7566160 -0.177888E-06  0.113E-03    2.06      13.6  T
   5    -83.7566160 -0.607035E-07  0.375E-04    2.06      41.2  T
   6    -83.7566160 -0.363713E-08  0.118E-04    2.06     130.8  T
   7    -83.7566160 -0.476746E-09  0.241E-05    2.06     639.5  T
     SCC iter.                  ...        0 min,  0.024 sec
     gradient                   ...        0 min,  0.076 sec
 * total energy  :   -82.9294175 Eh     change       -0.7419592E-04 Eh
   gradient norm :     0.0110836 Eh/α   predicted     0.0000000E+00 (-100.00%)
   displ. norm   :     0.0433141 α      lambda       -0.2226768E-03
   maximum displ.:     0.0169683 α      in ANC's #7, #1, #73, ...

........................................................................
.............................. CYCLE   44 ..............................
........................................................................
   1    -83.7608146 -0.837608E+02  0.864E-03    2.06       0.0  T
   2    -83.7608159 -0.130874E-05  0.474E-03    2.06       3.3  T
   3    -83.7608163 -0.356500E-06  0.291E-03    2.06       5.3  T
   4    -83.7608164 -0.161906E-06  0.817E-04    2.06      18.9  T
   5    -83.7608164 -0.999756E-08  0.248E-04    2.06      62.2  T
   6    -83.7608164 -0.115745E-08  0.727E-05    2.06     212.3  T
   7    -83.7608164 -0.116785E-09  0.181E-05    2.06     854.8  T
     SCC iter.                  ...        0 min,  0.024 sec
     gradient                   ...        0 min,  0.075 sec
 * total energy  :   -82.9295607 Eh     change       -0.1431902E-03 Eh
   gradient norm :     0.0049686 Eh/α   predicted    -0.1119342E-03 ( -21.83%)
   displ. norm   :     0.0540955 α      lambda       -0.6763048E-04
   maximum displ.:     0.0250551 α      in ANC's #7, #1, #15, ...

........................................................................
.............................. CYCLE   45 ..............................
........................................................................
   1    -83.7624746 -0.837625E+02  0.775E-03    2.06       0.0  T
   2    -83.7624764 -0.179053E-05  0.494E-03    2.06       3.1  T
   3    -83.7624779 -0.149093E-05  0.169E-03    2.06       9.1  T
   4    -83.7624779 -0.297438E-07  0.632E-04    2.06      24.4  T
   5    -83.7624779 -0.184640E-08  0.168E-04    2.06      91.8  T
   6    -83.7624780 -0.342908E-09  0.469E-05    2.06     329.1  T
     SCC iter.                  ...        0 min,  0.020 sec
     gradient                   ...        0 min,  0.075 sec
 * total energy  :   -82.9296070 Eh     change       -0.4632262E-04 Eh
   gradient norm :     0.0035364 Eh/α   predicted    -0.3392256E-04 ( -26.77%)
   displ. norm   :     0.0846148 α      lambda       -0.5565805E-04
   maximum displ.:     0.0409612 α      in ANC's #7, #1, #25, ...

........................................................................
.............................. CYCLE   46 ..............................
........................................................................
   1    -83.7626556 -0.837627E+02  0.117E-02    2.05       0.0  T
   2    -83.7626598 -0.424607E-05  0.810E-03    2.05       1.9  T
   3    -83.7626644 -0.454214E-05  0.153E-03    2.05      10.1  T
   4    -83.7626644 -0.209733E-07  0.738E-04    2.05      20.9  T
   5    -83.7626644 -0.346779E-08  0.161E-04    2.05      95.8  T
   6    -83.7626644 -0.233015E-09  0.426E-05    2.05     361.9  T
     SCC iter.                  ...        0 min,  0.020 sec
     gradient                   ...        0 min,  0.075 sec
 * total energy  :   -82.9296510 Eh     change       -0.4396527E-04 Eh
   gradient norm :     0.0038360 Eh/α   predicted    -0.2826280E-04 ( -35.72%)
   displ. norm   :     0.1835720 α      lambda       -0.9472208E-04
   maximum displ.:     0.0876181 α      in ANC's #7, #1, #8, ...

........................................................................
.............................. CYCLE   47 ..............................
........................................................................
   1    -83.7612308 -0.837612E+02  0.236E-02    2.04       0.0  T
   2    -83.7612471 -0.163342E-04  0.168E-02    2.02       1.0  T
   3    -83.7612667 -0.195920E-04  0.264E-03    2.03       5.8  T
   4    -83.7612668 -0.551276E-07  0.137E-03    2.03      11.3  T
   5    -83.7612668 -0.127283E-07  0.196E-04    2.03      78.7  T
   6    -83.7612668 -0.509203E-09  0.601E-05    2.03     256.6  T
     SCC iter.                  ...        0 min,  0.020 sec
     gradient                   ...        0 min,  0.075 sec
 * total energy  :   -82.9297210 Eh     change       -0.7004319E-04 Eh
   gradient norm :     0.0051294 Eh/α   predicted    -0.4898531E-04 ( -30.06%)
   displ. norm   :     0.2331223 α      lambda       -0.9555258E-04
   maximum displ.:     0.1068914 α      in ANC's #7, #1, #8, ...

........................................................................
.............................. CYCLE   48 ..............................
........................................................................
   1    -83.7586314 -0.837586E+02  0.266E-02    2.02       0.0  T
   2    -83.7586510 -0.195948E-04  0.192E-02    2.00       1.0  T
   3    -83.7586762 -0.251774E-04  0.282E-03    2.01       5.5  T
   4    -83.7586762 -0.652771E-07  0.146E-03    2.01      10.6  T
   5    -83.7586763 -0.145472E-07  0.180E-04    2.01      85.8  T
   6    -83.7586763 -0.438405E-09  0.690E-05    2.01     223.6  T
     SCC iter.                  ...        0 min,  0.021 sec
     gradient                   ...        0 min,  0.075 sec
 * total energy  :   -82.9297918 Eh     change       -0.7079847E-04 Eh
   gradient norm :     0.0070448 Eh/α   predicted    -0.5037338E-04 ( -28.85%)
   displ. norm   :     0.2453945 α      lambda       -0.1041684E-03
   maximum displ.:     0.1080872 α      in ANC's #1, #7, #8, ...

........................................................................
.............................. CYCLE   49 ..............................
........................................................................
   1    -83.7561885 -0.837562E+02  0.231E-02    1.99       0.0  T
   2    -83.7562024 -0.138929E-04  0.167E-02    1.97       1.0  T
   3    -83.7562211 -0.186751E-04  0.232E-03    1.98       6.7  T
   4    -83.7562211 -0.551761E-07  0.117E-03    1.98      13.2  T
   5    -83.7562211 -0.871692E-08  0.174E-04    1.98      88.7  T
   6    -83.7562211 -0.193921E-09  0.695E-05    1.98     222.1  T
     SCC iter.                  ...        0 min,  0.021 sec
     gradient                   ...        0 min,  0.075 sec
 * total energy  :   -82.9298653 Eh     change       -0.7347149E-04 Eh
   gradient norm :     0.0083549 Eh/α   predicted    -0.5522365E-04 ( -24.84%)
   displ. norm   :     0.1848542 α      lambda       -0.1306018E-03
   maximum displ.:     0.0847998 α      in ANC's #1, #7, #8, ...

........................................................................
.............................. CYCLE   50 ..............................
........................................................................
   1    -83.7561124 -0.837561E+02  0.107E-02    1.97       0.0  T
   2    -83.7561153 -0.286487E-05  0.682E-03    1.96       2.3  T
   3    -83.7561178 -0.246464E-05  0.196E-03    1.96       7.9  T
   4    -83.7561178 -0.557633E-07  0.831E-04    1.96      18.6  T
   5    -83.7561178 -0.187731E-08  0.198E-04    1.96      77.8  T
   6    -83.7561178 -0.716639E-09  0.632E-05    1.96     244.2  T
     SCC iter.                  ...        0 min,  0.022 sec
     gradient                   ...        0 min,  0.076 sec
 * total energy  :   -82.9299614 Eh     change       -0.9610359E-04 Eh
   gradient norm :     0.0069551 Eh/α   predicted    -0.6763275E-04 ( -29.63%)
   displ. norm   :     0.3027664 α      lambda       -0.1489554E-03
   maximum displ.:     0.1345663 α      in ANC's #1, #8, #7, ...

........................................................................
.............................. CYCLE   51 ..............................
........................................................................
   1    -83.7549433 -0.837549E+02  0.147E-02    1.95       0.0  T
   2    -83.7549480 -0.470285E-05  0.103E-02    1.94       1.5  T
   3    -83.7549540 -0.598126E-05  0.246E-03    1.95       6.3  T
   4    -83.7549541 -0.520608E-07  0.104E-03    1.95      14.8  T
   5    -83.7549541 -0.529616E-08  0.257E-04    1.95      60.2  T
   6    -83.7549541 -0.164688E-08  0.909E-05    1.95     169.8  T
   7    -83.7549541 -0.323496E-09  0.295E-05    1.95     522.8  T
     SCC iter.                  ...        0 min,  0.027 sec
     gradient                   ...        0 min,  0.049 sec
 * total energy  :   -82.9300618 Eh     change       -0.1003867E-03 Eh
   gradient norm :     0.0100407 Eh/α   predicted    -0.8131930E-04 ( -18.99%)
   displ. norm   :     0.1931696 α      lambda       -0.2034414E-03
   maximum displ.:     0.0841179 α      in ANC's #1, #4, #8, ...

........................................................................
.............................. CYCLE   52 ..............................
........................................................................
   1    -83.7594707 -0.837595E+02  0.165E-02    1.95       0.0  T
   2    -83.7594783 -0.757081E-05  0.917E-03    1.96       1.7  T
   3    -83.7594831 -0.475102E-05  0.460E-03    1.96       3.4  T
   4    -83.7594834 -0.344296E-06  0.194E-03    1.96       8.0  T
   5    -83.7594834 -0.147260E-07  0.318E-04    1.96      48.5  T
   6    -83.7594834 -0.474492E-08  0.123E-04    1.96     125.5  T
   7    -83.7594834 -0.509331E-09  0.411E-05    1.96     375.5  T
     SCC iter.                  ...        0 min,  0.017 sec
     gradient                   ...        0 min,  0.040 sec
 * total energy  :   -82.9301572 Eh     change       -0.9540209E-04 Eh
   gradient norm :     0.0080554 Eh/α   predicted    -0.1056447E-03 (  10.74%)
   displ. norm   :     0.3073513 α      lambda       -0.1422879E-03
   maximum displ.:     0.1340485 α      in ANC's #1, #8, #4, ...

........................................................................
.............................. CYCLE   53 ..............................
........................................................................
   1    -83.7564253 -0.837564E+02  0.179E-02    1.96       0.0  T
   2    -83.7564335 -0.824495E-05  0.131E-02    1.95       1.2  T
   3    -83.7564434 -0.987827E-05  0.331E-03    1.95       4.7  T
   4    -83.7564435 -0.364684E-07  0.153E-03    1.95      10.1  T
   5    -83.7564435 -0.220639E-07  0.332E-04    1.95      46.5  T
   6    -83.7564435 -0.453215E-08  0.927E-05    1.95     166.4  T
   7    -83.7564435 -0.347256E-09  0.291E-05    1.95     530.3  T
     SCC iter.                  ...        0 min,  0.017 sec
     gradient                   ...        0 min,  0.040 sec
 * total energy  :   -82.9302387 Eh     change       -0.8146391E-04 Eh
   gradient norm :     0.0098279 Eh/α   predicted    -0.7789722E-04 (  -4.38%)
   displ. norm   :     0.1062047 α      lambda       -0.1645412E-03
   maximum displ.:     0.0396676 α      in ANC's #4, #11, #8, ...

........................................................................
.............................. CYCLE   54 ..............................
........................................................................
   1    -83.7582178 -0.837582E+02  0.995E-03    1.97       0.0  T
   2    -83.7582215 -0.369023E-05  0.454E-03    1.97       3.4  T
   3    -83.7582221 -0.591468E-06  0.199E-03    1.98       7.7  T
   4    -83.7582221 -0.168175E-07  0.102E-03    1.98      15.1  T
   5    -83.7582221 -0.183198E-07  0.280E-04    1.98      55.2  T
   6    -83.7582221 -0.196145E-08  0.978E-05    1.98     157.8  T
   7    -83.7582221 -0.414175E-09  0.267E-05    1.98     577.2  T
     SCC iter.                  ...        0 min,  0.017 sec
     gradient                   ...        0 min,  0.040 sec
 * total energy  :   -82.9303542 Eh     change       -0.1155093E-03 Eh
   gradient norm :     0.0055068 Eh/α   predicted    -0.8320064E-04 ( -27.97%)
   displ. norm   :     0.2269393 α      lambda       -0.1277523E-03
   maximum displ.:     0.0918936 α      in ANC's #4, #1, #11, ...

........................................................................
.............................. CYCLE   55 ..............................
........................................................................
   1    -83.7587308 -0.837587E+02  0.106E-02    2.00       0.0  T
   2    -83.7587357 -0.490412E-05  0.590E-03    2.00       2.6  T
   3    -83.7587375 -0.179703E-05  0.144E-03    2.00      10.7  T
   4    -83.7587375 -0.182552E-07  0.976E-04    2.00      15.8  T
   5    -83.7587375 -0.167269E-07  0.316E-04    2.00      48.8  T
   6    -83.7587375 -0.248430E-08  0.869E-05    2.00     177.7  T
   7    -83.7587375 -0.172108E-09  0.282E-05    2.00     548.0  T
     SCC iter.                  ...        0 min,  0.017 sec
     gradient                   ...        0 min,  0.040 sec
 * total energy  :   -82.9304430 Eh     change       -0.8885404E-04 Eh
   gradient norm :     0.0055129 Eh/α   predicted    -0.6716865E-04 ( -24.41%)
   displ. norm   :     0.1808229 α      lambda       -0.9878260E-04
   maximum displ.:     0.0758574 α      in ANC's #4, #11, #6, ...

........................................................................
.............................. CYCLE   56 ..............................
........................................................................
   1    -83.7599981 -0.837600E+02  0.870E-03    2.02       0.0  T
   2    -83.7600011 -0.298989E-05  0.429E-03    2.02       3.6  T
   3    -83.7600018 -0.684753E-06  0.176E-03    2.02       8.8  T
   4    -83.7600018 -0.221378E-08  0.815E-04    2.02      18.9  T
   5    -83.7600018 -0.106910E-07  0.168E-04    2.02      92.1  T
   6    -83.7600018 -0.985622E-09  0.868E-05    2.02     177.7  T
     SCC iter.                  ...        0 min,  0.015 sec
     gradient                   ...        0 min,  0.040 sec
 * total energy  :   -82.9305094 Eh     change       -0.6640196E-04 Eh
   gradient norm :     0.0052544 Eh/α   predicted    -0.5101429E-04 ( -23.17%)
   displ. norm   :     0.3330550 α      lambda       -0.9825306E-04
   maximum displ.:     0.1367541 α      in ANC's #4, #8, #6, ...

........................................................................
.............................. CYCLE   57 ..............................
........................................................................
   1    -83.7571734 -0.837572E+02  0.191E-02    2.04       0.0  T
   2    -83.7571833 -0.984857E-05  0.120E-02    2.03       1.3  T
   3    -83.7571905 -0.728367E-05  0.245E-03    2.04       6.3  T
   4    -83.7571906 -0.684430E-07  0.144E-03    2.04      10.7  T
   5    -83.7571906 -0.226633E-07  0.461E-04    2.04      33.5  T
   6    -83.7571906 -0.789824E-08  0.118E-04    2.04     131.3  T
   7    -83.7571906 -0.214868E-09  0.275E-05    2.04     560.8  T
     SCC iter.                  ...        0 min,  0.017 sec
     gradient                   ...        0 min,  0.040 sec
 * total energy  :   -82.9305485 Eh     change       -0.3909714E-04 Eh
   gradient norm :     0.0072980 Eh/α   predicted    -0.5457691E-04 (  39.59%)
   displ. norm   :     0.0958312 α      lambda       -0.1004130E-03
   maximum displ.:     0.0676896 α      in ANC's #7, #1, #2, ...

........................................................................
.............................. CYCLE   58 ..............................
........................................................................
   1    -83.7610226 -0.837610E+02  0.944E-03    2.05       0.0  T
   2    -83.7610245 -0.190650E-05  0.465E-03    2.06       3.3  T
   3    -83.7610249 -0.382077E-06  0.268E-03    2.05       5.8  T
   4    -83.7610249 -0.548743E-07  0.142E-03    2.06      10.8  T
   5    -83.7610250 -0.506523E-07  0.144E-04    2.05     107.1  T
   6    -83.7610250 -0.375138E-09  0.488E-05    2.05     316.1  T
     SCC iter.                  ...        0 min,  0.015 sec
     gradient                   ...        0 min,  0.040 sec
 * total energy  :   -82.9305938 Eh     change       -0.4525781E-04 Eh
   gradient norm :     0.0039078 Eh/α   predicted    -0.5066868E-04 (  11.96%)
   displ. norm   :     0.0837148 α      lambda       -0.4004907E-04
   maximum displ.:     0.0350815 α      in ANC's #6, #4, #13, ...

........................................................................
.............................. CYCLE   59 ..............................
........................................................................
   1    -83.7599702 -0.837600E+02  0.902E-03    2.05       0.0  T
   2    -83.7599729 -0.266908E-05  0.636E-03    2.05       2.4  T
   3    -83.7599754 -0.249111E-05  0.146E-03    2.05      10.6  T
   4    -83.7599754 -0.180065E-07  0.690E-04    2.05      22.4  T
   5    -83.7599754 -0.552362E-09  0.171E-04    2.05      90.4  T
   6    -83.7599754 -0.432948E-09  0.544E-05    2.05     283.9  T
     SCC iter.                  ...        0 min,  0.015 sec
     gradient                   ...        0 min,  0.040 sec
 * total energy  :   -82.9306180 Eh     change       -0.2418056E-04 Eh
   gradient norm :     0.0038833 Eh/α   predicted    -0.2016730E-04 ( -16.60%)
   displ. norm   :     0.1225968 α      lambda       -0.3799179E-04
   maximum displ.:     0.0512776 α      in ANC's #6, #4, #11, ...

........................................................................
.............................. CYCLE   60 ..............................
........................................................................
   1    -83.7589240 -0.837589E+02  0.112E-02    2.05       0.0  T
   2    -83.7589269 -0.284268E-05  0.782E-03    2.04       2.0  T
   3    -83.7589308 -0.389647E-05  0.143E-03    2.04      10.8  T
[...]
H30-C4-H29=111.61              H31-C4-C3=108.46               H31-C4-H29=107.83              H31-C4-H30=108.62              
C6-O5-C3=125.15                N7-C6-O5=114.09                C24-C6-O5=122.46               C24-C6-N7=123.31               
C8-N7-C6=115.61                C9-C8-N7=117.45                N21-C8-N7=126.90               N21-C8-C9=115.63               
C10-C9-C8=108.32               C11-C9-C8=109.63               C11-C9-C10=110.91              N12-C9-C8=107.88               
N12-C9-C10=110.04              N12-C9-C11=110.00              H32-C10-C9=110.48              H33-C10-C9=109.91              
H33-C10-H32=109.18             H34-C10-C9=108.97              H34-C10-H32=109.24             H34-C10-H33=109.04             
 
 selected dihedral angles (degree)
 ---------------------------------
C3-O2-C1-H26= 67.90           C3-O2-C1-H27=187.47           C3-O2-C1-H28=307.27           C4-C3-O2-C1=177.73            
O5-C3-O2-C1=357.55            H29-C4-C3-O2=148.71           H29-C4-C3-O5=328.91           H30-C4-C3-O2= 25.22           
H30-C4-C3-O5=205.42           H31-C4-C3-O2=266.66           H31-C4-C3-O5= 86.86           C6-O5-C3-O2=170.38            
C6-O5-C3-C4=350.18            N7-C6-O5-C3=133.91            C24-C6-O5-C3=309.62           C8-N7-C6-O5=175.79            
C8-N7-C6-C24=  0.12           C9-C8-N7-C6=180.74            N21-C8-N7-C6=358.94           C10-C9-C8-N7=106.49           
C10-C9-C8-N21=288.08          C11-C9-C8-N7=227.63           C11-C9-C8-N21= 49.22          N12-C9-C8-N7=347.41           
N12-C9-C8-N21=169.00          H32-C10-C9-C8=176.12          H32-C10-C9-C11= 55.77         H32-C10-C9-N12=293.82         
H33-C10-C9-C8=296.66          H33-C10-C9-C11=176.32         H33-C10-C9-N12= 54.37         H34-C10-C9-C8= 56.10          
H34-C10-C9-C11=295.75         H34-C10-C9-N12=173.80         
           -------------------------------------------------
          |                Final Singlepoint                |
           -------------------------------------------------

          ...................................................
          :                      SETUP                      :
          :.................................................:
          :  # basis functions                 134          :
          :  # atomic orbitals                 134          :
          :  # shells                           84          :
          :  # electrons                       134          :
          :  # halogen bonds                     0          :
          :  max. iterations                   250          :
          :  Hamiltonian                  GFN1-xTB          :
          :  restarted?                      false          :
          :  GBSA solvation                   true          :
          :  PC potential                    false          :
          :  electronic temp.          300.0000000     K    :
          :  accuracy                    1.0000000          :
          :  -> integral cutoff          0.2500000E+02      :
          :  -> integral neglect         0.1000000E-07      :
          :  -> SCF convergence          0.1000000E-05 Eh   :
          :  -> wf. convergence          0.2000000E-04 e    :
          :  Broyden damping             0.4000000          :
          ...................................................

 iter      E             dE          RMSdq      gap      omega  full diag
   1    -83.7451080 -0.837451E+02  0.828E-06    1.55       0.0  T
   2    -83.7451080 -0.753175E-12  0.392E-06    1.55    3939.9  T
   3    -83.7451080 -0.270006E-12  0.217E-06    1.55    7126.1  T

   *** convergence criteria satisfied after 3 iterations ***

         #    Occupation            Energy/Eh            Energy/eV
      -------------------------------------------------------------
         1        2.0000           -0.9073736             -24.6909
       ...           ...                  ...                  ...
        61        2.0000           -0.4560728             -12.4104
        62        2.0000           -0.4470192             -12.1640
        63        2.0000           -0.4467345             -12.1563
        64        2.0000           -0.4353657             -11.8469
        65        2.0000           -0.4320273             -11.7561
        66        2.0000           -0.4013718             -10.9219
        67        2.0000           -0.3972723             -10.8103 (HOMO)
        68                         -0.3403503              -9.2614 (LUMO)
        69                         -0.3037738              -8.2661
        70                         -0.2609726              -7.1014
        71                         -0.2545258              -6.9260
        72                         -0.2516528              -6.8478
       ...                                ...                  ...
       134                          0.7258989              19.7527
      -------------------------------------------------------------
                  HL-Gap            0.0569220 Eh            1.5489 eV
             Fermi-level           -0.3688113 Eh          -10.0359 eV

 SCC (total)                   0 d,  0 h,  0 min,  0.070 sec
 SCC setup                      ...        0 min,  0.001 sec (  1.761%)
 Dispersion                     ...        0 min,  0.000 sec (  0.300%)
 classical contributions        ...        0 min,  0.000 sec (  0.119%)
 integral evaluation            ...        0 min,  0.018 sec ( 25.786%)
 iterations                     ...        0 min,  0.008 sec ( 11.440%)
 molecular gradient             ...        0 min,  0.042 sec ( 59.970%)
 printout                       ...        0 min,  0.000 sec (  0.583%)

         :::::::::::::::::::::::::::::::::::::::::::::::::::::
         ::                     SUMMARY                     ::
         :::::::::::::::::::::::::::::::::::::::::::::::::::::
         :: total energy             -82.967234895322 Eh    ::
         :: total w/o Gsasa/hb       -82.942066202632 Eh    ::
         :: gradient norm              0.000699820424 Eh/a0 ::
         :: HOMO-LUMO gap              1.548926890219 eV    ::
         ::.................................................::
         :: SCC energy               -83.745108045506 Eh    ::
         :: -> electrostatic           0.368665950195 Eh    ::
         :: -> Gsolv                  -0.062441451943 Eh    ::
         ::    -> Gelec               -0.037272759252 Eh    ::
         ::    -> Gsasa               -0.025517173835 Eh    ::
         ::    -> Ghb                 -0.007275797859 Eh    ::
         ::    -> Gshift               0.007624279005 Eh    ::
         :: repulsion energy           0.802722491637 Eh    ::
         :: dispersion energy         -0.024849341453 Eh    ::
         :: halogen bond corr.         0.000000000000 Eh    ::
         :: add. restraining           0.000000000000 Eh    ::
         :: total charge               0.000000000000 e     ::
         :::::::::::::::::::::::::::::::::::::::::::::::::::::

           -------------------------------------------------
          |                Property Printout                |
           -------------------------------------------------

    * Orbital Energies and Occupations

         #    Occupation            Energy/Eh            Energy/eV
      -------------------------------------------------------------
         1        2.0000           -0.9073736             -24.6909
       ...           ...                  ...                  ...
        55        2.0000           -0.5009352             -13.6311
        56        2.0000           -0.4893300             -13.3153
        57        2.0000           -0.4880877             -13.2815
        58        2.0000           -0.4788867             -13.0312
        59        2.0000           -0.4640062             -12.6263
        60        2.0000           -0.4578276             -12.4581
        61        2.0000           -0.4560728             -12.4104
        62        2.0000           -0.4470192             -12.1640
        63        2.0000           -0.4467345             -12.1563
        64        2.0000           -0.4353657             -11.8469
        65        2.0000           -0.4320273             -11.7561
        66        2.0000           -0.4013718             -10.9219
        67        2.0000           -0.3972723             -10.8103 (HOMO)
        68                         -0.3403503              -9.2614 (LUMO)
        69                         -0.3037738              -8.2661
        70                         -0.2609726              -7.1014
        71                         -0.2545258              -6.9260
        72                         -0.2516528              -6.8478
        73                         -0.1920038              -5.2247
        74                         -0.1684539              -4.5839
        75                         -0.1537403              -4.1835
        76                         -0.1418696              -3.8605
        77                         -0.1398190              -3.8047
        78                         -0.1133276              -3.0838
       ...                                ...                  ...
       134                          0.7258989              19.7527
      -------------------------------------------------------------
                  HL-Gap            0.0569220 Eh            1.5489 eV
             Fermi-level           -0.3688113 Eh          -10.0359 eV

  Mulliken/CM5 charges         n(s)   n(p)   n(d)
     1C     0.15329  0.03128   0.994  2.853  0.000
     2O    -0.34408 -0.43650   1.666  4.678  0.000
     3C     0.59034  0.63882   0.984  2.425  0.000
     4C    -0.12011 -0.25911   1.024  3.096  0.000
     5O    -0.33145 -0.39590   1.659  4.672  0.000
     6C     0.31265  0.41170   0.977  2.710  0.000
     7N    -0.44783 -0.63112   1.536  3.912  0.000
     8C     0.28751  0.44270   1.019  2.693  0.000
     9C     0.15537  0.19764   1.062  2.783  0.000
    10C    -0.09785 -0.23670   1.017  3.081  0.000
    11C    -0.09854 -0.23683   1.016  3.082  0.000
    12N    -0.33455 -0.68324   1.431  3.904  0.000
    13C     0.46382  0.57409   0.973  2.563  0.000
    14O    -0.58327 -0.62785   1.727  4.856  0.000
    15C     0.33285  0.45856   1.012  2.656  0.000
    16N    -0.24926 -0.35911   1.569  3.680  0.000
    17N    -0.27015 -0.37768   1.566  3.704  0.000
    18C     0.38666  0.49520   1.007  2.607  0.000
    19C    -0.11126 -0.24866   1.012  3.100  0.000
    20O    -0.34096 -0.39239   1.692  4.649  0.000
    21N    -0.45872 -0.63799   1.537  3.921  0.000
    22C     0.43982  0.54660   0.982  2.578  0.000
    23O    -0.63798 -0.68059   1.737  4.901  0.000
    24C     0.15574  0.18844   1.027  2.817  0.000
    25O    -0.54544 -0.74252   1.710  4.836  0.000
    26H     0.07874  0.14028   0.921  0.000  0.000
    27H     0.08355  0.14404   0.916  0.000  0.000
    28H     0.07838  0.14126   0.922  0.000  0.000
    29H     0.09768  0.15572   0.902  0.000  0.000
    30H     0.10086  0.15758   0.899  0.000  0.000
    31H     0.12910  0.19078   0.871  0.000  0.000
    32H     0.05043  0.10968   0.950  0.000  0.000
    33H     0.03680  0.09378   0.963  0.000  0.000
    34H     0.04183  0.09863   0.958  0.000  0.000
    35H     0.03543  0.09240   0.965  0.000  0.000
    36H     0.04854  0.10794   0.951  0.000  0.000
    37H     0.04170  0.10035   0.958  0.000  0.000
    38H     0.24230  0.45770   0.758  0.000  0.000
    39H     0.06770  0.12357   0.932  0.000  0.000
    40H     0.07717  0.13172   0.923  0.000  0.000
    41H     0.07753  0.13193   0.922  0.000  0.000
    42H     0.40566  0.58379   0.594  0.000  0.000

Wiberg/Mayer (AO) data.
largest (>0.10) Wiberg bond orders for each atom

 ---------------------------------------------------------------------------
     #   Z sym  total        # sym  WBO       # sym  WBO       # sym  WBO
 ---------------------------------------------------------------------------
     1   6 C    3.826 --    27 H    0.982    28 H    0.975    26 H    0.974
                             2 O    0.852
     2   8 O    2.304 --     3 C    1.273     1 C    0.852
     3   6 C    3.781 --     5 O    1.294     2 O    1.273     4 C    1.038
     4   6 C    3.970 --     3 C    1.038    30 H    0.968    29 H    0.963
                            31 H    0.915
     5   8 O    2.351 --     3 C    1.294     6 C    0.832
     6   6 C    3.813 --    24 C    1.488     7 N    1.257     5 O    0.832
     7   7 N    3.003 --     8 C    1.381     6 C    1.257
     8   6 C    3.950 --    21 N    1.425     7 N    1.381     9 C    0.978
     9   6 C    3.932 --    11 C    0.986     8 C    0.978    10 C    0.978
                            12 N    0.924
    10   6 C    3.992 --    33 H    0.986    34 H    0.985    32 H    0.982
                             9 C    0.978
    11   6 C    3.992 --    35 H    0.986     9 C    0.986    37 H    0.983
                            36 H    0.983
    12   7 N    3.371 --    13 C    1.284     9 C    0.924    38 H    0.881
                            14 O    0.185
    13   6 C    3.922 --    14 O    1.574    12 N    1.284    15 C    0.983
    14   8 O    1.894 --    13 C    1.574    12 N    0.185
    15   6 C    3.871 --    16 N    1.616    20 O    1.063    13 C    0.983
    16   7 N    3.010 --    15 C    1.616    17 N    1.194
    17   7 N    2.979 --    18 C    1.610    16 N    1.194
    18   6 C    3.873 --    17 N    1.610    20 O    1.082    19 C    1.031
    19   6 C    3.987 --    18 C    1.031    39 H    0.983    40 H    0.965
                            41 H    0.963
    20   8 O    2.328 --    18 C    1.082    15 C    1.063
    21   7 N    2.996 --     8 C    1.425    22 C    1.216    23 O    0.116
    22   6 C    3.930 --    23 O    1.507    21 N    1.216    24 C    1.071
    23   8 O    1.834 --    22 C    1.507    21 N    0.116
    24   6 C    3.905 --     6 C    1.488    22 C    1.071    25 O    1.046
    25   8 O    2.035 --    24 C    1.046    42 H    0.805
    26   1 H    0.998 --     1 C    0.974
    27   1 H    1.003 --     1 C    0.982
    28   1 H    0.999 --     1 C    0.975
    29   1 H    0.992 --     4 C    0.963
    30   1 H    0.991 --     4 C    0.968
    31   1 H    0.999 --     4 C    0.915
    32   1 H    1.010 --    10 C    0.982
    33   1 H    1.004 --    10 C    0.986
    34   1 H    1.008 --    10 C    0.985
    35   1 H    1.004 --    11 C    0.986
    36   1 H    1.011 --    11 C    0.983
    37   1 H    1.016 --    11 C    0.983
    38   1 H    0.974 --    12 N    0.881
    39   1 H    0.999 --    19 C    0.983
    40   1 H    0.997 --    19 C    0.965
    41   1 H    0.997 --    19 C    0.963
    42   1 H    0.855 --    25 O    0.805
 ---------------------------------------------------------------------------

Topologies differ in total number of bonds
Writing topology from bond orders to xtbtopo.mol

 dipole moment from electron density (au)
     X       Y       Z   
  -2.3766   5.8561  -2.2033  total (Debye):   17.012

           -------------------------------------------------
          |                Geometry Summary                 |
           -------------------------------------------------

      molecular mass/u    :      351.3152409
   center of mass at/Å    :       -0.0441059      -0.1116310       0.1394210
  moments of inertia/u·Å² :        0.1712034E+04   0.3983903E+04   0.5407936E+04
rotational constants/cm⁻¹ :        0.9846553E-02   0.4231436E-02   0.3117203E-02

 * 38 selected distances

     #   Z          #   Z                                           value/Å
     1   6 C        2   8 O                                       1.4406707
     2   8 O        3   6 C                                       1.2842328
     3   6 C        4   6 C                                       1.4754866
     3   6 C        5   8 O                                       1.2770528
     6   6 C        7   7 N                                       1.3412906
     7   7 N        8   6 C                                       1.3302848
     9   6 C       10   6 C                                       1.5365562 (max)
     9   6 C       11   6 C                                       1.5342953
     9   6 C       12   7 N                                       1.4620803
    12   7 N       13   6 C                                       1.3406650
    13   6 C       14   8 O                                       1.2216620
    15   6 C       16   7 N                                       1.2990962
    17   7 N       18   6 C                                       1.2981632
    18   6 C       19   6 C                                       1.4798051
    15   6 C       20   8 O                                       1.3463403
    18   6 C       20   8 O                                       1.3413695
     8   6 C       21   7 N                                       1.3208088
    21   7 N       22   6 C                                       1.3604234
    22   6 C       23   8 O                                       1.2376325
     6   6 C       24   6 C                                       1.3582755
    24   6 C       25   8 O                                       1.3601603
     1   6 C       26   1 H                                       1.0898396
     1   6 C       27   1 H                                       1.0871401
     1   6 C       28   1 H                                       1.0899432
     4   6 C       29   1 H                                       1.0885362
     4   6 C       30   1 H                                       1.0870885
     4   6 C       31   1 H                                       1.0934431
    10   6 C       32   1 H                                       1.0885943
    10   6 C       33   1 H                                       1.0891292
    10   6 C       34   1 H                                       1.0892636
    11   6 C       35   1 H                                       1.0893587
    11   6 C       36   1 H                                       1.0886205
    11   6 C       37   1 H                                       1.0894859
    12   7 N       38   1 H                                       1.0137710
    19   6 C       39   1 H                                       1.0870848
    19   6 C       40   1 H                                       1.0897864
    19   6 C       41   1 H                                       1.0900378
    25   8 O       42   1 H                                       0.9796368 (min)

 * 6 distinct bonds (by element types)

   Z      Z             #   av. dist./Å        max./Å        min./Å
   1 H    6 C          15     1.0891568     1.0934431     1.0870848
   6 C    6 C           5     1.4768837     1.5365562     1.3582755
   1 H    7 N           1     1.0137710     1.0137710     1.0137710
   6 C    7 N           8     1.3441015     1.4620803     1.2981632
   1 H    8 O           1     0.9796368     0.9796368     0.9796368
   6 C    8 O           8     1.3136401     1.4406707     1.2216620


optimized geometry written to: xtbopt.xyz


           -------------------------------------------------
          | TOTAL ENERGY              -82.967234895322 Eh   |
          | GRADIENT NORM               0.000699820424 Eh/α |
          | HOMO-LUMO GAP               1.548926890219 eV   |
           -------------------------------------------------

------------------------------------------------------------------------
 * finished run on 2023/06/20 at 18:15:36.336     
------------------------------------------------------------------------
 total:
 * wall-time:     0 d,  0 h,  0 min, 15.224 sec
 *  cpu-time:     0 d,  0 h,  0 min, 14.326 sec
 * ratio c/w:     0.941 speedup
 SCF:
 * wall-time:     0 d,  0 h,  0 min,  0.210 sec
 *  cpu-time:     0 d,  0 h,  0 min,  0.186 sec
 * ratio c/w:     0.888 speedup
 ANC optimizer:
 * wall-time:     0 d,  0 h,  0 min, 14.942 sec
 *  cpu-time:     0 d,  0 h,  0 min, 14.110 sec
 * ratio c/w:     0.944 speedup

