42
 energy: -83.013173690101 gnorm: 0.000665969806 xtb: 6.5.1 (579679a)
C           -2.36739902157393        4.63625593124447        0.33825700537878
O           -2.56613626659578        3.21597447576981        0.26627299319748
C           -1.48151213767338        2.48602973042439       -0.02309295645161
O           -0.39492329997707        2.97249533288827       -0.21901870083948
C           -1.75847588745292        1.02138775453641       -0.07995940097202
N           -0.66395858365678        0.26935838591958       -0.32730117180347
C           -0.78687295372388       -1.03220812215477       -0.42085812977176
C            0.43966252589734       -1.86176971248457       -0.73915259983042
C            0.35149744597340       -2.29930065397156       -2.20999109695689
C            0.50926168694857       -3.07800757885373        0.19235764315627
N            1.60505202249989       -1.00529674812693       -0.53607955155556
C            2.87015971254415       -1.39664855586201       -0.75095545951041
O            3.21633667215388       -2.49902576470021       -1.15126662389264
C            3.86255205194220       -0.33301550614790       -0.43822389104627
N            5.15165103504607       -0.39376467254560       -0.56648215661323
N            5.64653749262704        0.80467268349429       -0.14274749748698
C            4.62858419288017        1.52146228743673        0.21889035660462
C            4.63808011835601        2.89870523207998        0.75840485805299
O            3.47016815304715        0.86126569512834        0.05631594639222
N           -1.94531693240138       -1.70007032372151       -0.29309048753363
C           -3.03182068307579       -1.00098804059305       -0.04172028129164
O           -4.20319695342138       -1.62192632876785        0.10776519017715
C           -4.20741226298667       -3.04240003862690       -0.01497710195733
C           -2.99821899573579        0.41904690579416        0.07676937597347
O           -4.15807730618556        1.04512750500610        0.31989896637281
H           -3.33035407409176        5.07226734897527        0.59223814748052
H           -1.62765501372116        4.86745006538681        1.10762077067770
H           -2.02003365509745        5.01057119477059       -0.62712124515551
H            0.35938814157166       -1.42400109012799       -2.85786529461148
H           -0.57702789925246       -2.84666042458963       -2.36273502456779
H            1.19213356726371       -2.94273401363137       -2.46354513756483
H            1.36221682616095       -3.70308962912037       -0.06580079469120
H           -0.40486521764829       -3.65962817830111        0.08856640572151
H            0.60493982794534       -2.74997542558389        1.22610956107790
H            1.41382384605364       -0.05935979712589       -0.22826499231628
H            4.18753755894093        2.91281570631852        1.75041023017023
H            4.05446986402110        3.55565404246002        0.11405136778717
H            5.66115931350495        3.26116457314279        0.81774602782086
H           -3.89015823442989       -3.33699428295691       -1.01897748809898
H           -3.53196154691730       -3.48895121831190        0.71972958097188
H           -5.23100745831103       -3.36541027434173        0.16756052075292
H           -4.04882667144240        2.00952152986949        0.38938813675573
