      -----------------------------------------------------------      
     |                   =====================                   |     
     |                           x T B                           |     
     |                   =====================                   |     
     |                         S. Grimme                         |     
     |          Mulliken Center for Theoretical Chemistry        |     
     |                    University of Bonn                     |     
      -----------------------------------------------------------      

   * xtb version 6.5.1 (579679a) compiled by 'ehlert@majestix' on 2022-07-11

   xtb is free software: you can redistribute it and/or modify it under
   the terms of the GNU Lesser General Public License as published by
   the Free Software Foundation, either version 3 of the License, or
   (at your option) any later version.
   
   xtb is distributed in the hope that it will be useful,
   but WITHOUT ANY WARRANTY; without even the implied warranty of
   MERCHANTABILITY or FITNESS FOR A PARTICULAR PURPOSE.  See the
   GNU Lesser General Public License for more details.
   
   Cite this work as:
   * C. Bannwarth, E. Caldeweyher, S. Ehlert, A. Hansen, P. Pracht,
     J. Seibert, S. Spicher, S. Grimme, WIREs Comput. Mol. Sci., 2020, 11,
     e01493. DOI: 10.1002/wcms.1493
   
   for GFN2-xTB:
   * C. Bannwarth, S. Ehlert and S. Grimme., J. Chem. Theory Comput., 2019,
     15, 1652-1671. DOI: 10.1021/acs.jctc.8b01176
   for GFN1-xTB:
   * S. Grimme, C. Bannwarth, P. Shushkov, J. Chem. Theory Comput., 2017,
     13, 1989-2009. DOI: 10.1021/acs.jctc.7b00118
   for GFN0-xTB:
   * P. Pracht, E. Caldeweyher, S. Ehlert, S. Grimme, ChemRxiv, 2019, preprint.
     DOI: 10.26434/chemrxiv.8326202.v1
   for GFN-FF:
   * S. Spicher and S. Grimme, Angew. Chem. Int. Ed., 2020, 59, 15665-15673.
     DOI: 10.1002/anie.202004239
   
   for ALPB and GBSA implicit solvation:
   * S. Ehlert, M. Stahn, S. Spicher, S. Grimme, J. Chem. Theory Comput.,
     2021, 17, 4250-4261. DOI: 10.1021/acs.jctc.1c00471
   
   for DFT-D4:
   * E. Caldeweyher, C. Bannwarth and S. Grimme, J. Chem. Phys., 2017,
     147, 034112. DOI: 10.1063/1.4993215
   * E. Caldeweyher, S. Ehlert, A. Hansen, H. Neugebauer, S. Spicher,
     C. Bannwarth and S. Grimme, J. Chem. Phys., 2019, 150, 154122.
     DOI: 10.1063/1.5090222
   * E. Caldeweyher, J.-M. Mewes, S. Ehlert and S. Grimme, Phys. Chem. Chem. Phys.
     2020, 22, 8499-8512. DOI: 10.1039/D0CP00502A
   
   for sTDA-xTB:
   * S. Grimme and C. Bannwarth, J. Chem. Phys., 2016, 145, 054103.
     DOI: 10.1063/1.4959605
   
   in the mass-spec context:
   * V. Asgeirsson, C. Bauer and S. Grimme, Chem. Sci., 2017, 8, 4879.
     DOI: 10.1039/c7sc00601b
   * J. Koopman and S. Grimme, ACS Omega 2019, 4, 12, 15120-15133.
     DOI: 10.1021/acsomega.9b02011
   
   for metadynamics refer to:
   * S. Grimme, J. Chem. Theory Comput., 2019, 155, 2847-2862
     DOI: 10.1021/acs.jctc.9b00143
   
   for SPH calculations refer to:
   * S. Spicher and S. Grimme, J. Chem. Theory Comput., 2021, 17, 1701-1714
     DOI: 10.1021/acs.jctc.0c01306
   
   with help from (in alphabetical order)
   P. Atkinson, C. Bannwarth, F. Bohle, G. Brandenburg, E. Caldeweyher
   M. Checinski, S. Dohm, S. Ehlert, S. Ehrlich, I. Gerasimov, C. Hölzer
   A. Katbashev, J. Koopman, C. Lavigne, S. Lehtola, F. März, M. Müller,
   F. Musil, H. Neugebauer, J. Pisarek, C. Plett, P. Pracht, F. Pultar,
   J. Seibert, P. Shushkov, S. Spicher, M. Stahn, M. Steiner, T. Strunk,
   J. Stückrath, T. Rose, and J. Unsleber
   
 * started run on 2023/06/21 at 17:19:06.278     

           -------------------------------------------------
          |                Calculation Setup                |
           -------------------------------------------------

          program call               : /lustre/hpc/kemi/ree/PhD/git/ReactivityQM/dep/xtb-6.5.1/bin/xtb --gfn 1 /lustre/hpc/kemi/ree/PhD/git/ReactivityQM/calculations/R02oxygendeprot/reac01prodN03/conf14/R02oxygendeprot_reac01prodN03_conf14_gfn1.xyz --opt --vfukui --chrg 0 --uhf 0 --alpb DMSO
          hostname                   : node070
          coordinate file            : /lustre/hpc/kemi/ree/PhD/git/ReactivityQM/calculations/R02oxygendeprot/reac01prodN03/conf14/R02oxygendeprot_reac01prodN03_conf14_gfn1.xyz
          omp threads                :                     1

   ID    Z sym.   atoms
    1    6 C      1, 3, 5, 6, 8-11, 13, 15, 18, 19, 22, 24
    2    8 O      2, 4, 14, 20, 23, 25
    3    7 N      7, 12, 16, 17, 21
    4    1 H      26-42

           -------------------------------------------------
          |                 G F N 1 - x T B                 |
           -------------------------------------------------

        Reference                      10.1021/acs.jctc.7b00118
      * Hamiltonian:
        H0-scaling (s, p, d)           1.850000    2.250000    2.000000
        zeta-weighting                 0.000000
      * Dispersion:
        s8                             2.400000
        a1                             0.630000
        a2                             5.000000
        s9                             0.000000
      * Repulsion:
        kExp                           1.500000
        rExp                           1.000000
      * Coulomb:
        alpha                          2.000000
        third order                    atomic
        anisotropic                    false
      * Halogen bond correction:
        rad-scale                      1.300000
        damping                        0.440000

      * Solvation model:               ALPB
        Solvent                        DMSO
        Parameter file                 internal GFN1-xTB/ALPB
        Dielectric constant                4.6680E+01
        Reference state                gsolv [1 M gas/solution]
        Free energy shift                  7.6243E-03 Eh       4.7843E+00 kcal/mol
        Temperature                        2.9815E+02 K
        Density                            1.1000E+00 kg/L
        Solvent mass                       7.8130E+01 g/mol
        Interaction kernel             P16
        Born radius scaling (c1)           1.7672E+00
        Born radii integrator          GBOBC
        Born offset                        0.0000E+00 a0       0.0000E+00 AA
        H-bond correction              true
        Ion screening                  false
        Surface tension                    1.0000E-05 Eh       1.5569E+01 dyn/cm
        Grid points                               230 per atom

          ...................................................
          :                      SETUP                      :
          :.................................................:
          :  # basis functions                 134          :
          :  # atomic orbitals                 134          :
          :  # shells                           84          :
          :  # electrons                       134          :
          :  # halogen bonds                     0          :
          :  max. iterations                   250          :
          :  Hamiltonian                  GFN1-xTB          :
          :  restarted?                      false          :
          :  GBSA solvation                   true          :
          :  PC potential                    false          :
          :  electronic temp.          300.0000000     K    :
          :  accuracy                    1.0000000          :
          :  -> integral cutoff          0.2500000E+02      :
          :  -> integral neglect         0.1000000E-07      :
          :  -> SCF convergence          0.1000000E-05 Eh   :
          :  -> wf. convergence          0.2000000E-04 e    :
          :  Broyden damping             0.4000000          :
          ...................................................

 iter      E             dE          RMSdq      gap      omega  full diag
   1    -83.3735301 -0.833735E+02  0.844E+00    2.39       0.0  T
   2    -83.7306549 -0.357125E+00  0.507E+00    2.10       1.0  T
   3    -83.7198008  0.108541E-01  0.185E+00    2.17       1.0  T
   4    -83.7547600 -0.349592E-01  0.132E-01    2.09       1.0  T
   5    -83.7552562 -0.496146E-03  0.370E-02    2.14       1.0  T
   6    -83.7552737 -0.175089E-04  0.108E-02    2.15       1.4  T
   7    -83.7552752 -0.151609E-05  0.241E-03    2.15       6.4  T
   8    -83.7552754 -0.184538E-06  0.653E-04    2.15      23.6  T
   9    -83.7552754 -0.653421E-08  0.294E-04    2.15      52.4  T
  10    -83.7552754 -0.883261E-09  0.768E-05    2.15     200.9  T
  11    -83.7552754 -0.908642E-10  0.193E-05    2.15     799.3  T

   *** convergence criteria satisfied after 11 iterations ***

         #    Occupation            Energy/Eh            Energy/eV
      -------------------------------------------------------------
         1        2.0000           -0.8650100             -23.5381
       ...           ...                  ...                  ...
        61        2.0000           -0.4747987             -12.9199
        62        2.0000           -0.4634016             -12.6098
        63        2.0000           -0.4604603             -12.5298
        64        2.0000           -0.4545335             -12.3685
        65        2.0000           -0.4453714             -12.1192
        66        2.0000           -0.4444947             -12.0953
        67        2.0000           -0.4414474             -12.0124 (HOMO)
        68                         -0.3624301              -9.8622 (LUMO)
        69                         -0.3165393              -8.6135
        70                         -0.3057888              -8.3209
        71                         -0.2798248              -7.6144
        72                         -0.2591128              -7.0508
       ...                                ...                  ...
       134                          0.7557572              20.5652
      -------------------------------------------------------------
                  HL-Gap            0.0790173 Eh            2.1502 eV
             Fermi-level           -0.4019387 Eh          -10.9373 eV

 SCC (total)                   0 d,  0 h,  0 min,  0.162 sec
 SCC setup                      ...        0 min,  0.002 sec (  1.273%)
 Dispersion                     ...        0 min,  0.000 sec (  0.191%)
 classical contributions        ...        0 min,  0.000 sec (  0.068%)
 integral evaluation            ...        0 min,  0.029 sec ( 17.666%)
 iterations                     ...        0 min,  0.065 sec ( 39.959%)
 molecular gradient             ...        0 min,  0.065 sec ( 39.924%)
 printout                       ...        0 min,  0.001 sec (  0.901%)

         :::::::::::::::::::::::::::::::::::::::::::::::::::::
         ::                     SUMMARY                     ::
         :::::::::::::::::::::::::::::::::::::::::::::::::::::
         :: total energy             -82.986469567570 Eh    ::
         :: total w/o Gsasa/hb       -82.965956102928 Eh    ::
         :: gradient norm              0.116348373628 Eh/a0 ::
         :: HOMO-LUMO gap              2.150171295116 eV    ::
         ::.................................................::
         :: SCC energy               -83.755275374194 Eh    ::
         :: -> electrostatic           0.351466730162 Eh    ::
         :: -> Gsolv                  -0.052683363774 Eh    ::
         ::    -> Gelec               -0.032169899132 Eh    ::
         ::    -> Gsasa               -0.023976249799 Eh    ::
         ::    -> Ghb                 -0.004161493847 Eh    ::
         ::    -> Gshift               0.007624279005 Eh    ::
         :: repulsion energy           0.795180031096 Eh    ::
         :: dispersion energy         -0.026374224473 Eh    ::
         :: halogen bond corr.         0.000000000000 Eh    ::
         :: add. restraining           0.000000000000 Eh    ::
         :: total charge               0.000000000000 e     ::
         :::::::::::::::::::::::::::::::::::::::::::::::::::::

      ----------------------------------------------------------- 
     |                   =====================                   |
     |                        A N C O P T                        |
     |                   =====================                   |
     |               Approximate Normal Coordinate               |
     |                Rational Function Optimizer                |
      ----------------------------------------------------------- 

          ...................................................
          :                      SETUP                      :
          :.................................................:
          :   optimization level            normal          :
          :   max. optcycles                   200          :
          :   ANC micro-cycles                  20          :
          :   degrees of freedom               120          :
          :.................................................:
          :   RF solver                   davidson          :
          :   write xtbopt.log                true          :
          :   linear?                        false          :
          :   energy convergence         0.5000000E-05 Eh   :
          :   grad. convergence          0.1000000E-02 Eh/α :
          :   maximium RF displ.         1.0000000          :
          :   Hlow (freq-cutoff)         0.1000000E-01      :
          :   Hmax (freq-cutoff)         5.0000000          :
          :   S6 in model hess.         20.0000000          :
          ...................................................

generating ANC from model Hessian ...
Using Lindh-Hessian (1995)
 Shifting diagonal of input Hessian by   9.822758819775271E-003
 Lowest  eigenvalues of input Hessian
    0.000000    0.000000    0.000000    0.000000    0.000000    0.000000
    0.010000    0.010236    0.010397    0.010815    0.011562    0.012707
    0.013110    0.014078    0.014739    0.016351    0.016527    0.016911
 Highest eigenvalues
    2.109257    2.150906    2.251172    2.280646    2.348706    2.405546
 

........................................................................
.............................. CYCLE    1 ..............................
........................................................................
   1    -83.7552754 -0.837553E+02  0.923E-06    2.15       0.0  T
   2    -83.7552754 -0.923706E-12  0.401E-06    2.15    3847.9  T
   3    -83.7552754 -0.852651E-13  0.251E-06    2.15    6136.1  T
     SCC iter.                  ...        0 min,  0.018 sec
     gradient                   ...        0 min,  0.065 sec
 * total energy  :   -82.9864696 Eh     change       -0.6281198E-11 Eh
   gradient norm :     0.1163484 Eh/α   predicted     0.0000000E+00 (-100.00%)
   displ. norm   :     0.3103009 α      lambda       -0.1557656E-01
   maximum displ.:     0.1932951 α      in ANC's #26, #24, #22, ...

........................................................................
.............................. CYCLE    2 ..............................
........................................................................
   1    -83.7735886 -0.837736E+02  0.703E-02    2.29       0.0  T
   2    -83.7738101 -0.221533E-03  0.379E-02    2.31       1.0  T
   3    -83.7738411 -0.309892E-04  0.158E-02    2.31       1.0  T
   4    -83.7738414 -0.275088E-06  0.335E-03    2.31       4.6  T
   5    -83.7738415 -0.108570E-06  0.907E-04    2.31      17.0  T
   6    -83.7738415 -0.158873E-07  0.309E-04    2.31      49.9  T
   7    -83.7738415 -0.120163E-08  0.993E-05    2.31     155.5  T
   8    -83.7738415 -0.911058E-10  0.193E-05    2.31     798.2  T
     SCC iter.                  ...        0 min,  0.047 sec
     gradient                   ...        0 min,  0.066 sec
 * total energy  :   -82.9977911 Eh     change       -0.1132149E-01 Eh
   gradient norm :     0.0594121 Eh/α   predicted    -0.8547411E-02 ( -24.50%)
   displ. norm   :     0.3276158 α      lambda       -0.6931194E-02
   maximum displ.:     0.1924022 α      in ANC's #26, #24, #13, ...

........................................................................
.............................. CYCLE    3 ..............................
........................................................................
   1    -83.7864111 -0.837864E+02  0.652E-02    2.40       0.0  T
   2    -83.7866030 -0.191952E-03  0.344E-02    2.41       1.0  T
   3    -83.7866292 -0.261623E-04  0.141E-02    2.41       1.1  T
   4    -83.7866294 -0.236541E-06  0.359E-03    2.41       4.3  T
   5    -83.7866295 -0.101059E-06  0.811E-04    2.41      19.0  T
   6    -83.7866295 -0.116044E-07  0.276E-04    2.41      55.9  T
   7    -83.7866295 -0.955467E-09  0.971E-05    2.41     158.9  T
   8    -83.7866295 -0.892015E-10  0.212E-05    2.41     727.3  T
     SCC iter.                  ...        0 min,  0.048 sec
     gradient                   ...        0 min,  0.064 sec
 * total energy  :   -83.0019298 Eh     change       -0.4138797E-02 Eh
   gradient norm :     0.0177368 Eh/α   predicted    -0.3838491E-02 (  -7.26%)
   displ. norm   :     0.2097759 α      lambda       -0.1008848E-02
   maximum displ.:     0.0789023 α      in ANC's #26, #3, #13, ...

........................................................................
.............................. CYCLE    4 ..............................
........................................................................
   1    -83.7886554 -0.837887E+02  0.174E-02    2.44       0.0  T
   2    -83.7886674 -0.120023E-04  0.918E-03    2.44       1.7  T
   3    -83.7886689 -0.155646E-05  0.418E-03    2.44       3.7  T
   4    -83.7886689 -0.204705E-07  0.118E-03    2.44      13.1  T
   5    -83.7886690 -0.106670E-07  0.220E-04    2.44      70.1  T
   6    -83.7886690 -0.791758E-09  0.754E-05    2.44     204.8  T
   7    -83.7886690 -0.644178E-10  0.301E-05    2.44     512.1  T
     SCC iter.                  ...        0 min,  0.042 sec
     gradient                   ...        0 min,  0.065 sec
 * total energy  :   -83.0026641 Eh     change       -0.7342671E-03 Eh
   gradient norm :     0.0094118 Eh/α   predicted    -0.5266911E-03 ( -28.27%)
   displ. norm   :     0.2832393 α      lambda       -0.7159708E-03
   maximum displ.:     0.1114165 α      in ANC's #3, #6, #8, ...

........................................................................
.............................. CYCLE    5 ..............................
........................................................................
   1    -83.7894591 -0.837895E+02  0.136E-02    2.45       0.0  T
   2    -83.7894647 -0.564404E-05  0.650E-03    2.45       2.4  T
   3    -83.7894652 -0.490286E-06  0.345E-03    2.45       4.5  T
   4    -83.7894653 -0.193053E-07  0.108E-03    2.45      14.3  T
   5    -83.7894653 -0.100414E-07  0.151E-04    2.45     102.0  T
   6    -83.7894653 -0.535394E-09  0.504E-05    2.45     306.2  T
     SCC iter.                  ...        0 min,  0.037 sec
     gradient                   ...        0 min,  0.066 sec
 * total energy  :   -83.0031626 Eh     change       -0.4984394E-03 Eh
   gradient norm :     0.0073255 Eh/α   predicted    -0.3867556E-03 ( -22.41%)
   displ. norm   :     0.2823306 α      lambda       -0.3967989E-03
   maximum displ.:     0.1279556 α      in ANC's #3, #6, #2, ...

........................................................................
.............................. CYCLE    6 ..............................
........................................................................
   1    -83.7897141 -0.837897E+02  0.912E-03    2.45       0.0  T
   2    -83.7897165 -0.241518E-05  0.364E-03    2.45       4.2  T
   3    -83.7897166 -0.109187E-06  0.206E-03    2.45       7.5  T
   4    -83.7897166 -0.727267E-08  0.647E-04    2.45      23.9  T
   5    -83.7897166 -0.416414E-08  0.118E-04    2.45     131.2  T
   6    -83.7897166 -0.390969E-09  0.290E-05    2.45     532.2  T
     SCC iter.                  ...        0 min,  0.035 sec
     gradient                   ...        0 min,  0.065 sec
 * total energy  :   -83.0034664 Eh     change       -0.3038547E-03 Eh
   gradient norm :     0.0082680 Eh/α   predicted    -0.2142246E-03 ( -29.50%)
   displ. norm   :     0.3529119 α      lambda       -0.3999018E-03
   maximum displ.:     0.1716270 α      in ANC's #3, #2, #6, ...

........................................................................
.............................. CYCLE    7 ..............................
........................................................................
   1    -83.7897682 -0.837898E+02  0.788E-03    2.44       0.0  T
   2    -83.7897700 -0.183387E-05  0.303E-03    2.44       5.1  T
   3    -83.7897701 -0.972814E-07  0.167E-03    2.44       9.3  T
   4    -83.7897701 -0.834959E-08  0.570E-04    2.44      27.1  T
   5    -83.7897701 -0.261173E-08  0.106E-04    2.44     144.9  T
   6    -83.7897701 -0.255270E-09  0.264E-05    2.44     584.0  T
     SCC iter.                  ...        0 min,  0.035 sec
     gradient                   ...        0 min,  0.065 sec
 * total energy  :   -83.0037781 Eh     change       -0.3116967E-03 Eh
   gradient norm :     0.0081532 Eh/α   predicted    -0.2248578E-03 ( -27.86%)
   displ. norm   :     0.3817171 α      lambda       -0.3811199E-03
   maximum displ.:     0.2010161 α      in ANC's #3, #2, #6, ...

........................................................................
.............................. CYCLE    8 ..............................
........................................................................
   1    -83.7899954 -0.837900E+02  0.622E-03    2.42       0.0  T
   2    -83.7899965 -0.113581E-05  0.288E-03    2.43       5.4  T
   3    -83.7899966 -0.115332E-06  0.149E-03    2.42      10.3  T
   4    -83.7899966 -0.584046E-08  0.404E-04    2.42      38.2  T
   5    -83.7899966 -0.125030E-08  0.934E-05    2.42     165.2  T
   6    -83.7899966 -0.138343E-09  0.261E-05    2.42     590.7  T
     SCC iter.                  ...        0 min,  0.035 sec
     gradient                   ...        0 min,  0.065 sec
 * total energy  :   -83.0040722 Eh     change       -0.2940833E-03 Eh
   gradient norm :     0.0070453 Eh/α   predicted    -0.2183262E-03 ( -25.76%)
   displ. norm   :     0.3480189 α      lambda       -0.3093691E-03
   maximum displ.:     0.2011076 α      in ANC's #3, #2, #6, ...

........................................................................
.............................. CYCLE    9 ..............................
........................................................................
   1    -83.7908553 -0.837909E+02  0.648E-03    2.42       0.0  T
   2    -83.7908567 -0.137301E-05  0.317E-03    2.42       4.9  T
   3    -83.7908568 -0.113933E-06  0.172E-03    2.42       8.9  T
   4    -83.7908568 -0.430546E-08  0.420E-04    2.42      36.7  T
   5    -83.7908568 -0.216998E-08  0.100E-04    2.42     154.1  T
   6    -83.7908568 -0.189843E-09  0.259E-05    2.42     596.7  T
     SCC iter.                  ...        0 min,  0.035 sec
     gradient                   ...        0 min,  0.065 sec
 * total energy  :   -83.0043079 Eh     change       -0.2356642E-03 Eh
   gradient norm :     0.0058474 Eh/α   predicted    -0.1734397E-03 ( -26.40%)
   displ. norm   :     0.3327329 α      lambda       -0.2471365E-03
   maximum displ.:     0.2061921 α      in ANC's #3, #2, #6, ...

........................................................................
.............................. CYCLE   10 ..............................
........................................................................
   1    -83.7915914 -0.837916E+02  0.697E-03    2.42       0.0  T
   2    -83.7915933 -0.191527E-05  0.311E-03    2.42       5.0  T
   3    -83.7915934 -0.127741E-06  0.167E-03    2.42       9.3  T
   4    -83.7915934 -0.434152E-08  0.512E-04    2.42      30.1  T
   5    -83.7915934 -0.209619E-08  0.119E-04    2.42     130.0  T
   6    -83.7915934 -0.238899E-09  0.264E-05    2.42     585.5  T
     SCC iter.                  ...        0 min,  0.035 sec
     gradient                   ...        0 min,  0.066 sec
 * total energy  :   -83.0045084 Eh     change       -0.2005893E-03 Eh
   gradient norm :     0.0052985 Eh/α   predicted    -0.1372505E-03 ( -31.58%)
   displ. norm   :     0.3668742 α      lambda       -0.2212459E-03
   maximum displ.:     0.2352818 α      in ANC's #3, #2, #5, ...

........................................................................
.............................. CYCLE   11 ..............................
........................................................................
   1    -83.7916522 -0.837917E+02  0.643E-03    2.42       0.0  T
   2    -83.7916540 -0.186340E-05  0.291E-03    2.42       5.3  T
   3    -83.7916542 -0.127380E-06  0.150E-03    2.42      10.3  T
   4    -83.7916542 -0.394130E-08  0.513E-04    2.42      30.1  T
   5    -83.7916542 -0.163411E-08  0.123E-04    2.42     125.3  T
   6    -83.7916542 -0.185821E-09  0.276E-05    2.42     559.7  T
     SCC iter.                  ...        0 min,  0.035 sec
     gradient                   ...        0 min,  0.065 sec
 * total energy  :   -83.0046769 Eh     change       -0.1684812E-03 Eh
   gradient norm :     0.0050528 Eh/α   predicted    -0.1255160E-03 ( -25.50%)
   displ. norm   :     0.2524223 α      lambda       -0.1260371E-03
   maximum displ.:     0.1732591 α      in ANC's #3, #2, #5, ...

........................................................................
.............................. CYCLE   12 ..............................
........................................................................
   1    -83.7927654 -0.837928E+02  0.397E-03    2.43       0.0  T
   2    -83.7927659 -0.520556E-06  0.222E-03    2.43       7.0  T
   3    -83.7927660 -0.374883E-07  0.121E-03    2.43      12.7  T
   4    -83.7927660 -0.161734E-08  0.262E-04    2.43      58.9  T
   5    -83.7927660 -0.648669E-09  0.599E-05    2.43     257.6  T
   6    -83.7927660 -0.373035E-10  0.189E-05    2.43     817.7  T
     SCC iter.                  ...        0 min,  0.035 sec
     gradient                   ...        0 min,  0.063 sec
 * total energy  :   -83.0047671 Eh     change       -0.9021478E-04 Eh
   gradient norm :     0.0036091 Eh/α   predicted    -0.6703648E-04 ( -25.69%)
   displ. norm   :     0.2038722 α      lambda       -0.7180256E-04
   maximum displ.:     0.1382099 α      in ANC's #3, #2, #5, ...

........................................................................
.............................. CYCLE   13 ..............................
........................................................................
   1    -83.7917514 -0.837918E+02  0.510E-03    2.43       0.0  T
   2    -83.7917521 -0.768027E-06  0.234E-03    2.43       6.6  T
   3    -83.7917522 -0.620629E-07  0.136E-03    2.43      11.3  T
   4    -83.7917522 -0.307620E-08  0.264E-04    2.43      58.4  T
   5    -83.7917522 -0.993936E-09  0.693E-05    2.43     222.7  T
   6    -83.7917522 -0.108102E-09  0.167E-05    2.43     925.0  T
     SCC iter.                  ...        0 min,  0.035 sec
     gradient                   ...        0 min,  0.065 sec
 * total energy  :   -83.0048099 Eh     change       -0.4278501E-04 Eh
   gradient norm :     0.0042766 Eh/α   predicted    -0.3739677E-04 ( -12.59%)
   displ. norm   :     0.1076645 α      lambda       -0.5327192E-04
   maximum displ.:     0.0814193 α      in ANC's #3, #2, #9, ...

........................................................................
.............................. CYCLE   14 ..............................
........................................................................
   1    -83.7932052 -0.837932E+02  0.500E-03    2.43       0.0  T
   2    -83.7932064 -0.124202E-05  0.243E-03    2.43       6.4  T
   3    -83.7932065 -0.939933E-07  0.132E-03    2.43      11.7  T
   4    -83.7932065 -0.345129E-08  0.425E-04    2.43      36.3  T
   5    -83.7932065 -0.766150E-09  0.993E-05    2.43     155.3  T
   6    -83.7932065 -0.304254E-09  0.224E-05    2.43     689.7  T
     SCC iter.                  ...        0 min,  0.035 sec
     gradient                   ...        0 min,  0.066 sec
 * total energy  :   -83.0048399 Eh     change       -0.2994201E-04 Eh
   gradient norm :     0.0028670 Eh/α   predicted    -0.2694744E-04 ( -10.00%)
   displ. norm   :     0.0520476 α      lambda       -0.1952228E-04
   maximum displ.:     0.0400511 α      in ANC's #3, #9, #15, ...

........................................................................
.............................. CYCLE   15 ..............................
........................................................................
   1    -83.7932048 -0.837932E+02  0.171E-03    2.42       0.0  T
   2    -83.7932049 -0.148928E-06  0.677E-04    2.42      22.8  T
   3    -83.7932049 -0.480844E-08  0.352E-04    2.42      43.9  T
   4    -83.7932049 -0.816129E-10  0.164E-04    2.42      93.9  T
   5    -83.7932049 -0.197772E-09  0.214E-05    2.42     721.3  T
     SCC iter.                  ...        0 min,  0.029 sec
     gradient                   ...        0 min,  0.062 sec
 * total energy  :   -83.0048563 Eh     change       -0.1646889E-04 Eh
   gradient norm :     0.0021135 Eh/α   predicted    -0.9789439E-05 ( -40.56%)
   displ. norm   :     0.0985827 α      lambda       -0.3766980E-04
   maximum displ.:     0.0702678 α      in ANC's #3, #15, #9, ...

........................................................................
.............................. CYCLE   16 ..............................
........................................................................
   1    -83.7926958 -0.837927E+02  0.314E-03    2.42       0.0  T
   2    -83.7926961 -0.279484E-06  0.135E-03    2.42      11.4  T
   3    -83.7926961 -0.189951E-07  0.678E-04    2.42      22.8  T
   4    -83.7926961 -0.133493E-08  0.239E-04    2.42      64.7  T
   5    -83.7926961 -0.412712E-09  0.443E-05    2.42     348.6  T
   6    -83.7926961 -0.313491E-10  0.912E-06    2.42    1692.7  T
     SCC iter.                  ...        0 min,  0.034 sec
     gradient                   ...        0 min,  0.058 sec
 * total energy  :   -83.0048811 Eh     change       -0.2474058E-04 Eh
   gradient norm :     0.0015781 Eh/α   predicted    -0.1902497E-04 ( -23.10%)
   displ. norm   :     0.0942160 α      lambda       -0.1370643E-04
   maximum displ.:     0.0654798 α      in ANC's #3, #15, #9, ...

........................................................................
.............................. CYCLE   17 ..............................
........................................................................
   1    -83.7927055 -0.837927E+02  0.242E-03    2.41       0.0  T
   2    -83.7927058 -0.304893E-06  0.114E-03    2.41      13.5  T
   3    -83.7927058 -0.108545E-07  0.621E-04    2.41      24.8  T
   4    -83.7927058 -0.102119E-09  0.258E-04    2.41      59.7  T
   5    -83.7927058 -0.587605E-09  0.347E-05    2.41     445.2  T
   6    -83.7927058 -0.299138E-10  0.995E-06    2.41    1550.9  T
     SCC iter.                  ...        0 min,  0.032 sec
     gradient                   ...        0 min,  0.057 sec
 * total energy  :   -83.0048924 Eh     change       -0.1132870E-04 Eh
   gradient norm :     0.0020334 Eh/α   predicted    -0.6880817E-05 ( -39.26%)
   displ. norm   :     0.0344861 α      lambda       -0.8974620E-05
   maximum displ.:     0.0240959 α      in ANC's #3, #2, #8, ...

........................................................................
.............................. CYCLE   18 ..............................
........................................................................
   1    -83.7925836 -0.837926E+02  0.193E-03    2.41       0.0  T
   2    -83.7925838 -0.208718E-06  0.664E-04    2.41      23.3  T
   3    -83.7925838 -0.914982E-08  0.292E-04    2.41      52.8  T
   4    -83.7925838 -0.212410E-09  0.160E-04    2.41      96.4  T
   5    -83.7925838 -0.145377E-09  0.240E-05    2.41     643.2  T
     SCC iter.                  ...        0 min,  0.026 sec
     gradient                   ...        0 min,  0.075 sec
 * total energy  :   -83.0048997 Eh     change       -0.7256144E-05 Eh
   gradient norm :     0.0013183 Eh/α   predicted    -0.4496921E-05 ( -38.03%)
   displ. norm   :     0.0901039 α      lambda       -0.1455437E-04
   maximum displ.:     0.0583750 α      in ANC's #3, #2, #8, ...

........................................................................
.............................. CYCLE   19 ..............................
........................................................................
   1    -83.7926387 -0.837926E+02  0.360E-03    2.42       0.0  T
   2    -83.7926393 -0.620752E-06  0.150E-03    2.42      10.3  T
   3    -83.7926394 -0.362732E-07  0.672E-04    2.42      23.0  T
   4    -83.7926394 -0.908457E-09  0.336E-04    2.42      45.9  T
   5    -83.7926394 -0.510198E-09  0.462E-05    2.42     334.3  T
   6    -83.7926394 -0.340634E-10  0.103E-05    2.42    1501.3  T
     SCC iter.                  ...        0 min,  0.032 sec
     gradient                   ...        0 min,  0.061 sec
 * total energy  :   -83.0049113 Eh     change       -0.1165809E-04 Eh
   gradient norm :     0.0014249 Eh/α   predicted    -0.7305957E-05 ( -37.33%)
   displ. norm   :     0.0358621 α      lambda       -0.3659564E-05
   maximum displ.:     0.0255668 α      in ANC's #3, #2, #8, ...

........................................................................
.............................. CYCLE   20 ..............................
........................................................................
   1    -83.7925615 -0.837926E+02  0.795E-04    2.41       0.0  T
   2    -83.7925615 -0.221451E-07  0.283E-04    2.41      54.5  T
   3    -83.7925615 -0.117363E-08  0.153E-04    2.41     100.9  T
   4    -83.7925615 -0.485585E-10  0.534E-05    2.41     288.8  T
     SCC iter.                  ...        0 min,  0.021 sec
     gradient                   ...        0 min,  0.061 sec
 * total energy  :   -83.0049161 Eh     change       -0.4808521E-05 Eh
   gradient norm :     0.0010921 Eh/α   predicted    -0.1835516E-05 ( -61.83%)
   displ. norm   :     0.0939124 α      lambda       -0.9490084E-05
   maximum displ.:     0.0648399 α      in ANC's #3, #2, #8, ...
 * RMSD in coord.:     0.5140274 α      energy gain  -0.1844656E-01 Eh

generating ANC from model Hessian ...
Using Lindh-Hessian (1995)
 Shifting diagonal of input Hessian by   9.816214591796072E-003
 Lowest  eigenvalues of input Hessian
    0.000000    0.000000    0.000000    0.000000    0.000000    0.000000
    0.010000    0.010263    0.010465    0.010847    0.011632    0.012650
    0.013337    0.013943    0.014528    0.016157    0.016762    0.017322
 Highest eigenvalues
    2.146949    2.186027    2.231307    2.388510    2.407100    2.410908
 

........................................................................
.............................. CYCLE   21 ..............................
........................................................................
   1    -83.7926409 -0.837926E+02  0.221E-03    2.41       0.0  T
   2    -83.7926411 -0.182377E-06  0.679E-04    2.41      22.7  T
   3    -83.7926411 -0.103835E-07  0.340E-04    2.41      45.4  T
   4    -83.7926411 -0.511776E-09  0.152E-04    2.41     101.4  T
   5    -83.7926411 -0.975575E-10  0.288E-05    2.41     536.6  T
     SCC iter.                  ...        0 min,  0.016 sec
     gradient                   ...        0 min,  0.056 sec
 * total energy  :   -83.0049261 Eh     change       -0.9936907E-05 Eh
   gradient norm :     0.0006483 Eh/α   predicted     0.0000000E+00 (-100.00%)
   displ. norm   :     0.0162358 α      lambda       -0.2250649E-05
   maximum displ.:     0.0091951 α      in ANC's #2, #9, #16, ...

........................................................................
.............................. CYCLE   22 ..............................
........................................................................
   1    -83.7928424 -0.837928E+02  0.735E-04    2.41       0.0  T
   2    -83.7928424 -0.179711E-07  0.336E-04    2.41      45.9  T
   3    -83.7928424 -0.117051E-08  0.173E-04    2.41      89.2  T
   4    -83.7928424 -0.499654E-10  0.564E-05    2.41     273.5  T
     SCC iter.                  ...        0 min,  0.021 sec
     gradient                   ...        0 min,  0.057 sec
 * total energy  :   -83.0049289 Eh     change       -0.2807722E-05 Eh
   gradient norm :     0.0002953 Eh/α   predicted    -0.1144703E-05 ( -59.23%)
   displ. norm   :     0.0554223 α      lambda       -0.5358550E-05
   maximum displ.:     0.0309106 α      in ANC's #2, #9, #3, ...

   *** GEOMETRY OPTIMIZATION CONVERGED AFTER 22 ITERATIONS ***

------------------------------------------------------------------------
 total energy gain   :        -0.0184593 Eh      -11.5834 kcal/mol
 total RMSD          :         0.5144930 a0        0.2723 Å
 total power (kW/mol):        -2.2029500 (step)  -16.9637 (real)
------------------------------------------------------------------------

 ANCopt (total)                0 d,  0 h,  0 min,  2.857 sec
 optimizer setup                ...        0 min,  0.001 sec (  0.026%)
 model hessian                  ...        0 min,  0.048 sec (  1.670%)
 ANC generation                 ...        0 min,  0.006 sec (  0.201%)
 coordinate transformation      ...        0 min,  0.001 sec (  0.018%)
 single point calculation       ...        0 min,  2.793 sec ( 97.764%)
 optimization log               ...        0 min,  0.005 sec (  0.169%)
 hessian update                 ...        0 min,  0.000 sec (  0.017%)
 rational function              ...        0 min,  0.002 sec (  0.079%)

================
 final structure:
================
42
 xtb: 6.5.1 (579679a)
C           -3.99042918711119        0.59624404084418        2.90645634089127
O           -3.40372193608693        0.99378149703933        1.65599923247945
C           -2.67954533619126        0.09950365784566        1.02085074504909
O           -2.48032691557652       -1.02736877293730        1.38873813977073
C           -2.11173905388030        0.65701419919609       -0.31916243011184
C           -2.04125153682242        2.18245849448472       -0.31926335142163
N           -0.78465334186007        0.09741690444154       -0.43185722398677
C           -0.60831707992252       -1.05203744944058       -0.93737115526561
C            0.76460204382513       -1.69403842044735       -0.90816811590301
C            1.22615518826622       -2.05553762206153       -2.32607414843167
C            0.70856974985080       -2.93034543873386        0.00245837987051
N            1.67114950068137       -0.70210500853073       -0.33686904924466
C            2.98064528599267       -0.91929358185674       -0.12169175240513
O            3.57785643426908       -1.95631102710486       -0.36618857611956
C            3.67095661750735        0.26109009058029        0.45983806478973
N            4.92063628891839        0.35634134503815        0.79218120081368
N            5.10692911351564        1.62020878360412        1.26706022032161
C            3.95977631334715        2.21936902502290        1.19402468487060
C            3.64099584605146        3.60995244286711        1.58393873413105
O            3.00704432762203        1.41495591030220        0.69278900920607
N           -1.62110751100215       -1.80058048165043       -1.52228779703482
C           -2.85771773413734       -1.30952113119259       -1.81761767240713
O           -3.69428123643829       -1.95789596063240       -2.40286148040488
C           -3.08517004258748        0.13713609216848       -1.36135275694535
O           -4.00813210684977        0.78728587920745       -1.77478739060969
H           -3.22290139344671        0.17245370015125        3.55627115937568
H           -4.77118707870961       -0.14511392990698        2.72678598370682
H           -4.41156901484497        1.49666224992274        3.34691109463372
H           -1.55674112236057        2.51808204761550       -1.23392224573781
H           -1.46446217938400        2.52259082690766        0.53686267357278
H           -3.04477909007984        2.60086500899963       -0.27043044862873
H            0.53668280220655       -2.76599887494725       -2.77659278870105
H            2.21556223025540       -2.50793046182851       -2.28460703033378
H            1.26753539623803       -1.15901772945148       -2.94237210021000
H            0.02256359647511       -3.66589776434417       -0.41173781813007
H            0.36508257418141       -2.64152719987311        0.99484353029883
H            1.69791293786488       -3.37731567825134        0.07878639299118
H            1.26174139816879        0.19161878800353       -0.09659161429032
H            4.53614766763772        4.09746080304330        1.96248106404035
H            2.86934650888834        3.61451887471760        2.35315902822372
H            3.26174856283950        4.16001876076297        0.72309805517223
H           -1.43160648730328       -2.73919388958362       -1.84016278788403
 
 Bond Distances (Angstroems)
 ---------------------------
C1-O2=1.4373         C1-H26=1.0913        C1-H27=1.0915        C1-H28=1.0872        O2-C1=1.4373         O2-C3=1.3144         
C3-O2=1.3144         C3-O4=1.2020         C3-C5=1.5585         O4-C3=1.2020         C5-C3=1.5585         C5-C6=1.5271         
C5-N7=1.4446         C5-C24=1.5179        C6-C5=1.5271         C6-H29=1.0881        C6-H30=1.0869        C6-H31=1.0884        
N7-C5=1.4446         N7-C8=1.2680         C8-N7=1.2680         C8-C9=1.5159         C8-N21=1.3886        C9-C8=1.5159         
C9-C10=1.5343        C9-C11=1.5365        C9-N12=1.4602        C10-C9=1.5343        C10-H32=1.0877       C10-H33=1.0887       
C10-H34=1.0887       C11-C9=1.5365        C11-H35=1.0878       C11-H36=1.0891       C11-H37=1.0883       N12-C9=1.4602        
N12-C13=1.3447       N12-H38=1.0120       C13-N12=1.3447       C13-O14=1.2214       C13-C15=1.4859       O14-C13=1.2214       
C15-C13=1.4859       C15-N16=1.2966       C15-O20=1.3515       N16-C15=1.2966       N16-N17=1.3629       N17-N16=1.3629       
N17-C18=1.2963       C18-N17=1.2963       C18-C19=1.4790       C18-O20=1.3439       C19-C18=1.4790       C19-H39=1.0873       
C19-H40=1.0896       C19-H41=1.0897       O20-C15=1.3515       O20-C18=1.3439       N21-C8=1.3886        N21-C22=1.3629       
N21-H42=1.0089       C22-N21=1.3629       C22-O23=1.2094       C22-C24=1.5339       O23-C22=1.2094       C24-C5=1.5179        
C24-C22=1.5339       C24-O25=1.2023       O25-C24=1.2023       H26-C1=1.0913        H27-C1=1.0915        H28-C1=1.0872        
H29-C6=1.0881        H30-C6=1.0869        H31-C6=1.0884        H32-C10=1.0877       H33-C10=1.0887       H34-C10=1.0887       
H35-C11=1.0878       H36-C11=1.0891       H37-C11=1.0883       H38-N12=1.0120       H39-C19=1.0873       H40-C19=1.0896       
H41-C19=1.0897       H42-N21=1.0089       
 C  H  Rav=1.0887 sigma=0.0013  Rmin=1.0869  Rmax=1.0915    15
 C  C  Rav=1.5210 sigma=0.0237  Rmin=1.4790  Rmax=1.5585     9
 N  H  Rav=1.0105 sigma=0.0015  Rmin=1.0089  Rmax=1.0120     2
 N  C  Rav=1.3577 sigma=0.0659  Rmin=1.2680  Rmax=1.4602     8
 N  N  Rav=1.3629 sigma=0.0000  Rmin=1.3629  Rmax=1.3629     1
 O  C  Rav=1.2853 sigma=0.0832  Rmin=1.2020  Rmax=1.4373     8
 
 selected bond angles (degree)
 --------------------
H26-C1-O2=109.78               H27-C1-O2=109.67               H27-C1-H26=109.71              H28-C1-O2=106.35               
H28-C1-H26=110.66              H28-C1-H27=110.62              C3-O2-C1=117.20                O4-C3-O2=125.54                
C5-C3-O2=111.89                C5-C3-O4=122.56                C6-C5-C3=111.98                N7-C5-C3=105.26                
N7-C5-C6=110.15                C24-C5-C3=103.54               C24-C5-C6=111.82               C24-C5-N7=113.76               
H29-C6-C5=109.19               H30-C6-C5=109.70               H30-C6-H29=109.23              H31-C6-C5=109.97               
H31-C6-H29=109.25              H31-C6-H30=109.49              C8-N7-C5=120.66                C9-C8-N7=120.14                
N21-C8-N7=123.72               N21-C8-C9=116.13               C10-C9-C8=110.76               C11-C9-C8=108.61               
C11-C9-C10=111.66              N12-C9-C8=106.39               N12-C9-C10=109.56              N12-C9-C11=109.72              
H32-C10-C9=110.24              H33-C10-C9=109.64              H33-C10-H32=108.69             H34-C10-C9=109.91              
H34-C10-H32=109.12             H34-C10-H33=109.22             
 
 selected dihedral angles (degree)
 ---------------------------------
C3-O2-C1-H26= 51.71           C3-O2-C1-H27=291.09           C3-O2-C1-H28=171.46           O4-C3-O2-C1=  0.99            
C5-C3-O2-C1=179.68            C6-C5-C3-O2= 22.72            C6-C5-C3-O4=201.45            N7-C5-C3-O2=142.40            
N7-C5-C3-O4=321.14            C24-C5-C3-O2=262.09           C24-C5-C3-O4= 80.82           H29-C6-C5-C3=174.88           
H29-C6-C5-N7= 58.11           H29-C6-C5-C24=290.58          H30-C6-C5-C3= 55.21           H30-C6-C5-N7=298.44           
H30-C6-C5-C24=170.91          H31-C6-C5-C3=294.74           H31-C6-C5-N7=177.97           H31-C6-C5-C24= 50.44          
C8-N7-C5-C3= 85.50            C8-N7-C5-C6=206.39            C8-N7-C5-C24=332.84           C9-C8-N7-C5=186.93            
N21-C8-N7-C5=  6.05           C10-C9-C8-N7=236.54           C10-C9-C8-N21= 57.35          C11-C9-C8-N7=113.57           
C11-C9-C8-N21=294.38          N12-C9-C8-N7=355.53           N12-C9-C8-N21=176.34          H32-C10-C9-C8=299.20          
H32-C10-C9-C11= 60.39         H32-C10-C9-N12=182.15         H33-C10-C9-C8=179.59          H33-C10-C9-C11=300.77         
H33-C10-C9-N12= 62.53         H34-C10-C9-C8= 59.52          H34-C10-C9-C11=180.70         H34-C10-C9-N12=302.46         
           -------------------------------------------------
          |                Final Singlepoint                |
           -------------------------------------------------

          ...................................................
          :                      SETUP                      :
          :.................................................:
          :  # basis functions                 134          :
          :  # atomic orbitals                 134          :
          :  # shells                           84          :
          :  # electrons                       134          :
          :  # halogen bonds                     0          :
          :  max. iterations                   250          :
          :  Hamiltonian                  GFN1-xTB          :
          :  restarted?                      false          :
          :  GBSA solvation                   true          :
          :  PC potential                    false          :
          :  electronic temp.          300.0000000     K    :
          :  accuracy                    1.0000000          :
          :  -> integral cutoff          0.2500000E+02      :
          :  -> integral neglect         0.1000000E-07      :
          :  -> SCF convergence          0.1000000E-05 Eh   :
          :  -> wf. convergence          0.2000000E-04 e    :
          :  Broyden damping             0.4000000          :
          ...................................................

 iter      E             dE          RMSdq      gap      omega  full diag
   1    -83.7928424 -0.837928E+02  0.795E-06    2.41       0.0  T
   2    -83.7928424 -0.119371E-11  0.378E-06    2.41    4078.5  T
   3    -83.7928424 -0.540012E-12  0.158E-06    2.41    9780.0  T

   *** convergence criteria satisfied after 3 iterations ***

         #    Occupation            Energy/Eh            Energy/eV
      -------------------------------------------------------------
         1        2.0000           -0.8651837             -23.5428
       ...           ...                  ...                  ...
        61        2.0000           -0.4711629             -12.8210
        62        2.0000           -0.4636302             -12.6160
        63        2.0000           -0.4620863             -12.5740
        64        2.0000           -0.4587998             -12.4846
        65        2.0000           -0.4513619             -12.2822
        66        2.0000           -0.4473848             -12.1740
        67        2.0000           -0.4420869             -12.0298 (HOMO)
        68                         -0.3533438              -9.6150 (LUMO)
        69                         -0.3095785              -8.4241
        70                         -0.2983254              -8.1178
        71                         -0.2702967              -7.3551
        72                         -0.2567588              -6.9868
       ...                                ...                  ...
       134                          0.7597772              20.6746
      -------------------------------------------------------------
                  HL-Gap            0.0887430 Eh            2.4148 eV
             Fermi-level           -0.3977154 Eh          -10.8224 eV

 SCC (total)                   0 d,  0 h,  0 min,  0.099 sec
 SCC setup                      ...        0 min,  0.002 sec (  1.642%)
 Dispersion                     ...        0 min,  0.000 sec (  0.225%)
 classical contributions        ...        0 min,  0.000 sec (  0.081%)
 integral evaluation            ...        0 min,  0.025 sec ( 24.808%)
 iterations                     ...        0 min,  0.016 sec ( 15.919%)
 molecular gradient             ...        0 min,  0.056 sec ( 56.185%)
 printout                       ...        0 min,  0.001 sec (  1.118%)

         :::::::::::::::::::::::::::::::::::::::::::::::::::::
         ::                     SUMMARY                     ::
         :::::::::::::::::::::::::::::::::::::::::::::::::::::
         :: total energy             -83.004928873092 Eh    ::
         :: total w/o Gsasa/hb       -82.984825158007 Eh    ::
         :: gradient norm              0.000295748374 Eh/a0 ::
         :: HOMO-LUMO gap              2.414820607662 eV    ::
         ::.................................................::
         :: SCC energy               -83.792842437027 Eh    ::
         :: -> electrostatic           0.356377045264 Eh    ::
         :: -> Gsolv                  -0.054327725312 Eh    ::
         ::    -> Gelec               -0.034224010227 Eh    ::
         ::    -> Gsasa               -0.023847875912 Eh    ::
         ::    -> Ghb                 -0.003880118177 Eh    ::
         ::    -> Gshift               0.007624279005 Eh    ::
         :: repulsion energy           0.814661371915 Eh    ::
         :: dispersion energy         -0.026747807979 Eh    ::
         :: halogen bond corr.         0.000000000000 Eh    ::
         :: add. restraining           0.000000000000 Eh    ::
         :: total charge              -0.000000000000 e     ::
         :::::::::::::::::::::::::::::::::::::::::::::::::::::

           -------------------------------------------------
          |                Property Printout                |
           -------------------------------------------------

    * Orbital Energies and Occupations

         #    Occupation            Energy/Eh            Energy/eV
      -------------------------------------------------------------
         1        2.0000           -0.8651837             -23.5428
       ...           ...                  ...                  ...
        55        2.0000           -0.5116018             -13.9214
        56        2.0000           -0.5052924             -13.7497
        57        2.0000           -0.5043267             -13.7234
        58        2.0000           -0.5027192             -13.6797
        59        2.0000           -0.4925189             -13.4021
        60        2.0000           -0.4798044             -13.0561
        61        2.0000           -0.4711629             -12.8210
        62        2.0000           -0.4636302             -12.6160
        63        2.0000           -0.4620863             -12.5740
        64        2.0000           -0.4587998             -12.4846
        65        2.0000           -0.4513619             -12.2822
        66        2.0000           -0.4473848             -12.1740
        67        2.0000           -0.4420869             -12.0298 (HOMO)
        68                         -0.3533438              -9.6150 (LUMO)
        69                         -0.3095785              -8.4241
        70                         -0.2983254              -8.1178
        71                         -0.2702967              -7.3551
        72                         -0.2567588              -6.9868
        73                         -0.2260605              -6.1514
        74                         -0.1974185              -5.3720
        75                         -0.1465301              -3.9873
        76                         -0.1430272              -3.8920
        77                         -0.1419645              -3.8631
        78                         -0.1252470              -3.4081
       ...                                ...                  ...
       134                          0.7597772              20.6746
      -------------------------------------------------------------
                  HL-Gap            0.0887430 Eh            2.4148 eV
             Fermi-level           -0.3977154 Eh          -10.8224 eV

  Mulliken/CM5 charges         n(s)   n(p)   n(d)
     1C     0.15951  0.03789   0.986  2.854  0.000
     2O    -0.39520 -0.48596   1.682  4.713  0.000
     3C     0.58937  0.65741   0.973  2.438  0.000
     4O    -0.53883 -0.58451   1.721  4.818  0.000
     5C     0.09934  0.15447   1.074  2.827  0.000
     6C    -0.08687 -0.22429   1.014  3.073  0.000
     7N    -0.38690 -0.58032   1.536  3.851  0.000
     8C     0.29716  0.44955   1.021  2.682  0.000
     9C     0.15318  0.19416   1.064  2.783  0.000
    10C    -0.11086 -0.25044   1.021  3.089  0.000
    11C    -0.10512 -0.24463   1.021  3.084  0.000
    12N    -0.33476 -0.68573   1.428  3.907  0.000
    13C     0.46777  0.57718   0.975  2.558  0.000
    14O    -0.58114 -0.62667   1.727  4.854  0.000
    15C     0.33081  0.45669   1.009  2.661  0.000
    16N    -0.22352 -0.32747   1.566  3.657  0.000
    17N    -0.26908 -0.37693   1.564  3.705  0.000
    18C     0.39075  0.49947   1.007  2.602  0.000
    19C    -0.11148 -0.24890   1.012  3.100  0.000
    20O    -0.35848 -0.41477   1.697  4.662  0.000
    21N    -0.30609 -0.65372   1.433  3.873  0.000
    22C     0.46591  0.57217   0.998  2.536  0.000
    23O    -0.52282 -0.56196   1.724  4.799  0.000
    24C     0.36800  0.41531   1.080  2.552  0.000
    25O    -0.46657 -0.51288   1.728  4.739  0.000
    26H     0.06292  0.12527   0.937  0.000  0.000
    27H     0.06204  0.12290   0.938  0.000  0.000
    28H     0.06633  0.12668   0.934  0.000  0.000
    29H     0.05856  0.11523   0.941  0.000  0.000
    30H     0.05672  0.11469   0.943  0.000  0.000
    31H     0.06100  0.12134   0.939  0.000  0.000
    32H     0.04784  0.10456   0.952  0.000  0.000
    33H     0.06993  0.13033   0.930  0.000  0.000
    34H     0.05101  0.10782   0.949  0.000  0.000
    35H     0.04756  0.10410   0.952  0.000  0.000
    36H     0.05298  0.11047   0.947  0.000  0.000
    37H     0.06827  0.12894   0.932  0.000  0.000
    38H     0.25952  0.47566   0.740  0.000  0.000
    39H     0.06974  0.12557   0.930  0.000  0.000
    40H     0.07861  0.13312   0.921  0.000  0.000
    41H     0.07902  0.13355   0.921  0.000  0.000
    42H     0.28384  0.48467   0.716  0.000  0.000

Wiberg/Mayer (AO) data.
largest (>0.10) Wiberg bond orders for each atom

 ---------------------------------------------------------------------------
     #   Z sym  total        # sym  WBO       # sym  WBO       # sym  WBO
 ---------------------------------------------------------------------------
     1   6 C    3.852 --    28 H    0.985    26 H    0.980    27 H    0.979
                             2 O    0.873
     2   8 O    2.233 --     3 C    1.160     1 C    0.873     4 O    0.140
     3   6 C    3.845 --     4 O    1.695     2 O    1.160     5 C    0.862
     4   8 O    1.965 --     3 C    1.695     2 O    0.140
     5   6 C    3.962 --     6 C    0.985     7 N    0.977    24 C    0.949
                             3 C    0.862
     6   6 C    3.984 --     5 C    0.985    30 H    0.985    29 H    0.983
                            31 H    0.982
     7   7 N    3.047 --     8 C    1.751     5 C    0.977
     8   6 C    3.926 --     7 N    1.751    21 N    1.070     9 C    0.980
     9   6 C    3.939 --    10 C    0.981     8 C    0.980    11 C    0.975
                            12 N    0.937
    10   6 C    3.987 --    34 H    0.985    32 H    0.983     9 C    0.981
                            33 H    0.978
    11   6 C    3.987 --    36 H    0.984    35 H    0.983    37 H    0.977
                             9 C    0.975
    12   7 N    3.360 --    13 C    1.269     9 C    0.937    38 H    0.876
                            14 O    0.179
    13   6 C    3.919 --    14 O    1.577    12 N    1.269    15 C    0.991
    14   8 O    1.897 --    13 C    1.577    12 N    0.179
    15   6 C    3.872 --    16 N    1.624    20 O    1.047    13 C    0.991
    16   7 N    2.999 --    15 C    1.624    17 N    1.197
    17   7 N    2.982 --    18 C    1.613    16 N    1.197
    18   6 C    3.869 --    17 N    1.613    20 O    1.072    19 C    1.031
    19   6 C    3.987 --    18 C    1.031    39 H    0.982    40 H    0.963
                            41 H    0.963
    20   8 O    2.315 --    18 C    1.072    15 C    1.047
    21   7 N    3.429 --    22 C    1.185     8 C    1.070    42 H    0.881
                            23 O    0.149
    22   6 C    3.892 --    23 O    1.676    21 N    1.185    24 C    0.906
    23   8 O    1.960 --    22 C    1.676    21 N    0.149
    24   6 C    3.848 --    25 O    1.814     5 C    0.949    22 C    0.906
    25   8 O    2.028 --    24 C    1.814
    26   1 H    1.004 --     1 C    0.980
    27   1 H    1.003 --     1 C    0.979
    28   1 H    1.007 --     1 C    0.985
    29   1 H    1.000 --     6 C    0.983
    30   1 H    1.003 --     6 C    0.985
    31   1 H    1.007 --     6 C    0.982
    32   1 H    0.999 --    10 C    0.983
    33   1 H    1.007 --    10 C    0.978
    34   1 H    1.001 --    10 C    0.985
    35   1 H    0.999 --    11 C    0.983
    36   1 H    1.002 --    11 C    0.984
    37   1 H    1.007 --    11 C    0.977
    38   1 H    0.955 --    12 N    0.876
    39   1 H    0.998 --    19 C    0.982
    40   1 H    0.997 --    19 C    0.963
    41   1 H    0.997 --    19 C    0.963
    42   1 H    0.928 --    21 N    0.881
 ---------------------------------------------------------------------------

Topologies differ in total number of bonds
Writing topology from bond orders to xtbtopo.mol

 dipole moment from electron density (au)
     X       Y       Z   
  -1.1460   2.1947   1.3840  total (Debye):    7.209

           -------------------------------------------------
          |                Geometry Summary                 |
           -------------------------------------------------

      molecular mass/u    :      351.3152409
   center of mass at/Å    :        0.0318372      -0.0965509      -0.0655158
  moments of inertia/u·Å² :        0.1507831E+04   0.3711616E+04   0.4511481E+04
rotational constants/cm⁻¹ :        0.1118006E-01   0.4541858E-02   0.3736607E-02

 * 36 selected distances

     #   Z          #   Z                                           value/Å
     1   6 C        2   8 O                                       1.4373256
     2   8 O        3   6 C                                       1.3143738
     3   6 C        4   8 O                                       1.2020278
     5   6 C        6   6 C                                       1.5270721
     7   7 N        8   6 C                                       1.2680238
     9   6 C       10   6 C                                       1.5343308
     9   6 C       11   6 C                                       1.5365011 (max)
     9   6 C       12   7 N                                       1.4601860
    12   7 N       13   6 C                                       1.3447125
    13   6 C       14   8 O                                       1.2214112
    15   6 C       16   7 N                                       1.2966204
    17   7 N       18   6 C                                       1.2962589
    18   6 C       19   6 C                                       1.4789782
    15   6 C       20   8 O                                       1.3514630
    18   6 C       20   8 O                                       1.3438810
     8   6 C       21   7 N                                       1.3885924
    21   7 N       22   6 C                                       1.3629249
    22   6 C       23   8 O                                       1.2094375
    24   6 C       25   8 O                                       1.2022821
     1   6 C       26   1 H                                       1.0913096
     1   6 C       27   1 H                                       1.0915476
     1   6 C       28   1 H                                       1.0872499
     6   6 C       29   1 H                                       1.0881152
     6   6 C       30   1 H                                       1.0868891
     6   6 C       31   1 H                                       1.0883549
    10   6 C       32   1 H                                       1.0877015
    10   6 C       33   1 H                                       1.0887173
    10   6 C       34   1 H                                       1.0887073
    11   6 C       35   1 H                                       1.0877501
    11   6 C       36   1 H                                       1.0891409
    11   6 C       37   1 H                                       1.0883053
    12   7 N       38   1 H                                       1.0119736
    19   6 C       39   1 H                                       1.0873158
    19   6 C       40   1 H                                       1.0895704
    19   6 C       41   1 H                                       1.0897010
    21   7 N       42   1 H                                       1.0089353 (min)

 * 5 distinct bonds (by element types)

   Z      Z             #   av. dist./Å        max./Å        min./Å
   1 H    6 C          15     1.0886917     1.0915476     1.0868891
   6 C    6 C           4     1.5192206     1.5365011     1.4789782
   1 H    7 N           2     1.0104545     1.0119736     1.0089353
   6 C    7 N           7     1.3453313     1.4601860     1.2680238
   6 C    8 O           8     1.2852753     1.4373256     1.2020278


optimized geometry written to: xtbopt.xyz


           -------------------------------------------------
          | TOTAL ENERGY              -83.004928873092 Eh   |
          | GRADIENT NORM               0.000295748374 Eh/α |
          | HOMO-LUMO GAP               2.414820607662 eV   |
           -------------------------------------------------

------------------------------------------------------------------------
 * finished run on 2023/06/21 at 17:19:09.460     
------------------------------------------------------------------------
 total:
 * wall-time:     0 d,  0 h,  0 min,  3.182 sec
 *  cpu-time:     0 d,  0 h,  0 min,  3.125 sec
 * ratio c/w:     0.982 speedup
 SCF:
 * wall-time:     0 d,  0 h,  0 min,  0.163 sec
 *  cpu-time:     0 d,  0 h,  0 min,  0.162 sec
 * ratio c/w:     0.996 speedup
 ANC optimizer:
 * wall-time:     0 d,  0 h,  0 min,  2.961 sec
 *  cpu-time:     0 d,  0 h,  0 min,  2.924 sec
 * ratio c/w:     0.987 speedup

