      -----------------------------------------------------------      
     |                   =====================                   |     
     |                           x T B                           |     
     |                   =====================                   |     
     |                         S. Grimme                         |     
     |          Mulliken Center for Theoretical Chemistry        |     
     |                    University of Bonn                     |     
      -----------------------------------------------------------      

   * xtb version 6.5.1 (579679a) compiled by 'ehlert@majestix' on 2022-07-11

   xtb is free software: you can redistribute it and/or modify it under
   the terms of the GNU Lesser General Public License as published by
   the Free Software Foundation, either version 3 of the License, or
   (at your option) any later version.
   
   xtb is distributed in the hope that it will be useful,
   but WITHOUT ANY WARRANTY; without even the implied warranty of
   MERCHANTABILITY or FITNESS FOR A PARTICULAR PURPOSE.  See the
   GNU Lesser General Public License for more details.
   
   Cite this work as:
   * C. Bannwarth, E. Caldeweyher, S. Ehlert, A. Hansen, P. Pracht,
     J. Seibert, S. Spicher, S. Grimme, WIREs Comput. Mol. Sci., 2020, 11,
     e01493. DOI: 10.1002/wcms.1493
   
   for GFN2-xTB:
   * C. Bannwarth, S. Ehlert and S. Grimme., J. Chem. Theory Comput., 2019,
     15, 1652-1671. DOI: 10.1021/acs.jctc.8b01176
   for GFN1-xTB:
   * S. Grimme, C. Bannwarth, P. Shushkov, J. Chem. Theory Comput., 2017,
     13, 1989-2009. DOI: 10.1021/acs.jctc.7b00118
   for GFN0-xTB:
   * P. Pracht, E. Caldeweyher, S. Ehlert, S. Grimme, ChemRxiv, 2019, preprint.
     DOI: 10.26434/chemrxiv.8326202.v1
   for GFN-FF:
   * S. Spicher and S. Grimme, Angew. Chem. Int. Ed., 2020, 59, 15665-15673.
     DOI: 10.1002/anie.202004239
   
   for ALPB and GBSA implicit solvation:
   * S. Ehlert, M. Stahn, S. Spicher, S. Grimme, J. Chem. Theory Comput.,
     2021, 17, 4250-4261. DOI: 10.1021/acs.jctc.1c00471
   
   for DFT-D4:
   * E. Caldeweyher, C. Bannwarth and S. Grimme, J. Chem. Phys., 2017,
     147, 034112. DOI: 10.1063/1.4993215
   * E. Caldeweyher, S. Ehlert, A. Hansen, H. Neugebauer, S. Spicher,
     C. Bannwarth and S. Grimme, J. Chem. Phys., 2019, 150, 154122.
     DOI: 10.1063/1.5090222
   * E. Caldeweyher, J.-M. Mewes, S. Ehlert and S. Grimme, Phys. Chem. Chem. Phys.
     2020, 22, 8499-8512. DOI: 10.1039/D0CP00502A
   
   for sTDA-xTB:
   * S. Grimme and C. Bannwarth, J. Chem. Phys., 2016, 145, 054103.
     DOI: 10.1063/1.4959605
   
   in the mass-spec context:
   * V. Asgeirsson, C. Bauer and S. Grimme, Chem. Sci., 2017, 8, 4879.
     DOI: 10.1039/c7sc00601b
   * J. Koopman and S. Grimme, ACS Omega 2019, 4, 12, 15120-15133.
     DOI: 10.1021/acsomega.9b02011
   
   for metadynamics refer to:
   * S. Grimme, J. Chem. Theory Comput., 2019, 155, 2847-2862
     DOI: 10.1021/acs.jctc.9b00143
   
   for SPH calculations refer to:
   * S. Spicher and S. Grimme, J. Chem. Theory Comput., 2021, 17, 1701-1714
     DOI: 10.1021/acs.jctc.0c01306
   
   with help from (in alphabetical order)
   P. Atkinson, C. Bannwarth, F. Bohle, G. Brandenburg, E. Caldeweyher
   M. Checinski, S. Dohm, S. Ehlert, S. Ehrlich, I. Gerasimov, C. Hölzer
   A. Katbashev, J. Koopman, C. Lavigne, S. Lehtola, F. März, M. Müller,
   F. Musil, H. Neugebauer, J. Pisarek, C. Plett, P. Pracht, F. Pultar,
   J. Seibert, P. Shushkov, S. Spicher, M. Stahn, M. Steiner, T. Strunk,
   J. Stückrath, T. Rose, and J. Unsleber
   
 * started run on 2023/06/20 at 15:34:46.364     

           -------------------------------------------------
          |                Calculation Setup                |
           -------------------------------------------------

          program call               : /lustre/hpc/kemi/ree/PhD/git/ReactivityQM/dep/xtb-6.5.1/bin/xtb --gfn 1 /lustre/hpc/kemi/ree/PhD/git/ReactivityQM/calculations/R03/reac02prodE14/conf14/R03_reac02prodE14_conf14_gfn1.xyz --opt --vfukui --chrg -1 --uhf 0 --alpb DMSO
          hostname                   : node068
          coordinate file            : /lustre/hpc/kemi/ree/PhD/git/ReactivityQM/calculations/R03/reac02prodE14/conf14/R03_reac02prodE14_conf14_gfn1.xyz
          omp threads                :                     1

   ID    Z sym.   atoms
    1    6 C      1, 3, 5, 7-10, 12, 14, 17, 18, 21, 22, 24, 25
    2    8 O      2, 4, 13, 19, 23, 26
    3    7 N      6, 11, 15, 16, 20
    4    1 H      27-46

           -------------------------------------------------
          |                 G F N 1 - x T B                 |
           -------------------------------------------------

        Reference                      10.1021/acs.jctc.7b00118
      * Hamiltonian:
        H0-scaling (s, p, d)           1.850000    2.250000    2.000000
        zeta-weighting                 0.000000
      * Dispersion:
        s8                             2.400000
        a1                             0.630000
        a2                             5.000000
        s9                             0.000000
      * Repulsion:
        kExp                           1.500000
        rExp                           1.000000
      * Coulomb:
        alpha                          2.000000
        third order                    atomic
        anisotropic                    false
      * Halogen bond correction:
        rad-scale                      1.300000
        damping                        0.440000

      * Solvation model:               ALPB
        Solvent                        DMSO
        Parameter file                 internal GFN1-xTB/ALPB
        Dielectric constant                4.6680E+01
        Reference state                gsolv [1 M gas/solution]
        Free energy shift                  7.6243E-03 Eh       4.7843E+00 kcal/mol
        Temperature                        2.9815E+02 K
        Density                            1.1000E+00 kg/L
        Solvent mass                       7.8130E+01 g/mol
        Interaction kernel             P16
        Born radius scaling (c1)           1.7672E+00
        Born radii integrator          GBOBC
        Born offset                        0.0000E+00 a0       0.0000E+00 AA
        H-bond correction              true
        Ion screening                  false
        Surface tension                    1.0000E-05 Eh       1.5569E+01 dyn/cm
        Grid points                               230 per atom

          ...................................................
          :                      SETUP                      :
          :.................................................:
          :  # basis functions                 144          :
          :  # atomic orbitals                 144          :
          :  # shells                           92          :
          :  # electrons                       142          :
          :  # halogen bonds                     0          :
          :  max. iterations                   250          :
          :  Hamiltonian                  GFN1-xTB          :
          :  restarted?                      false          :
          :  GBSA solvation                   true          :
          :  PC potential                    false          :
          :  electronic temp.          300.0000000     K    :
          :  accuracy                    1.0000000          :
          :  -> integral cutoff          0.2500000E+02      :
          :  -> integral neglect         0.1000000E-07      :
          :  -> SCF convergence          0.1000000E-05 Eh   :
          :  -> wf. convergence          0.2000000E-04 e    :
          :  Broyden damping             0.4000000          :
          ...................................................

 iter      E             dE          RMSdq      gap      omega  full diag
   1    -87.5339036 -0.875339E+02  0.849E+00    1.59       0.0  T
   2    -87.8078315 -0.273928E+00  0.509E+00    0.74       1.0  T
   3    -87.7763664  0.314651E-01  0.165E+00    0.35       1.0  T
   4    -87.7897076 -0.133412E-01  0.558E-01    0.05       1.0  T
   5    -87.8250046 -0.352970E-01  0.289E-01    0.99       1.0  T
   6    -87.8289033 -0.389870E-02  0.140E-01    0.68       1.0  T
   7    -87.8295006 -0.597339E-03  0.982E-02    0.53       1.0  T
   8    -87.8298765 -0.375913E-03  0.555E-02    0.36       1.0  T
   9    -87.8300894 -0.212872E-03  0.105E-02    0.23       1.4  T
  10    -87.8300882  0.117051E-05  0.701E-03    0.23       2.1  T
  11    -87.8300882  0.387980E-07  0.505E-03    0.22       2.9  T
  12    -87.8300906 -0.236460E-05  0.221E-03    0.23       6.7  T
  13    -87.8300909 -0.352209E-06  0.104E-03    0.23      14.1  T
  14    -87.8300911 -0.124553E-06  0.657E-05    0.23     224.5  T
  15    -87.8300911  0.898126E-10  0.410E-05    0.23     359.8  T

   *** convergence criteria satisfied after 15 iterations ***

         #    Occupation            Energy/Eh            Energy/eV
      -------------------------------------------------------------
         1        2.0000           -0.8567590             -23.3136
       ...           ...                  ...                  ...
        65        2.0000           -0.4387650             -11.9394
        66        2.0000           -0.4274187             -11.6307
        67        2.0000           -0.4221792             -11.4881
        68        2.0000           -0.4161956             -11.3253
        69        2.0000           -0.4039099             -10.9909
        70        2.0000           -0.3803152             -10.3489
        71        1.9756           -0.3183171              -8.6618 (HOMO)
        72        0.0244           -0.3099694              -8.4347 (LUMO)
        73                         -0.2552263              -6.9451
        74                         -0.2438015              -6.6342
        75                         -0.2010385              -5.4705
        76                         -0.1943249              -5.2878
       ...                                ...                  ...
       144                          0.7225618              19.6619
      -------------------------------------------------------------
                  HL-Gap            0.0083477 Eh            0.2272 eV
             Fermi-level           -0.3141432 Eh           -8.5483 eV

 SCC (total)                   0 d,  0 h,  0 min,  0.151 sec
 SCC setup                      ...        0 min,  0.002 sec (  1.334%)
 Dispersion                     ...        0 min,  0.000 sec (  0.208%)
 classical contributions        ...        0 min,  0.000 sec (  0.070%)
 integral evaluation            ...        0 min,  0.030 sec ( 19.574%)
 iterations                     ...        0 min,  0.079 sec ( 52.330%)
 molecular gradient             ...        0 min,  0.039 sec ( 25.973%)
 printout                       ...        0 min,  0.001 sec (  0.499%)

         :::::::::::::::::::::::::::::::::::::::::::::::::::::
         ::                     SUMMARY                     ::
         :::::::::::::::::::::::::::::::::::::::::::::::::::::
         :: total energy             -87.047515980912 Eh    ::
         :: total w/o Gsasa/hb       -87.025692307954 Eh    ::
         :: gradient norm              0.148524824144 Eh/a0 ::
         :: HOMO-LUMO gap              0.227152809158 eV    ::
         ::.................................................::
         :: SCC energy               -87.830091052075 Eh    ::
         :: -> electrostatic           0.442985701085 Eh    ::
         :: -> Gsolv                  -0.111956940083 Eh    ::
         ::    -> Gelec               -0.090133267125 Eh    ::
         ::    -> Gsasa               -0.024755634986 Eh    ::
         ::    -> Ghb                 -0.004692316977 Eh    ::
         ::    -> Gshift               0.007624279005 Eh    ::
         :: repulsion energy           0.811992919033 Eh    ::
         :: dispersion energy         -0.029417847871 Eh    ::
         :: halogen bond corr.         0.000000000000 Eh    ::
         :: add. restraining           0.000000000000 Eh    ::
         :: total charge              -1.000000000000 e     ::
         :::::::::::::::::::::::::::::::::::::::::::::::::::::

      ----------------------------------------------------------- 
     |                   =====================                   |
     |                        A N C O P T                        |
     |                   =====================                   |
     |               Approximate Normal Coordinate               |
     |                Rational Function Optimizer                |
      ----------------------------------------------------------- 

          ...................................................
          :                      SETUP                      :
          :.................................................:
          :   optimization level            normal          :
          :   max. optcycles                   200          :
          :   ANC micro-cycles                  20          :
          :   degrees of freedom               132          :
          :.................................................:
          :   RF solver                   davidson          :
          :   write xtbopt.log                true          :
          :   linear?                        false          :
          :   energy convergence         0.5000000E-05 Eh   :
          :   grad. convergence          0.1000000E-02 Eh/α :
          :   maximium RF displ.         1.0000000          :
          :   Hlow (freq-cutoff)         0.1000000E-01      :
          :   Hmax (freq-cutoff)         5.0000000          :
          :   S6 in model hess.         20.0000000          :
          ...................................................

generating ANC from model Hessian ...
Using Lindh-Hessian (1995)
 Shifting diagonal of input Hessian by   9.841713055674460E-003
 Lowest  eigenvalues of input Hessian
    0.000000    0.000000    0.000000    0.000000    0.000000    0.000000
    0.010000    0.010158    0.010640    0.011045    0.011626    0.011738
    0.012999    0.013459    0.014149    0.014963    0.015741    0.015858
 Highest eigenvalues
    1.937289    2.108234    2.112917    2.242952    2.293763    2.314056
 

........................................................................
.............................. CYCLE    1 ..............................
........................................................................
   1    -87.8300911 -0.878301E+02  0.169E-05    0.23       0.0  T
   2    -87.8300911 -0.518696E-11  0.147E-05    0.23    1002.5  T
   3    -87.8300911 -0.229932E-10  0.170E-06    0.23    8692.7  T
     SCC iter.                  ...        0 min,  0.011 sec
     gradient                   ...        0 min,  0.038 sec
 * total energy  :   -87.0475160 Eh     change       -0.1332552E-09 Eh
   gradient norm :     0.1485227 Eh/α   predicted     0.0000000E+00 (-100.00%)
   displ. norm   :     0.3162374 α      lambda       -0.1897584E-01
   maximum displ.:     0.1285507 α      in ANC's #30, #26, #14, ...

........................................................................
.............................. CYCLE    2 ..............................
........................................................................
   1    -87.8463600 -0.878464E+02  0.100E-01    0.51       0.0  T
   2    -87.8468605 -0.500541E-03  0.533E-02    0.45       1.0  T
   3    -87.8470095 -0.149009E-03  0.164E-02    0.44       1.0  T
   4    -87.8470121 -0.261390E-05  0.802E-03    0.43       1.8  T
   5    -87.8470127 -0.535749E-06  0.327E-03    0.42       4.5  T
   6    -87.8470128 -0.138338E-06  0.625E-04    0.42      23.6  T
   7    -87.8470128 -0.101289E-07  0.160E-04    0.42      92.4  T
   8    -87.8470128 -0.501814E-09  0.542E-05    0.42     272.2  T
     SCC iter.                  ...        0 min,  0.051 sec
     gradient                   ...        0 min,  0.068 sec
 * total energy  :   -87.0616248 Eh     change       -0.1410880E-01 Eh
   gradient norm :     0.0788589 Eh/α   predicted    -0.1045163E-01 ( -25.92%)
   displ. norm   :     0.3076416 α      lambda       -0.9740712E-02
   maximum displ.:     0.1128745 α      in ANC's #30, #26, #14, ...

........................................................................
.............................. CYCLE    3 ..............................
........................................................................
   1    -87.8627772 -0.878628E+02  0.101E-01    0.70       0.0  T
   2    -87.8632841 -0.506899E-03  0.506E-02    0.69       1.0  T
   3    -87.8634256 -0.141506E-03  0.157E-02    0.69       1.0  T
   4    -87.8634269 -0.130900E-05  0.768E-03    0.69       1.9  T
   5    -87.8634270 -0.120164E-06  0.262E-03    0.69       5.6  T
   6    -87.8634271 -0.120658E-06  0.340E-04    0.69      43.4  T
   7    -87.8634271 -0.251950E-08  0.151E-04    0.69      97.6  T
   8    -87.8634271 -0.241300E-09  0.533E-05    0.69     276.4  T
     SCC iter.                  ...        0 min,  0.050 sec
     gradient                   ...        0 min,  0.057 sec
 * total energy  :   -87.0670724 Eh     change       -0.5447658E-02 Eh
   gradient norm :     0.0188920 Eh/α   predicted    -0.5333254E-02 (  -2.10%)
   displ. norm   :     0.1881836 α      lambda       -0.9615445E-03
   maximum displ.:     0.0795184 α      in ANC's #6, #14, #13, ...

........................................................................
.............................. CYCLE    4 ..............................
........................................................................
   1    -87.8638068 -0.878638E+02  0.166E-02    0.71       0.0  T
   2    -87.8638177 -0.109087E-04  0.732E-03    0.71       2.0  T
   3    -87.8638184 -0.690312E-06  0.362E-03    0.71       4.1  T
   4    -87.8638184 -0.236842E-07  0.140E-03    0.72      10.5  T
   5    -87.8638184 -0.122794E-07  0.225E-04    0.72      65.4  T
   6    -87.8638184 -0.854214E-09  0.809E-05    0.72     182.3  T
   7    -87.8638184 -0.160966E-09  0.301E-05    0.72     489.3  T
     SCC iter.                  ...        0 min,  0.027 sec
     gradient                   ...        0 min,  0.040 sec
 * total energy  :   -87.0677872 Eh     change       -0.7147908E-03 Eh
   gradient norm :     0.0107215 Eh/α   predicted    -0.4979714E-03 ( -30.33%)
   displ. norm   :     0.2754189 α      lambda       -0.7352332E-03
   maximum displ.:     0.1405229 α      in ANC's #6, #13, #14, ...

........................................................................
.............................. CYCLE    5 ..............................
........................................................................
   1    -87.8633889 -0.878634E+02  0.197E-02    0.72       0.0  T
   2    -87.8634049 -0.159478E-04  0.911E-03    0.72       1.6  T
   3    -87.8634073 -0.237558E-05  0.435E-03    0.72       3.4  T
   4    -87.8634074 -0.138799E-06  0.203E-03    0.72       7.3  T
   5    -87.8634074 -0.377440E-07  0.455E-04    0.72      32.4  T
   6    -87.8634074 -0.403250E-08  0.114E-04    0.72     128.8  T
   7    -87.8634074 -0.283976E-09  0.352E-05    0.72     418.6  T
     SCC iter.                  ...        0 min,  0.026 sec
     gradient                   ...        0 min,  0.040 sec
 * total energy  :   -87.0682654 Eh     change       -0.4781977E-03 Eh
   gradient norm :     0.0060159 Eh/α   predicted    -0.3955066E-03 ( -17.29%)
   displ. norm   :     0.2220709 α      lambda       -0.2862643E-03
   maximum displ.:     0.1246017 α      in ANC's #6, #13, #8, ...

........................................................................
.............................. CYCLE    6 ..............................
........................................................................
   1    -87.8637560 -0.878638E+02  0.937E-03    0.72       0.0  T
   2    -87.8637591 -0.313099E-05  0.426E-03    0.72       3.5  T
   3    -87.8637598 -0.672696E-06  0.192E-03    0.72       7.7  T
   4    -87.8637599 -0.380727E-07  0.842E-04    0.72      17.5  T
   5    -87.8637599 -0.403847E-08  0.201E-04    0.72      73.3  T
   6    -87.8637599 -0.849525E-09  0.515E-05    0.72     286.2  T
   7    -87.8637599 -0.546692E-10  0.154E-05    0.72     959.7  T
     SCC iter.                  ...        0 min,  0.026 sec
     gradient                   ...        0 min,  0.040 sec
 * total energy  :   -87.0684855 Eh     change       -0.2200393E-03 Eh
   gradient norm :     0.0068485 Eh/α   predicted    -0.1501915E-03 ( -31.74%)
   displ. norm   :     0.3069742 α      lambda       -0.3305037E-03
   maximum displ.:     0.1720220 α      in ANC's #6, #8, #2, ...

........................................................................
.............................. CYCLE    7 ..............................
........................................................................
   1    -87.8644869 -0.878645E+02  0.780E-03    0.71       0.0  T
   2    -87.8644887 -0.179093E-05  0.322E-03    0.71       4.6  T
   3    -87.8644890 -0.331603E-06  0.157E-03    0.72       9.4  T
   4    -87.8644891 -0.253857E-07  0.639E-04    0.72      23.1  T
   5    -87.8644891 -0.372599E-08  0.156E-04    0.72      94.4  T
   6    -87.8644891 -0.561528E-09  0.407E-05    0.72     362.4  T
     SCC iter.                  ...        0 min,  0.022 sec
     gradient                   ...        0 min,  0.037 sec
 * total energy  :   -87.0687353 Eh     change       -0.2498729E-03 Eh
   gradient norm :     0.0074208 Eh/α   predicted    -0.1808250E-03 ( -27.63%)
   displ. norm   :     0.3063804 α      lambda       -0.2719249E-03
   maximum displ.:     0.1692804 α      in ANC's #6, #2, #8, ...

........................................................................
.............................. CYCLE    8 ..............................
........................................................................
   1    -87.8653019 -0.878653E+02  0.633E-03    0.71       0.0  T
   2    -87.8653037 -0.175869E-05  0.232E-03    0.71       6.4  T
   3    -87.8653038 -0.706490E-07  0.119E-03    0.71      12.4  T
   4    -87.8653038 -0.135569E-08  0.432E-04    0.71      34.1  T
   5    -87.8653038 -0.245453E-08  0.106E-04    0.71     139.7  T
   6    -87.8653038 -0.322501E-09  0.354E-05    0.71     416.5  T
     SCC iter.                  ...        0 min,  0.031 sec
     gradient                   ...        0 min,  0.050 sec
 * total energy  :   -87.0689339 Eh     change       -0.1985817E-03 Eh
   gradient norm :     0.0062564 Eh/α   predicted    -0.1487260E-03 ( -25.11%)
   displ. norm   :     0.2562475 α      lambda       -0.1730704E-03
   maximum displ.:     0.1367930 α      in ANC's #6, #2, #4, ...

........................................................................
.............................. CYCLE    9 ..............................
........................................................................
   1    -87.8661323 -0.878661E+02  0.632E-03    0.71       0.0  T
   2    -87.8661343 -0.192261E-05  0.278E-03    0.71       5.3  T
   3    -87.8661344 -0.185413E-06  0.134E-03    0.71      11.0  T
   4    -87.8661344 -0.707468E-08  0.654E-04    0.71      22.5  T
   5    -87.8661345 -0.638983E-08  0.151E-04    0.71      97.9  T
   6    -87.8661345 -0.457419E-09  0.394E-05    0.71     373.9  T
     SCC iter.                  ...        0 min,  0.039 sec
     gradient                   ...        0 min,  0.069 sec
 * total energy  :   -87.0690571 Eh     change       -0.1231979E-03 Eh
   gradient norm :     0.0042235 Eh/α   predicted    -0.9221823E-04 ( -25.15%)
   displ. norm   :     0.1998195 α      lambda       -0.9967737E-04
   maximum displ.:     0.1082176 α      in ANC's #2, #6, #4, ...

........................................................................
.............................. CYCLE   10 ..............................
........................................................................
   1    -87.8665458 -0.878665E+02  0.554E-03    0.71       0.0  T
   2    -87.8665472 -0.136760E-05  0.256E-03    0.71       5.8  T
   3    -87.8665474 -0.199423E-06  0.112E-03    0.71      13.2  T
   4    -87.8665474 -0.811909E-08  0.534E-04    0.71      27.6  T
   5    -87.8665474 -0.333718E-08  0.143E-04    0.71     103.1  T
   6    -87.8665474 -0.333415E-09  0.346E-05    0.71     425.8  T
     SCC iter.                  ...        0 min,  0.037 sec
     gradient                   ...        0 min,  0.068 sec
 * total energy  :   -87.0691308 Eh     change       -0.7368852E-04 Eh
   gradient norm :     0.0029098 Eh/α   predicted    -0.5183184E-04 ( -29.66%)
   displ. norm   :     0.1839750 α      lambda       -0.7924987E-04
   maximum displ.:     0.1070188 α      in ANC's #2, #4, #6, ...

........................................................................
.............................. CYCLE   11 ..............................
........................................................................
   1    -87.8667902 -0.878668E+02  0.446E-03    0.72       0.0  T
   2    -87.8667909 -0.756936E-06  0.198E-03    0.71       7.4  T
   3    -87.8667910 -0.109849E-06  0.855E-04    0.71      17.2  T
   4    -87.8667910 -0.365786E-08  0.390E-04    0.71      37.8  T
   5    -87.8667910 -0.236476E-08  0.113E-04    0.71     130.6  T
   6    -87.8667910 -0.198099E-09  0.263E-05    0.71     560.1  T
     SCC iter.                  ...        0 min,  0.037 sec
     gradient                   ...        0 min,  0.068 sec
 * total energy  :   -87.0691919 Eh     change       -0.6105813E-04 Eh
   gradient norm :     0.0029834 Eh/α   predicted    -0.4097059E-04 ( -32.90%)
   displ. norm   :     0.2079467 α      lambda       -0.8023611E-04
   maximum displ.:     0.1218350 α      in ANC's #2, #4, #3, ...

........................................................................
.............................. CYCLE   12 ..............................
........................................................................
   1    -87.8666819 -0.878667E+02  0.409E-03    0.72       0.0  T
   2    -87.8666825 -0.636356E-06  0.163E-03    0.72       9.1  T
   3    -87.8666826 -0.711442E-07  0.711E-04    0.72      20.7  T
   4    -87.8666826 -0.421075E-08  0.328E-04    0.72      44.9  T
   5    -87.8666826 -0.157254E-08  0.101E-04    0.72     145.5  T
   6    -87.8666826 -0.148120E-09  0.240E-05    0.72     615.1  T
     SCC iter.                  ...        0 min,  0.039 sec
     gradient                   ...        0 min,  0.066 sec
 * total energy  :   -87.0692536 Eh     change       -0.6175945E-04 Eh
   gradient norm :     0.0035811 Eh/α   predicted    -0.4186531E-04 ( -32.21%)
   displ. norm   :     0.2201811 α      lambda       -0.7568856E-04
   maximum displ.:     0.1274520 α      in ANC's #2, #3, #4, ...

........................................................................
.............................. CYCLE   13 ..............................
........................................................................
   1    -87.8666903 -0.878667E+02  0.360E-03    0.72       0.0  T
   2    -87.8666908 -0.555536E-06  0.119E-03    0.72      12.4  T
   3    -87.8666909 -0.257309E-07  0.604E-04    0.72      24.4  T
   4    -87.8666909 -0.158127E-08  0.274E-04    0.72      53.7  T
   5    -87.8666909 -0.108791E-08  0.831E-05    0.72     177.5  T
   6    -87.8666909 -0.172605E-09  0.216E-05    0.72     683.8  T
     SCC iter.                  ...        0 min,  0.031 sec
     gradient                   ...        0 min,  0.042 sec
 * total energy  :   -87.0693096 Eh     change       -0.5600886E-04 Eh
   gradient norm :     0.0034709 Eh/α   predicted    -0.3967932E-04 ( -29.16%)
   displ. norm   :     0.2133900 α      lambda       -0.5865143E-04
   maximum displ.:     0.1200748 α      in ANC's #2, #3, #4, ...

........................................................................
.............................. CYCLE   14 ..............................
........................................................................
   1    -87.8661446 -0.878661E+02  0.379E-03    0.72       0.0  T
   2    -87.8661451 -0.470084E-06  0.153E-03    0.72       9.6  T
   3    -87.8661451 -0.249259E-07  0.778E-04    0.72      18.9  T
   4    -87.8661451 -0.247141E-08  0.255E-04    0.72      57.8  T
   5    -87.8661451 -0.405308E-09  0.737E-05    0.72     200.1  T
   6    -87.8661451 -0.141014E-09  0.262E-05    0.72     562.5  T
     SCC iter.                  ...        0 min,  0.022 sec
     gradient                   ...        0 min,  0.040 sec
 * total energy  :   -87.0693498 Eh     change       -0.4021703E-04 Eh
   gradient norm :     0.0027201 Eh/α   predicted    -0.3066145E-04 ( -23.76%)
   displ. norm   :     0.1607286 α      lambda       -0.4412602E-04
   maximum displ.:     0.0818277 α      in ANC's #2, #3, #10, ...

........................................................................
.............................. CYCLE   15 ..............................
........................................................................
   1    -87.8672839 -0.878673E+02  0.419E-03    0.72       0.0  T
   2    -87.8672842 -0.326927E-06  0.201E-03    0.72       7.3  T
   3    -87.8672842 -0.210675E-07  0.102E-03    0.72      14.4  T
   4    -87.8672842 -0.418341E-08  0.233E-04    0.72      63.4  T
   5    -87.8672842 -0.483396E-09  0.664E-05    0.72     222.2  T
   6    -87.8672842 -0.113999E-09  0.214E-05    0.72     688.7  T
     SCC iter.                  ...        0 min,  0.029 sec
     gradient                   ...        0 min,  0.071 sec
 * total energy  :   -87.0693708 Eh     change       -0.2094950E-04 Eh
   gradient norm :     0.0023132 Eh/α   predicted    -0.2263572E-04 (   8.05%)
   displ. norm   :     0.0979507 α      lambda       -0.2607228E-04
   maximum displ.:     0.0485162 α      in ANC's #2, #10, #3, ...

........................................................................
.............................. CYCLE   16 ..............................
........................................................................
   1    -87.8666807 -0.878667E+02  0.364E-03    0.72       0.0  T
   2    -87.8666809 -0.152152E-06  0.176E-03    0.72       8.4  T
   3    -87.8666809 -0.841156E-08  0.839E-04    0.72      17.6  T
   4    -87.8666809 -0.383189E-08  0.194E-04    0.72      75.9  T
   5    -87.8666809 -0.381192E-09  0.455E-05    0.72     323.9  T
     SCC iter.                  ...        0 min,  0.032 sec
     gradient                   ...        0 min,  0.065 sec
 * total energy  :   -87.0693843 Eh     change       -0.1352168E-04 Eh
   gradient norm :     0.0019368 Eh/α   predicted    -0.1316488E-04 (  -2.64%)
   displ. norm   :     0.0421955 α      lambda       -0.9518005E-05
   maximum displ.:     0.0177992 α      in ANC's #4, #12, #2, ...

........................................................................
.............................. CYCLE   17 ..............................
........................................................................
   1    -87.8673051 -0.878673E+02  0.202E-03    0.72       0.0  T
   2    -87.8673052 -0.149614E-06  0.820E-04    0.72      18.0  T
   3    -87.8673052 -0.648853E-08  0.401E-04    0.72      36.8  T
   4    -87.8673052 -0.500108E-09  0.173E-04    0.72      85.1  T
   5    -87.8673052 -0.383622E-09  0.409E-05    0.72     360.3  T
     SCC iter.                  ...        0 min,  0.031 sec
     gradient                   ...        0 min,  0.065 sec
 * total energy  :   -87.0693935 Eh     change       -0.9210454E-05 Eh
   gradient norm :     0.0011366 Eh/α   predicted    -0.4767652E-05 ( -48.24%)
   displ. norm   :     0.0530811 α      lambda       -0.5711181E-05
   maximum displ.:     0.0290940 α      in ANC's #3, #10, #2, ...

........................................................................
.............................. CYCLE   18 ..............................
........................................................................
   1    -87.8670086 -0.878670E+02  0.150E-03    0.72       0.0  T
   2    -87.8670087 -0.107524E-06  0.679E-04    0.72      21.7  T
   3    -87.8670087 -0.767596E-08  0.330E-04    0.72      44.7  T
   4    -87.8670087 -0.125141E-09  0.128E-04    0.72     115.2  T
   5    -87.8670087 -0.264663E-09  0.382E-05    0.72     386.4  T
     SCC iter.                  ...        0 min,  0.030 sec
     gradient                   ...        0 min,  0.067 sec
 * total energy  :   -87.0693992 Eh     change       -0.5660985E-05 Eh
   gradient norm :     0.0006960 Eh/α   predicted    -0.2860796E-05 ( -49.46%)
   displ. norm   :     0.0550606 α      lambda       -0.4224709E-05
   maximum displ.:     0.0331516 α      in ANC's #3, #2, #10, ...

........................................................................
.............................. CYCLE   19 ..............................
........................................................................
   1    -87.8671234 -0.878671E+02  0.116E-03    0.72       0.0  T
   2    -87.8671234 -0.364272E-07  0.530E-04    0.72      27.8  T
   3    -87.8671234 -0.217965E-08  0.271E-04    0.72      54.4  T
   4    -87.8671234 -0.123990E-09  0.793E-05    0.72     185.9  T
   5    -87.8671234 -0.169450E-09  0.243E-05    0.72     605.8  T
     SCC iter.                  ...        0 min,  0.030 sec
     gradient                   ...        0 min,  0.066 sec
 * total energy  :   -87.0694038 Eh     change       -0.4572726E-05 Eh
   gradient norm :     0.0008608 Eh/α   predicted    -0.2118913E-05 ( -53.66%)
   displ. norm   :     0.0667238 α      lambda       -0.4248076E-05
   maximum displ.:     0.0411060 α      in ANC's #3, #2, #1, ...

   *** GEOMETRY OPTIMIZATION CONVERGED AFTER 19 ITERATIONS ***

------------------------------------------------------------------------
 total energy gain   :        -0.0218878 Eh      -13.7348 kcal/mol
 total RMSD          :         0.3927014 a0        0.2078 Å
 total power (kW/mol):        -3.0245457 (step)  -25.6783 (real)
------------------------------------------------------------------------

 ANCopt (total)                0 d,  0 h,  0 min,  2.238 sec
 optimizer setup                ...        0 min,  0.001 sec (  0.034%)
 model hessian                  ...        0 min,  0.017 sec (  0.780%)
 ANC generation                 ...        0 min,  0.002 sec (  0.094%)
 coordinate transformation      ...        0 min,  0.000 sec (  0.021%)
 single point calculation       ...        0 min,  2.205 sec ( 98.511%)
 optimization log               ...        0 min,  0.009 sec (  0.415%)
 hessian update                 ...        0 min,  0.000 sec (  0.019%)
 rational function              ...        0 min,  0.002 sec (  0.078%)

================
 final structure:
================
46
 xtb: 6.5.1 (579679a)
C           -5.03456698705823        2.99810812199755       -1.56045703010647
O           -4.21208859648807        2.22860994878380       -0.69822878173462
C           -3.14029483456151        1.58211261570574       -1.32690586971958
O           -2.96427733434799        1.75616018131930       -2.53982543396791
C           -2.36932198119836        0.79166559418825       -0.45162578201621
N           -1.29403285227694        0.16566268226674       -0.99882016136747
C           -0.46065959820119       -0.55708214752687       -0.34182843058454
C            0.62526979899964       -1.26736290209387       -1.13445574669672
C            0.43831703406824       -2.79225200092631       -1.08726585284886
C            0.55941699971896       -0.79601910027109       -2.59603642487424
N            1.94827915659557       -0.87684880975436       -0.60035663757480
C            3.11378671656299       -1.40825495033116       -1.00396497078123
O            3.25079402983320       -2.34376232774941       -1.77848432258406
C            4.29415466657405       -0.74410045615186       -0.38265750334406
N            5.54628706947245       -1.02244297779820       -0.57716801065773
N            6.26701360072744       -0.15516820677270        0.19058444859539
C            5.41030996025753        0.59927543801473        0.80485377824060
C            5.68914097210846        1.70195783433160        1.75051398231393
O            4.14453911087171        0.27975927331976        0.48662375388485
N           -0.61084027461409       -0.74797389855580        1.06360751209235
C            0.31824700290401       -1.53354033727739        1.87500207300959
C           -1.64691895938151       -0.21313199738434        1.75799414017384
O           -1.75736726755248       -0.41903534628473        2.96924119486331
C           -2.70667235657638        0.62320516204420        1.01529972738862
C           -4.05232405461005       -0.11009358394336        1.22448916546613
O           -2.74657907250471        1.88070930259766        1.70295964696786
H           -4.46377147542186        3.80576619396661       -2.03315042404136
H           -5.47309829563167        2.37208630788935       -2.34614200440611
H           -5.83120337090149        3.42470446290777       -0.95111738828059
H            1.05502878090222       -3.28012768944223       -1.84025171913419
H            0.70041374177220       -3.19877112527913       -0.11401914254764
H           -0.60701832074329       -3.02090022795800       -1.29242851409803
H            0.68729722333143        0.28461261649420       -2.64644927392832
H            1.34448661913085       -1.27742928108954       -3.17681287317234
H           -0.40942583083854       -1.05381598274029       -3.02105980702867
H            1.98687730639855       -0.02966628267575       -0.05549175433594
H            5.17009545924048        1.52677383828498        2.69221966712975
H            5.33116523070198        2.64557809970786        1.33821921038071
H            6.75928709188135        1.76814927592395        1.92902756740369
H            1.26545090955465       -1.66565945017431        1.36440636493428
H           -0.11728271340431       -2.50914998112220        2.10167729682308
H            0.49603611601535       -1.00549465942639        2.81377383329653
H           -4.86811961236285        0.47034192729959        0.80074041126573
H           -4.23034661748665       -0.24504831800945        2.29113267163876
H           -4.01790368299304       -1.08397910996512        0.73808329550605
H           -3.38757950846700        2.45187327367870        1.25524611845374
 
 Bond Distances (Angstroems)
 ---------------------------
C1-O2=1.4185         C1-H27=1.0962        C1-H28=1.0961        C1-H29=1.0899        O2-C1=1.4185         O2-C3=1.4007         
C3-O2=1.4007         C3-O4=1.2379         C3-C5=1.4090         O4-C3=1.2379         C5-C3=1.4090         C5-N6=1.3592         
C5-C24=1.5146        N6-C5=1.3592         N6-C7=1.2839         C7-N6=1.2839         C7-C8=1.5205         C7-N20=1.4263        
C8-C7=1.5205         C8-C9=1.5370         C8-C10=1.5371        C8-N11=1.4792        C9-C8=1.5370         C9-H30=1.0887        
C9-H31=1.0868        C9-H32=1.0895        C10-C8=1.5371        C10-H33=1.0893       C10-H34=1.0888       C10-H35=1.0889       
N11-C8=1.4792        N11-C12=1.3430       N11-H36=1.0080       C12-N11=1.3430       C12-O13=1.2222       C12-C14=1.4901       
O13-C12=1.2222       C14-C12=1.4901       C14-N15=1.2974       C14-O19=1.3514       N15-C14=1.2974       N15-N16=1.3642       
N16-N15=1.3642       N16-C17=1.2963       C17-N16=1.2963       C17-C18=1.4792       C17-O19=1.3437       C18-C17=1.4792       
C18-H37=1.0895       C18-H38=1.0902       C18-H39=1.0870       O19-C14=1.3514       O19-C17=1.3437       N20-C7=1.4263        
N20-C21=1.4624       N20-C22=1.3571       C21-N20=1.4624       C21-H40=1.0841       C21-H41=1.0922       C21-H42=1.0917       
C22-N20=1.3571       C22-O23=1.2336       C22-C24=1.5408       O23-C22=1.2336       C24-C5=1.5146        C24-C22=1.5408       
C24-C25=1.5467       C24-O26=1.4338       C25-C24=1.5467       C25-H43=1.0872       C25-H44=1.0898       C25-H45=1.0891       
O26-C24=1.4338       O26-H46=0.9683       H27-C1=1.0962        H28-C1=1.0961        H29-C1=1.0899        H30-C9=1.0887        
H31-C9=1.0868        H32-C9=1.0895        H33-C10=1.0893       H34-C10=1.0888       H35-C10=1.0889       H36-N11=1.0080       
H37-C18=1.0895       H38-C18=1.0902       H39-C18=1.0870       H40-C21=1.0841       H41-C21=1.0922       H42-C21=1.0917       
H43-C25=1.0872       H44-C25=1.0898       H45-C25=1.0891       H46-O26=0.9683       
 C  H  Rav=1.0897 sigma=0.0029  Rmin=1.0841  Rmax=1.0962    18
 C  C  Rav=1.5083 sigma=0.0414  Rmin=1.4090  Rmax=1.5467     9
 N  H  Rav=1.0080 sigma=0.0000  Rmin=1.0080  Rmax=1.0080     1
 N  C  Rav=1.3672 sigma=0.0689  Rmin=1.2839  Rmax=1.4792     9
 N  N  Rav=1.3642 sigma=0.0000  Rmin=1.3642  Rmax=1.3642     1
 O  H  Rav=0.9683 sigma=0.0000  Rmin=0.9683  Rmax=0.9683     1
 O  C  Rav=1.3302 sigma=0.0819  Rmin=1.2222  Rmax=1.4338     8
 
 selected bond angles (degree)
 --------------------
H27-C1-O2=111.09               H28-C1-O2=110.97               H28-C1-H27=108.67              H29-C1-O2=107.24               
H29-C1-H27=109.47              H29-C1-H28=109.38              C3-O2-C1=114.91                O4-C3-O2=118.93                
C5-C3-O2=113.50                C5-C3-O4=127.57                N6-C5-C3=116.18                C24-C5-C3=122.83               
C24-C5-N6=120.99               C7-N6-C5=124.52                C8-C7-N6=117.37                N20-C7-N6=120.75               
N20-C7-C8=121.76               C9-C8-C7=111.13                C10-C8-C7=108.77               C10-C8-C9=109.16               
N11-C8-C7=109.10               N11-C8-C9=111.08               N11-C8-C10=107.50              H30-C9-C8=110.76               
H31-C9-C8=111.67               H31-C9-H30=108.37              H32-C9-C8=108.61               H32-C9-H30=108.61              
H32-C9-H31=108.75              H33-C10-C8=110.07              H34-C10-C8=109.92              H34-C10-H33=109.23             
H35-C10-C8=109.67              H35-C10-H33=108.74             H35-C10-H34=109.19             
 
 selected dihedral angles (degree)
 ---------------------------------
C3-O2-C1-H27=298.48           C3-O2-C1-H28= 59.49           C3-O2-C1-H29=178.90           O4-C3-O2-C1=  2.31            
C5-C3-O2-C1=181.97            N6-C5-C3-O2=181.59            N6-C5-C3-O4=  1.21            C24-C5-C3-O2=  2.15           
C24-C5-C3-O4=181.78           C7-N6-C5-C3=177.69            C7-N6-C5-C24=357.14           C8-C7-N6-C5=175.51            
N20-C7-N6-C5=359.48           C9-C8-C7-N6=246.56            C9-C8-C7-N20= 62.55           C10-C8-C7-N6=  6.76           
C10-C8-C7-N20=182.75          N11-C8-C7-N6=123.75           N11-C8-C7-N20=299.74          H30-C9-C8-C7=166.09           
H30-C9-C8-C10= 46.12          H30-C9-C8-N11=287.75          H31-C9-C8-C7=286.97           H31-C9-C8-C10=167.00          
H31-C9-C8-N11= 48.63          H32-C9-C8-C7= 46.89           H32-C9-C8-C10=286.92          H32-C9-C8-N11=168.56          
H33-C10-C8-C7= 58.41          H33-C10-C8-C9=179.83          H33-C10-C8-N11=300.40         H34-C10-C8-C7=178.76          
H34-C10-C8-C9=300.18          H34-C10-C8-N11= 60.76         H35-C10-C8-C7=298.82          H35-C10-C8-C9= 60.23          
H35-C10-C8-N11=180.81         
           -------------------------------------------------
          |                Final Singlepoint                |
           -------------------------------------------------

          ...................................................
          :                      SETUP                      :
          :.................................................:
          :  # basis functions                 144          :
          :  # atomic orbitals                 144          :
          :  # shells                           92          :
          :  # electrons                       142          :
          :  # halogen bonds                     0          :
          :  max. iterations                   250          :
          :  Hamiltonian                  GFN1-xTB          :
          :  restarted?                      false          :
          :  GBSA solvation                   true          :
          :  PC potential                    false          :
          :  electronic temp.          300.0000000     K    :
          :  accuracy                    1.0000000          :
          :  -> integral cutoff          0.2500000E+02      :
          :  -> integral neglect         0.1000000E-07      :
          :  -> SCF convergence          0.1000000E-05 Eh   :
          :  -> wf. convergence          0.2000000E-04 e    :
          :  Broyden damping             0.4000000          :
          ...................................................

 iter      E             dE          RMSdq      gap      omega  full diag
   1    -87.8671234 -0.878671E+02  0.809E-06    0.72       0.0  T
   2    -87.8671234 -0.611067E-12  0.427E-06    0.72    3454.3  T
   3    -87.8671234  0.000000E+00  0.236E-06    0.72    6238.1  T

   *** convergence criteria satisfied after 3 iterations ***

         #    Occupation            Energy/Eh            Energy/eV
      -------------------------------------------------------------
         1        2.0000           -0.8609792             -23.4284
       ...           ...                  ...                  ...
        65        2.0000           -0.4427936             -12.0490
        66        2.0000           -0.4349393             -11.8353
        67        2.0000           -0.4205447             -11.4436
        68        2.0000           -0.4163075             -11.3283
        69        2.0000           -0.4042125             -10.9992
        70        2.0000           -0.3833177             -10.4306
        71        2.0000           -0.3296000              -8.9689 (HOMO)
        72        0.0000           -0.3029806              -8.2445 (LUMO)
        73                         -0.2531063              -6.8874
        74                         -0.2434565              -6.6248
        75                         -0.2010301              -5.4703
        76                         -0.1914438              -5.2095
       ...                                ...                  ...
       144                          0.7332818              19.9536
      -------------------------------------------------------------
                  HL-Gap            0.0266194 Eh            0.7244 eV
             Fermi-level           -0.3162903 Eh           -8.6067 eV

 SCC (total)                   0 d,  0 h,  0 min,  0.119 sec
 SCC setup                      ...        0 min,  0.002 sec (  1.645%)
 Dispersion                     ...        0 min,  0.000 sec (  0.245%)
 classical contributions        ...        0 min,  0.000 sec (  0.093%)
 integral evaluation            ...        0 min,  0.029 sec ( 24.776%)
 iterations                     ...        0 min,  0.018 sec ( 15.287%)
 molecular gradient             ...        0 min,  0.068 sec ( 56.742%)
 printout                       ...        0 min,  0.001 sec (  1.192%)

         :::::::::::::::::::::::::::::::::::::::::::::::::::::
         ::                     SUMMARY                     ::
         :::::::::::::::::::::::::::::::::::::::::::::::::::::
         :: total energy             -87.069403764754 Eh    ::
         :: total w/o Gsasa/hb       -87.047319329906 Eh    ::
         :: gradient norm              0.000862336626 Eh/a0 ::
         :: HOMO-LUMO gap              0.724350040430 eV    ::
         ::.................................................::
         :: SCC energy               -87.867123427631 Eh    ::
         :: -> electrostatic           0.455039104995 Eh    ::
         :: -> Gsolv                  -0.113957737059 Eh    ::
         ::    -> Gelec               -0.091873302210 Eh    ::
         ::    -> Gsasa               -0.024852423516 Eh    ::
         ::    -> Ghb                 -0.004856290338 Eh    ::
         ::    -> Gshift               0.007624279005 Eh    ::
         :: repulsion energy           0.827174175171 Eh    ::
         :: dispersion energy         -0.029454512295 Eh    ::
         :: halogen bond corr.         0.000000000000 Eh    ::
         :: add. restraining           0.000000000000 Eh    ::
         :: total charge              -1.000000000000 e     ::
         :::::::::::::::::::::::::::::::::::::::::::::::::::::

           -------------------------------------------------
          |                Property Printout                |
           -------------------------------------------------

    * Orbital Energies and Occupations

         #    Occupation            Energy/Eh            Energy/eV
      -------------------------------------------------------------
         1        2.0000           -0.8609792             -23.4284
       ...           ...                  ...                  ...
        59        2.0000           -0.4695165             -12.7762
        60        2.0000           -0.4675877             -12.7237
        61        2.0000           -0.4564427             -12.4204
        62        2.0000           -0.4535564             -12.3419
        63        2.0000           -0.4454095             -12.1202
        64        2.0000           -0.4450697             -12.1110
        65        2.0000           -0.4427936             -12.0490
        66        2.0000           -0.4349393             -11.8353
        67        2.0000           -0.4205447             -11.4436
        68        2.0000           -0.4163075             -11.3283
        69        2.0000           -0.4042125             -10.9992
        70        2.0000           -0.3833177             -10.4306
        71        2.0000           -0.3296000              -8.9689 (HOMO)
        72        0.0000           -0.3029806              -8.2445 (LUMO)
        73                         -0.2531063              -6.8874
        74                         -0.2434565              -6.6248
        75                         -0.2010301              -5.4703
        76                         -0.1914438              -5.2095
        77                         -0.1428384              -3.8868
        78                         -0.1410755              -3.8389
        79                         -0.1232559              -3.3540
        80                         -0.1115926              -3.0366
        81                         -0.1096442              -2.9836
        82                         -0.1028702              -2.7992
       ...                                ...                  ...
       144                          0.7332818              19.9536
      -------------------------------------------------------------
                  HL-Gap            0.0266194 Eh            0.7244 eV
             Fermi-level           -0.3162903 Eh           -8.6067 eV

  Mulliken/CM5 charges         n(s)   n(p)   n(d)
     1C     0.17905  0.05982   0.967  2.854  0.000
     2O    -0.47732 -0.57215   1.703  4.774  0.000
     3C     0.50389  0.56376   0.974  2.522  0.000
     4O    -0.66929 -0.71231   1.741  4.929  0.000
     5C    -0.06318  0.01330   1.018  3.045  0.000
     6N    -0.36649 -0.55773   1.524  3.843  0.000
     7C     0.17155  0.31654   0.993  2.835  0.000
     8C     0.15435  0.19211   1.068  2.777  0.000
     9C    -0.10101 -0.24160   1.017  3.084  0.000
    10C    -0.08840 -0.22580   1.015  3.074  0.000
    11N    -0.33434 -0.69369   1.437  3.897  0.000
    12C     0.46443  0.57332   0.975  2.561  0.000
    13O    -0.58664 -0.63115   1.728  4.859  0.000
    14C     0.32994  0.45536   1.012  2.658  0.000
    15N    -0.22891 -0.33269   1.567  3.662  0.000
    16N    -0.27280 -0.38056   1.565  3.708  0.000
    17C     0.38964  0.49833   1.006  2.604  0.000
    18C    -0.11102 -0.24846   1.011  3.100  0.000
    19O    -0.35920 -0.41627   1.697  4.662  0.000
    20N    -0.25643 -0.50082   1.450  3.807  0.000
    21C     0.05547 -0.03197   0.985  2.960  0.000
    22C     0.44195  0.54760   1.005  2.553  0.000
    23O    -0.61929 -0.66539   1.738  4.881  0.000
    24C     0.21825  0.23492   1.048  2.733  0.000
    25C    -0.10700 -0.24840   1.019  3.088  0.000
    26O    -0.60612 -0.80183   1.710  4.896  0.000
    27H     0.02475  0.08621   0.975  0.000  0.000
    28H     0.02459  0.08612   0.975  0.000  0.000
    29H     0.02491  0.08505   0.975  0.000  0.000
    30H     0.04837  0.10826   0.952  0.000  0.000
    31H     0.03603  0.09455   0.964  0.000  0.000
    32H     0.03376  0.08886   0.966  0.000  0.000
    33H     0.03369  0.09333   0.966  0.000  0.000
    34H     0.03684  0.09597   0.963  0.000  0.000
    35H     0.03668  0.09493   0.963  0.000  0.000
    36H     0.25200  0.45929   0.748  0.000  0.000
    37H     0.07748  0.13209   0.923  0.000  0.000
    38H     0.07767  0.13205   0.922  0.000  0.000
    39H     0.06774  0.12360   0.932  0.000  0.000
    40H     0.03469  0.10861   0.965  0.000  0.000
    41H     0.04048  0.10375   0.960  0.000  0.000
    42H     0.05301  0.12099   0.947  0.000  0.000
    43H     0.03487  0.09495   0.965  0.000  0.000
    44H     0.03447  0.09273   0.966  0.000  0.000
    45H     0.01711  0.07225   0.983  0.000  0.000
    46H     0.34979  0.53216   0.650  0.000  0.000

Wiberg/Mayer (AO) data.
largest (>0.10) Wiberg bond orders for each atom

 ---------------------------------------------------------------------------
     #   Z sym  total        # sym  WBO       # sym  WBO       # sym  WBO
 ---------------------------------------------------------------------------
     1   6 C    3.907 --    29 H    0.987    28 H    0.981    27 H    0.981
                             2 O    0.935
     2   8 O    2.104 --     3 C    0.946     1 C    0.935
     3   6 C    3.863 --     4 O    1.494     5 C    1.292     2 O    0.946
     4   8 O    1.797 --     3 C    1.494     5 C    0.108
     5   6 C    3.860 --     3 C    1.292     6 N    1.219    24 C    0.975
                             7 C    0.113     4 O    0.108
     6   7 N    3.064 --     7 C    1.606     5 C    1.219
     7   6 C    3.896 --     6 N    1.606     8 C    0.980    20 N    0.979
                             5 C    0.113
     8   6 C    3.924 --    10 C    0.991     9 C    0.988     7 C    0.980
                            11 N    0.900
     9   6 C    3.989 --     8 C    0.988    32 H    0.986    31 H    0.982
                            30 H    0.981
    10   6 C    3.992 --     8 C    0.991    34 H    0.985    33 H    0.985
                            35 H    0.984
    11   7 N    3.370 --    12 C    1.279     8 C    0.900    36 H    0.899
                            13 O    0.181
    12   6 C    3.921 --    13 O    1.572    11 N    1.279    14 C    0.985
    13   8 O    1.891 --    12 C    1.572    11 N    0.181
    14   6 C    3.868 --    15 N    1.626    19 O    1.047    12 C    0.985
    15   7 N    2.996 --    14 C    1.626    16 N    1.194
    16   7 N    2.981 --    17 C    1.616    15 N    1.194
    17   6 C    3.870 --    16 N    1.616    19 O    1.071    18 C    1.031
    18   6 C    3.987 --    17 C    1.031    39 H    0.983    37 H    0.965
                            38 H    0.962
    19   8 O    2.315 --    17 C    1.071    14 C    1.047
    20   7 N    3.429 --    22 C    1.242     7 C    0.979    21 C    0.946
                            23 O    0.147
    21   6 C    3.949 --    41 H    0.981    40 H    0.980    42 H    0.979
                            20 N    0.946
    22   6 C    3.890 --    23 O    1.562    20 N    1.242    24 C    0.936
    23   8 O    1.860 --    22 C    1.562    20 N    0.147
    24   6 C    3.912 --     5 C    0.975    25 C    0.970    22 C    0.936
                            26 O    0.929
    25   6 C    3.995 --    45 H    0.988    44 H    0.985    43 H    0.983
                            24 C    0.970
    26   8 O    1.880 --    24 C    0.929    46 H    0.858
    27   1 H    1.018 --     1 C    0.981
    28   1 H    1.017 --     1 C    0.981
    29   1 H    1.017 --     1 C    0.987
    30   1 H    1.015 --     9 C    0.981
    31   1 H    1.005 --     9 C    0.982
    32   1 H    1.007 --     9 C    0.986
    33   1 H    1.016 --    10 C    0.985
    34   1 H    1.008 --    10 C    0.985
    35   1 H    1.017 --    10 C    0.984
    36   1 H    0.949 --    11 N    0.899
    37   1 H    0.997 --    18 C    0.965
    38   1 H    0.997 --    18 C    0.962
    39   1 H    0.999 --    18 C    0.983
    40   1 H    1.013 --    21 C    0.980
    41   1 H    1.009 --    21 C    0.981
    42   1 H    1.014 --    21 C    0.979
    43   1 H    1.017 --    25 C    0.983
    44   1 H    1.015 --    25 C    0.985
    45   1 H    1.011 --    25 C    0.988
    46   1 H    0.900 --    26 O    0.858
 ---------------------------------------------------------------------------

Topologies differ in total number of bonds
Writing topology from bond orders to xtbtopo.mol

 dipole moment from electron density (au)
     X       Y       Z   
   1.9503   0.8893   1.9965  total (Debye):    7.446

           -------------------------------------------------
          |                Geometry Summary                 |
           -------------------------------------------------

      molecular mass/u    :      366.3497991
   center of mass at/Å    :        0.2765227       0.0110528      -0.0772312
  moments of inertia/u·Å² :        0.1406285E+04   0.5009657E+04   0.5226823E+04
rotational constants/cm⁻¹ :        0.1198735E-01   0.3365027E-02   0.3225216E-02

 * 40 selected distances

     #   Z          #   Z                                           value/Å
     1   6 C        2   8 O                                       1.4184626
     3   6 C        4   8 O                                       1.2379212
     3   6 C        5   6 C                                       1.4090143
     5   6 C        6   7 N                                       1.3592455
     6   7 N        7   6 C                                       1.2839430
     8   6 C        9   6 C                                       1.5370314
     8   6 C       10   6 C                                       1.5371142 (max)
     8   6 C       11   7 N                                       1.4792286
    11   7 N       12   6 C                                       1.3430191
    12   6 C       13   8 O                                       1.2222216
    14   6 C       15   7 N                                       1.2973607
    16   7 N       17   6 C                                       1.2963231
    17   6 C       18   6 C                                       1.4791649
    14   6 C       19   8 O                                       1.3514155
    17   6 C       19   8 O                                       1.3437028
     7   6 C       20   7 N                                       1.4262694
    20   7 N       21   6 C                                       1.4624224
    20   7 N       22   6 C                                       1.3570881
    22   6 C       23   8 O                                       1.2335780
    24   6 C       26   8 O                                       1.4338012
     1   6 C       27   1 H                                       1.0961562
     1   6 C       28   1 H                                       1.0961360
     1   6 C       29   1 H                                       1.0899124
     9   6 C       30   1 H                                       1.0887350
     9   6 C       31   1 H                                       1.0868127
     9   6 C       32   1 H                                       1.0895402
    10   6 C       33   1 H                                       1.0893392
    10   6 C       34   1 H                                       1.0887569
    10   6 C       35   1 H                                       1.0889264
    11   7 N       36   1 H                                       1.0080109
    18   6 C       37   1 H                                       1.0894528
    18   6 C       38   1 H                                       1.0902078
    18   6 C       39   1 H                                       1.0869505
    21   6 C       40   1 H                                       1.0841397
    21   6 C       41   1 H                                       1.0921915
    21   6 C       42   1 H                                       1.0916656
    25   6 C       43   1 H                                       1.0871941
    25   6 C       44   1 H                                       1.0897859
    25   6 C       45   1 H                                       1.0891413
    26   8 O       46   1 H                                       0.9682755 (min)

 * 6 distinct bonds (by element types)

   Z      Z             #   av. dist./Å        max./Å        min./Å
   1 H    6 C          18     1.0897247     1.0961562     1.0841397
   6 C    6 C           4     1.4905812     1.5371142     1.4090143
   1 H    7 N           1     1.0080109     1.0080109     1.0080109
   6 C    7 N           9     1.3672111     1.4792286     1.2839430
   1 H    8 O           1     0.9682755     0.9682755     0.9682755
   6 C    8 O           7     1.3201575     1.4338012     1.2222216


optimized geometry written to: xtbopt.xyz


           -------------------------------------------------
          | TOTAL ENERGY              -87.069403764754 Eh   |
          | GRADIENT NORM               0.000862336626 Eh/α |
          | HOMO-LUMO GAP               0.724350040430 eV   |
           -------------------------------------------------

------------------------------------------------------------------------
 * finished run on 2023/06/20 at 15:34:48.946     
------------------------------------------------------------------------
 total:
 * wall-time:     0 d,  0 h,  0 min,  2.583 sec
 *  cpu-time:     0 d,  0 h,  0 min,  2.543 sec
 * ratio c/w:     0.985 speedup
 SCF:
 * wall-time:     0 d,  0 h,  0 min,  0.151 sec
 *  cpu-time:     0 d,  0 h,  0 min,  0.151 sec
 * ratio c/w:     1.000 speedup
 ANC optimizer:
 * wall-time:     0 d,  0 h,  0 min,  2.362 sec
 *  cpu-time:     0 d,  0 h,  0 min,  2.348 sec
 * ratio c/w:     0.994 speedup

