      -----------------------------------------------------------      
     |                   =====================                   |     
     |                           x T B                           |     
     |                   =====================                   |     
     |                         S. Grimme                         |     
     |          Mulliken Center for Theoretical Chemistry        |     
     |                    University of Bonn                     |     
      -----------------------------------------------------------      

   * xtb version 6.5.1 (579679a) compiled by 'ehlert@majestix' on 2022-07-11

   xtb is free software: you can redistribute it and/or modify it under
   the terms of the GNU Lesser General Public License as published by
   the Free Software Foundation, either version 3 of the License, or
   (at your option) any later version.
   
   xtb is distributed in the hope that it will be useful,
   but WITHOUT ANY WARRANTY; without even the implied warranty of
   MERCHANTABILITY or FITNESS FOR A PARTICULAR PURPOSE.  See the
   GNU Lesser General Public License for more details.
   
   Cite this work as:
   * C. Bannwarth, E. Caldeweyher, S. Ehlert, A. Hansen, P. Pracht,
     J. Seibert, S. Spicher, S. Grimme, WIREs Comput. Mol. Sci., 2020, 11,
     e01493. DOI: 10.1002/wcms.1493
   
   for GFN2-xTB:
   * C. Bannwarth, S. Ehlert and S. Grimme., J. Chem. Theory Comput., 2019,
     15, 1652-1671. DOI: 10.1021/acs.jctc.8b01176
   for GFN1-xTB:
   * S. Grimme, C. Bannwarth, P. Shushkov, J. Chem. Theory Comput., 2017,
     13, 1989-2009. DOI: 10.1021/acs.jctc.7b00118
   for GFN0-xTB:
   * P. Pracht, E. Caldeweyher, S. Ehlert, S. Grimme, ChemRxiv, 2019, preprint.
     DOI: 10.26434/chemrxiv.8326202.v1
   for GFN-FF:
   * S. Spicher and S. Grimme, Angew. Chem. Int. Ed., 2020, 59, 15665-15673.
     DOI: 10.1002/anie.202004239
   
   for ALPB and GBSA implicit solvation:
   * S. Ehlert, M. Stahn, S. Spicher, S. Grimme, J. Chem. Theory Comput.,
     2021, 17, 4250-4261. DOI: 10.1021/acs.jctc.1c00471
   
   for DFT-D4:
   * E. Caldeweyher, C. Bannwarth and S. Grimme, J. Chem. Phys., 2017,
     147, 034112. DOI: 10.1063/1.4993215
   * E. Caldeweyher, S. Ehlert, A. Hansen, H. Neugebauer, S. Spicher,
     C. Bannwarth and S. Grimme, J. Chem. Phys., 2019, 150, 154122.
     DOI: 10.1063/1.5090222
   * E. Caldeweyher, J.-M. Mewes, S. Ehlert and S. Grimme, Phys. Chem. Chem. Phys.
     2020, 22, 8499-8512. DOI: 10.1039/D0CP00502A
   
   for sTDA-xTB:
   * S. Grimme and C. Bannwarth, J. Chem. Phys., 2016, 145, 054103.
     DOI: 10.1063/1.4959605
   
   in the mass-spec context:
   * V. Asgeirsson, C. Bauer and S. Grimme, Chem. Sci., 2017, 8, 4879.
     DOI: 10.1039/c7sc00601b
   * J. Koopman and S. Grimme, ACS Omega 2019, 4, 12, 15120-15133.
     DOI: 10.1021/acsomega.9b02011
   
   for metadynamics refer to:
   * S. Grimme, J. Chem. Theory Comput., 2019, 155, 2847-2862
     DOI: 10.1021/acs.jctc.9b00143
   
   for SPH calculations refer to:
   * S. Spicher and S. Grimme, J. Chem. Theory Comput., 2021, 17, 1701-1714
     DOI: 10.1021/acs.jctc.0c01306
   
   with help from (in alphabetical order)
   P. Atkinson, C. Bannwarth, F. Bohle, G. Brandenburg, E. Caldeweyher
   M. Checinski, S. Dohm, S. Ehlert, S. Ehrlich, I. Gerasimov, C. Hölzer
   A. Katbashev, J. Koopman, C. Lavigne, S. Lehtola, F. März, M. Müller,
   F. Musil, H. Neugebauer, J. Pisarek, C. Plett, P. Pracht, F. Pultar,
   J. Seibert, P. Shushkov, S. Spicher, M. Stahn, M. Steiner, T. Strunk,
   J. Stückrath, T. Rose, and J. Unsleber
   
 * started run on 2023/06/20 at 18:00:51.056     

           -------------------------------------------------
          |                Calculation Setup                |
           -------------------------------------------------

          program call               : /lustre/hpc/kemi/ree/PhD/git/ReactivityQM/dep/xtb-6.5.1/bin/xtb --gfn 1 /lustre/hpc/kemi/ree/PhD/git/ReactivityQM/calculations/R02deprot/reac01prodE13/conf08/R02deprot_reac01prodE13_conf08_gfn1.xyz --opt --vfukui --chrg -2 --uhf 0 --alpb DMSO
          hostname                   : node308
          coordinate file            : /lustre/hpc/kemi/ree/PhD/git/ReactivityQM/calculations/R02deprot/reac01prodE13/conf08/R02deprot_reac01prodE13_conf08_gfn1.xyz
          omp threads                :                     1

   ID    Z sym.   atoms
    1    6 C      1, 3, 5, 6, 8, 10, 12-15, 17, 19, 22, 23
    2    8 O      2, 4, 7, 9, 18, 24
    3    7 N      11, 16, 20, 21, 25
    4    1 H      26-42

           -------------------------------------------------
          |                 G F N 1 - x T B                 |
           -------------------------------------------------

        Reference                      10.1021/acs.jctc.7b00118
      * Hamiltonian:
        H0-scaling (s, p, d)           1.850000    2.250000    2.000000
        zeta-weighting                 0.000000
      * Dispersion:
        s8                             2.400000
        a1                             0.630000
        a2                             5.000000
        s9                             0.000000
      * Repulsion:
        kExp                           1.500000
        rExp                           1.000000
      * Coulomb:
        alpha                          2.000000
        third order                    atomic
        anisotropic                    false
      * Halogen bond correction:
        rad-scale                      1.300000
        damping                        0.440000

      * Solvation model:               ALPB
        Solvent                        DMSO
        Parameter file                 internal GFN1-xTB/ALPB
        Dielectric constant                4.6680E+01
        Reference state                gsolv [1 M gas/solution]
        Free energy shift                  7.6243E-03 Eh       4.7843E+00 kcal/mol
        Temperature                        2.9815E+02 K
        Density                            1.1000E+00 kg/L
        Solvent mass                       7.8130E+01 g/mol
        Interaction kernel             P16
        Born radius scaling (c1)           1.7672E+00
        Born radii integrator          GBOBC
        Born offset                        0.0000E+00 a0       0.0000E+00 AA
        H-bond correction              true
        Ion screening                  false
        Surface tension                    1.0000E-05 Eh       1.5569E+01 dyn/cm
        Grid points                               230 per atom

          ...................................................
          :                      SETUP                      :
          :.................................................:
          :  # basis functions                 134          :
          :  # atomic orbitals                 134          :
          :  # shells                           84          :
          :  # electrons                       136          :
          :  # halogen bonds                     0          :
          :  max. iterations                   250          :
          :  Hamiltonian                  GFN1-xTB          :
          :  restarted?                      false          :
          :  GBSA solvation                   true          :
          :  PC potential                    false          :
          :  electronic temp.          300.0000000     K    :
          :  accuracy                    1.0000000          :
          :  -> integral cutoff          0.2500000E+02      :
          :  -> integral neglect         0.1000000E-07      :
          :  -> SCF convergence          0.1000000E-05 Eh   :
          :  -> wf. convergence          0.2000000E-04 e    :
          :  Broyden damping             0.4000000          :
          ...................................................

 iter      E             dE          RMSdq      gap      omega  full diag
   1    -84.0226510 -0.840227E+02  0.871E+00    0.40       0.0  T
   2    -84.0435328 -0.208818E-01  0.539E+00    1.42       1.0  T
   3    -84.0014666  0.420662E-01  0.286E+00    0.93       1.0  T
   4    -84.2001184 -0.198652E+00  0.114E+00    1.34       1.0  T
   5    -84.2371731 -0.370546E-01  0.642E-01    0.26       1.0  T
   6    -84.0727171  0.164456E+00  0.139E+00    1.37       1.0  T
   7    -84.1405306 -0.678136E-01  0.101E+00    0.15       1.0  T
   8    -84.2305642 -0.900336E-01  0.701E-01    0.54       1.0  T
   9    -84.2344187 -0.385446E-02  0.652E-01    0.32       1.0  T
  10    -84.2902985 -0.558798E-01  0.107E-01    0.05       1.0  T
  11    -84.2384025  0.518960E-01  0.601E-01    0.05       1.0  T
  12    -84.2447803 -0.637784E-02  0.572E-01    0.18       1.0  T
  13    -84.2608676 -0.160873E-01  0.457E-01    0.03       1.0  T
  14    -84.2650168 -0.414917E-02  0.428E-01    0.11       1.0  T
  15    -84.2877283 -0.227115E-01  0.167E-01    0.02       1.0  T
  16    -84.2883536 -0.625344E-03  0.155E-01    0.05       1.0  T
  17    -84.2916388 -0.328518E-02  0.406E-02    0.03       1.0  T
  18    -84.2917069 -0.680912E-04  0.346E-02    0.04       1.0  T
  19    -84.2918808 -0.173890E-03  0.433E-03    0.03       3.6  T
  20    -84.2918760  0.478544E-05  0.716E-03    0.03       2.2  T
  21    -84.2918834 -0.739128E-05  0.113E-03    0.03      13.6  T
  22    -84.2918835 -0.116071E-06  0.699E-04    0.03      22.1  T
  23    -84.2918836 -0.707261E-07  0.103E-04    0.03     150.5  T
  24    -84.2918836 -0.155089E-08  0.293E-06    0.03    5264.9  T

   *** convergence criteria satisfied after 24 iterations ***

         #    Occupation            Energy/Eh            Energy/eV
      -------------------------------------------------------------
         1        2.0000           -0.7935908             -21.5947
       ...           ...                  ...                  ...
        62        2.0000           -0.3896730             -10.6035
        63        2.0000           -0.3849817             -10.4759
        64        2.0000           -0.3807963             -10.3620
        65        2.0000           -0.3761011             -10.2342
        66        2.0000           -0.3643315              -9.9140
        67        2.0000           -0.3452036              -9.3935
        68        1.3096           -0.2503581              -6.8126 (HOMO)
        69        0.6904           -0.2491419              -6.7795 (LUMO)
        70                         -0.2063016              -5.6138
        71                         -0.2025529              -5.5117
        72                         -0.1621694              -4.4129
        73                         -0.1322446              -3.5986
       ...                                ...                  ...
       134                          0.7408985              20.1609
      -------------------------------------------------------------
                  HL-Gap            0.0012162 Eh            0.0331 eV
             Fermi-level           -0.2497500 Eh           -6.7960 eV

 SCC (total)                   0 d,  0 h,  0 min,  0.223 sec
 SCC setup                      ...        0 min,  0.002 sec (  0.963%)
 Dispersion                     ...        0 min,  0.000 sec (  0.180%)
 classical contributions        ...        0 min,  0.000 sec (  0.057%)
 integral evaluation            ...        0 min,  0.048 sec ( 21.627%)
 iterations                     ...        0 min,  0.090 sec ( 40.516%)
 molecular gradient             ...        0 min,  0.081 sec ( 36.213%)
 printout                       ...        0 min,  0.001 sec (  0.417%)

         :::::::::::::::::::::::::::::::::::::::::::::::::::::
         ::                     SUMMARY                     ::
         :::::::::::::::::::::::::::::::::::::::::::::::::::::
         :: total energy             -83.571998091677 Eh    ::
         :: total w/o Gsasa/hb       -83.549561693968 Eh    ::
         :: gradient norm              0.153688059437 Eh/a0 ::
         :: HOMO-LUMO gap              0.033095765369 eV    ::
         ::.................................................::
         :: SCC energy               -84.291883600908 Eh    ::
         :: -> electrostatic           0.627823408339 Eh    ::
         :: -> Gsolv                  -0.256625912926 Eh    ::
         ::    -> Gelec               -0.234189515218 Eh    ::
         ::    -> Gsasa               -0.025848317125 Eh    ::
         ::    -> Ghb                 -0.004212359589 Eh    ::
         ::    -> Gshift               0.007624279005 Eh    ::
         :: repulsion energy           0.744314918297 Eh    ::
         :: dispersion energy         -0.024429409065 Eh    ::
         :: halogen bond corr.         0.000000000000 Eh    ::
         :: add. restraining           0.000000000000 Eh    ::
         :: total charge              -2.000000000000 e     ::
         :::::::::::::::::::::::::::::::::::::::::::::::::::::

      ----------------------------------------------------------- 
     |                   =====================                   |
     |                        A N C O P T                        |
     |                   =====================                   |
     |               Approximate Normal Coordinate               |
     |                Rational Function Optimizer                |
      ----------------------------------------------------------- 

          ...................................................
          :                      SETUP                      :
          :.................................................:
          :   optimization level            normal          :
          :   max. optcycles                   200          :
          :   ANC micro-cycles                  20          :
          :   degrees of freedom               120          :
          :.................................................:
          :   RF solver                   davidson          :
          :   write xtbopt.log                true          :
          :   linear?                        false          :
          :   energy convergence         0.5000000E-05 Eh   :
          :   grad. convergence          0.1000000E-02 Eh/α :
          :   maximium RF displ.         1.0000000          :
          :   Hlow (freq-cutoff)         0.1000000E-01      :
          :   Hmax (freq-cutoff)         5.0000000          :
          :   S6 in model hess.         20.0000000          :
          ...................................................

generating ANC from model Hessian ...
Using Lindh-Hessian (1995)
 Shifting diagonal of input Hessian by   9.862737516514680E-003
 Lowest  eigenvalues of input Hessian
    0.000000    0.000000    0.000000    0.000000    0.000000    0.000000
    0.010000    0.010118    0.010622    0.010913    0.011288    0.011716
    0.012531    0.012815    0.014164    0.014964    0.015424    0.015704
 Highest eigenvalues
    1.950952    2.027076    2.080325    2.130843    2.224717    2.288699
 

........................................................................
.............................. CYCLE    1 ..............................
........................................................................
   1    -84.2918836 -0.842919E+02  0.658E-06    0.03       0.0  T
   2    -84.2918836  0.246484E-08  0.129E-04    0.03     119.4  T
   3    -84.2918836 -0.247152E-08  0.834E-08    0.03  100000.0  T
     SCC iter.                  ...        0 min,  0.012 sec
     gradient                   ...        0 min,  0.080 sec
 * total energy  :   -83.5719981 Eh     change       -0.1463718E-11 Eh
   gradient norm :     0.1536881 Eh/α   predicted     0.0000000E+00 (-100.00%)
   displ. norm   :     0.2521210 α      lambda       -0.1719804E-01
   maximum displ.:     0.1083587 α      in ANC's #31, #8, #32, ...

........................................................................
.............................. CYCLE    2 ..............................
........................................................................
   1    -84.2906177 -0.842906E+02  0.228E-01    0.06       0.0  T
   2    -84.1036071  0.187011E+00  0.120E+00    0.47       1.0  T
   3    -84.2959624 -0.192355E+00  0.855E-02    0.03       1.0  T
   4    -84.2957704  0.192016E-03  0.895E-02    0.05       1.0  T
   5    -84.2898951  0.587522E-02  0.217E-01    0.01       1.0  T
   6    -84.2919804 -0.208529E-02  0.183E-01    0.06       1.0  T
   7    -84.2968292 -0.484880E-02  0.147E-02    0.04       1.0  T
   8    -84.2968605 -0.312394E-04  0.404E-04    0.03      38.2  T
   9    -84.2968587  0.174047E-05  0.346E-03    0.03       4.5  T
  10    -84.2968604 -0.163143E-05  0.902E-04    0.03      17.1  T
  11    -84.2968605 -0.116093E-06  0.156E-04    0.03      98.8  T
  12    -84.2968605 -0.361041E-09  0.149E-04    0.03     103.8  T
     SCC iter.                  ...        0 min,  0.045 sec
     gradient                   ...        0 min,  0.080 sec
 * total energy  :   -83.5843830 Eh     change       -0.1238491E-01 Eh
   gradient norm :     0.0705670 Eh/α   predicted    -0.9149650E-02 ( -26.12%)
   displ. norm   :     0.2763293 α      lambda       -0.7243221E-02
   maximum displ.:     0.1157431 α      in ANC's #8, #31, #32, ...

........................................................................
.............................. CYCLE    3 ..............................
........................................................................
   1    -84.2982694 -0.842983E+02  0.227E-01    0.06       0.0  T
   2    -84.1082351  0.190034E+00  0.122E+00    0.49       1.0  T
   3    -84.2979078 -0.189673E+00  0.217E-01    0.01       1.0  T
   4    -84.2912941  0.661372E-02  0.307E-01    0.08       1.0  T
   5    -84.2979834 -0.668926E-02  0.215E-01    0.01       1.0  T
   6    -84.3041118 -0.612837E-02  0.668E-02    0.04       1.0  T
   7    -84.3045334 -0.421667E-03  0.380E-02    0.03       1.0  T
   8    -84.3047437 -0.210232E-03  0.203E-03    0.04       7.6  T
   9    -84.3047436  0.359296E-07  0.208E-03    0.03       7.4  T
  10    -84.3047442 -0.625233E-06  0.124E-04    0.04     124.3  T
  11    -84.3047442  0.255663E-08  0.174E-04    0.04      88.9  T
     SCC iter.                  ...        0 min,  0.041 sec
     gradient                   ...        0 min,  0.080 sec
 * total energy  :   -83.5884993 Eh     change       -0.4116278E-02 Eh
   gradient norm :     0.0148857 Eh/α   predicted    -0.3899249E-02 (  -5.27%)
   displ. norm   :     0.2135865 α      lambda       -0.9034060E-03
   maximum displ.:     0.1240880 α      in ANC's #8, #11, #7, ...

........................................................................
.............................. CYCLE    4 ..............................
........................................................................
   1    -84.3045266 -0.843045E+02  0.830E-02    0.05       0.0  T
   2    -84.1374046  0.167122E+00  0.109E+00    0.17       1.0  T
   3    -84.3053042 -0.167900E+00  0.370E-02    0.03       1.0  T
   4    -84.3054857 -0.181446E-03  0.596E-03    0.04       2.6  T
   5    -84.3054884 -0.266536E-05  0.275E-03    0.04       5.6  T
   6    -84.3054876  0.745091E-06  0.290E-03    0.04       5.3  T
   7    -84.3054887 -0.106111E-05  0.106E-03    0.04      14.5  T
   8    -84.3054888 -0.145366E-06  0.347E-04    0.04      44.5  T
   9    -84.3054888 -0.168660E-07  0.462E-05    0.04     334.1  T
  10    -84.3054888 -0.271697E-09  0.110E-05    0.04    1403.2  T
     SCC iter.                  ...        0 min,  0.038 sec
     gradient                   ...        0 min,  0.080 sec
 * total energy  :   -83.5892176 Eh     change       -0.7183158E-03 Eh
   gradient norm :     0.0116718 Eh/α   predicted    -0.4723258E-03 ( -34.25%)
   displ. norm   :     0.3869028 α      lambda       -0.1087304E-02
   maximum displ.:     0.2353228 α      in ANC's #8, #11, #7, ...

........................................................................
.............................. CYCLE    5 ..............................
........................................................................
   1    -84.3041232 -0.843041E+02  0.824E-02    0.05       0.0  T
   2    -84.1379727  0.166150E+00  0.109E+00    0.17       1.0  T
   3    -84.3048509 -0.166878E+00  0.389E-02    0.03       1.0  T
   4    -84.3050333 -0.182448E-03  0.133E-02    0.04       1.2  T
   5    -84.3050520 -0.186425E-04  0.445E-03    0.04       3.5  T
   6    -84.3050521 -0.153882E-06  0.302E-03    0.04       5.1  T
   7    -84.3050530 -0.928498E-06  0.169E-03    0.04       9.1  T
   8    -84.3050534 -0.401310E-06  0.274E-04    0.04      56.3  T
   9    -84.3050534 -0.104912E-07  0.268E-05    0.04     576.1  T
  10    -84.3050534  0.116131E-09  0.348E-05    0.04     443.7  T
     SCC iter.                  ...        0 min,  0.037 sec
     gradient                   ...        0 min,  0.080 sec
 * total energy  :   -83.5899542 Eh     change       -0.7365951E-03 Eh
   gradient norm :     0.0081867 Eh/α   predicted    -0.6250552E-03 ( -15.14%)
   displ. norm   :     0.2866986 α      lambda       -0.4126185E-03
   maximum displ.:     0.1772244 α      in ANC's #8, #11, #4, ...

........................................................................
.............................. CYCLE    6 ..............................
........................................................................
   1    -84.3048423 -0.843048E+02  0.141E-02    0.04       0.0  T
   2    -84.3048079  0.343699E-04  0.178E-02    0.03       1.0  T
   3    -84.3027993  0.200860E-02  0.120E-01    0.05       1.0  T
   4    -84.3048258 -0.202652E-02  0.145E-02    0.04       1.1  T
   5    -84.3048406 -0.147324E-04  0.952E-03    0.04       1.6  T
   6    -84.3048525 -0.119096E-04  0.605E-04    0.04      25.5  T
   7    -84.3048525 -0.468897E-07  0.218E-04    0.04      70.9  T
   8    -84.3048525 -0.520492E-08  0.861E-05    0.04     179.2  T
   9    -84.3048525 -0.846242E-09  0.346E-05    0.04     445.7  T
     SCC iter.                  ...        0 min,  0.034 sec
     gradient                   ...        0 min,  0.080 sec
 * total energy  :   -83.5902532 Eh     change       -0.2990391E-03 Eh
   gradient norm :     0.0079236 Eh/α   predicted    -0.2232678E-03 ( -25.34%)
   displ. norm   :     0.2737041 α      lambda       -0.2918733E-03
   maximum displ.:     0.1578366 α      in ANC's #8, #4, #6, ...

........................................................................
.............................. CYCLE    7 ..............................
........................................................................
   1    -84.3046607 -0.843047E+02  0.604E-02    0.03       0.0  T
   2    -84.2582796  0.463811E-01  0.581E-01    0.19       1.0  T
   3    -84.3044540 -0.461744E-01  0.727E-02    0.04       1.0  T
   4    -84.3050135 -0.559517E-03  0.350E-02    0.03       1.0  T
   5    -84.3051059 -0.923818E-04  0.253E-02    0.04       1.0  T
   6    -84.3051863 -0.804002E-04  0.763E-03    0.03       2.0  T
   7    -84.3051943 -0.809505E-05  0.192E-03    0.04       8.0  T
   8    -84.3051948 -0.502216E-06  0.358E-04    0.04      43.1  T
   9    -84.3051949 -0.181934E-07  0.200E-05    0.04     773.3  T
  10    -84.3051949 -0.358682E-10  0.336E-06    0.04    4597.4  T
     SCC iter.                  ...        0 min,  0.037 sec
     gradient                   ...        0 min,  0.079 sec
 * total energy  :   -83.5904644 Eh     change       -0.2111673E-03 Eh
   gradient norm :     0.0066351 Eh/α   predicted    -0.1568696E-03 ( -25.71%)
   displ. norm   :     0.2470276 α      lambda       -0.2008005E-03
   maximum displ.:     0.1243005 α      in ANC's #6, #8, #4, ...

........................................................................
.............................. CYCLE    8 ..............................
........................................................................
   1    -84.3041330 -0.843041E+02  0.103E-01    0.02       0.0  T
   2    -84.2494081  0.547248E-01  0.648E-01    0.30       1.0  T
   3    -84.3002516 -0.508435E-01  0.195E-01    0.06       1.0  T
   4    -84.3047195 -0.446790E-02  0.816E-02    0.03       1.0  T
   5    -84.3056820 -0.962498E-03  0.778E-03    0.04       2.0  T
   6    -84.3056889 -0.690155E-05  0.231E-03    0.03       6.7  T
   7    -84.3056897 -0.783232E-06  0.370E-04    0.04      41.7  T
   8    -84.3056893  0.395480E-06  0.169E-03    0.03       9.1  T
   9    -84.3056897 -0.411226E-06  0.183E-05    0.03     843.8  T
  10    -84.3056897  0.161666E-08  0.106E-04    0.03     145.3  T
     SCC iter.                  ...        0 min,  0.037 sec
     gradient                   ...        0 min,  0.080 sec
 * total energy  :   -83.5906083 Eh     change       -0.1438585E-03 Eh
   gradient norm :     0.0045478 Eh/α   predicted    -0.1065274E-03 ( -25.95%)
   displ. norm   :     0.1938656 α      lambda       -0.1231529E-03
   maximum displ.:     0.1194416 α      in ANC's #6, #4, #8, ...

........................................................................
.............................. CYCLE    9 ..............................
........................................................................
   1    -84.3047956 -0.843048E+02  0.938E-02    0.02       0.0  T
   2    -84.2503692  0.544264E-01  0.641E-01    0.28       1.0  T
   3    -84.3025221 -0.521528E-01  0.157E-01    0.06       1.0  T
   4    -84.3046861 -0.216400E-02  0.983E-02    0.02       1.0  T
   5    -84.3060818 -0.139571E-02  0.445E-03    0.03       3.5  T
   6    -84.3060808  0.977409E-06  0.511E-03    0.03       3.0  T
   7    -84.3060845 -0.373160E-05  0.698E-04    0.03      22.1  T
   8    -84.3060843  0.227822E-06  0.143E-03    0.03      10.8  T
   9    -84.3060846 -0.288954E-06  0.208E-04    0.03      74.1  T
  10    -84.3060846 -0.202155E-08  0.171E-04    0.03      90.2  T
  11    -84.3060846 -0.420435E-08  0.151E-05    0.03    1022.3  T
     SCC iter.                  ...        0 min,  0.041 sec
     gradient                   ...        0 min,  0.080 sec
 * total energy  :   -83.5907002 Eh     change       -0.9197108E-04 Eh
   gradient norm :     0.0031715 Eh/α   predicted    -0.6389452E-04 ( -30.53%)
   displ. norm   :     0.1663410 α      lambda       -0.9093806E-04
   maximum displ.:     0.1062537 α      in ANC's #6, #4, #5, ...

........................................................................
.............................. CYCLE   10 ..............................
........................................................................
   1    -84.3055878 -0.843056E+02  0.676E-02    0.03       0.0  T
   2    -84.2556615  0.499264E-01  0.603E-01    0.21       1.0  T
   3    -84.3054525 -0.497910E-01  0.744E-02    0.04       1.0  T
   4    -84.3055453 -0.927912E-04  0.699E-02    0.03       1.0  T
   5    -84.3062504 -0.705140E-03  0.117E-03    0.03      13.2  T
   6    -84.3062496  0.789144E-06  0.249E-03    0.03       6.2  T
   7    -84.3062505 -0.848230E-06  0.281E-04    0.03      54.8  T
   8    -84.3062504  0.440783E-07  0.616E-04    0.03      25.0  T
   9    -84.3062505 -0.333077E-07  0.386E-04    0.03      40.0  T
  10    -84.3062505 -0.214510E-07  0.201E-05    0.03     766.7  T
  11    -84.3062505 -0.564455E-10  0.362E-06    0.03    4260.0  T
     SCC iter.                  ...        0 min,  0.040 sec
     gradient                   ...        0 min,  0.080 sec
 * total energy  :   -83.5907715 Eh     change       -0.7124503E-04 Eh
   gradient norm :     0.0034739 Eh/α   predicted    -0.4673877E-04 ( -34.40%)
   displ. norm   :     0.2023703 α      lambda       -0.9087093E-04
   maximum displ.:     0.1233390 α      in ANC's #6, #5, #2, ...

........................................................................
.............................. CYCLE   11 ..............................
........................................................................
   1    -84.3055731 -0.843056E+02  0.546E-02    0.03       0.0  T
   2    -84.2606602  0.449129E-01  0.567E-01    0.17       1.0  T
   3    -84.3057468 -0.450865E-01  0.420E-02    0.04       1.0  T
   4    -84.3058331 -0.863509E-04  0.342E-02    0.03       1.0  T
   5    -84.3060003 -0.167174E-03  0.243E-03    0.03       6.3  T
   6    -84.3060009 -0.614989E-06  0.109E-03    0.03      14.2  T
   7    -84.3060011 -0.141979E-06  0.336E-04    0.03      45.9  T
   8    -84.3060011  0.628533E-08  0.394E-04    0.03      39.1  T
   9    -84.3060011 -0.177077E-07  0.179E-04    0.03      86.0  T
  10    -84.3060011 -0.464424E-08  0.266E-06    0.03    5799.8  T
     SCC iter.                  ...        0 min,  0.037 sec
     gradient                   ...        0 min,  0.080 sec
 * total energy  :   -83.5908404 Eh     change       -0.6892610E-04 Eh
   gradient norm :     0.0043197 Eh/α   predicted    -0.4729828E-04 ( -31.38%)
   displ. norm   :     0.2320888 α      lambda       -0.8200681E-04
   maximum displ.:     0.1333556 α      in ANC's #6, #2, #5, ...

........................................................................
.............................. CYCLE   12 ..............................
........................................................................
   1    -84.3054709 -0.843055E+02  0.363E-02    0.03       0.0  T
   2    -84.2736631  0.318078E-01  0.474E-01    0.12       1.0  T
   3    -84.3056317 -0.319685E-01  0.135E-02    0.04       1.1  T
   4    -84.3056556 -0.239382E-04  0.335E-03    0.03       4.6  T
   5    -84.3056570 -0.137976E-05  0.603E-04    0.03      25.6  T
   6    -84.3056569  0.116284E-06  0.916E-04    0.03      16.8  T
   7    -84.3056570 -0.113743E-06  0.193E-04    0.03      80.0  T
   8    -84.3056570 -0.438924E-08  0.740E-05    0.03     208.5  T
     SCC iter.                  ...        0 min,  0.030 sec
     gradient                   ...        0 min,  0.080 sec
 * total energy  :   -83.5908998 Eh     change       -0.5944584E-04 Eh
   gradient norm :     0.0042420 Eh/α   predicted    -0.4321463E-04 ( -27.30%)
   displ. norm   :     0.2025359 α      lambda       -0.6592691E-04
   maximum displ.:     0.1017994 α      in ANC's #6, #2, #5, ...

........................................................................
.............................. CYCLE   13 ..............................
........................................................................
   1    -84.3056051 -0.843056E+02  0.133E-02    0.03       0.0  T
   2    -84.2995568  0.604823E-02  0.206E-01    0.06       1.0  T
   3    -84.3056249 -0.606808E-02  0.395E-03    0.03       3.9  T
   4    -84.3056236  0.132173E-05  0.459E-03    0.04       3.4  T
   5    -84.3056262 -0.259357E-05  0.109E-03    0.03      14.1  T
   6    -84.3056263 -0.119554E-06  0.211E-04    0.03      73.1  T
   7    -84.3056263 -0.512765E-08  0.704E-05    0.03     219.3  T
   8    -84.3056263 -0.450598E-09  0.323E-05    0.03     478.2  T
     SCC iter.                  ...        0 min,  0.030 sec
     gradient                   ...        0 min,  0.081 sec
 * total energy  :   -83.5909498 Eh     change       -0.4995086E-04 Eh
   gradient norm :     0.0029679 Eh/α   predicted    -0.3431613E-04 ( -31.30%)
   displ. norm   :     0.2041074 α      lambda       -0.6892336E-04
   maximum displ.:     0.1018202 α      in ANC's #2, #6, #4, ...

........................................................................
.............................. CYCLE   14 ..............................
........................................................................
   1    -84.3057726 -0.843058E+02  0.844E-03    0.03       0.0  T
   2    -84.3051442  0.628420E-03  0.668E-02    0.04       1.0  T
   3    -84.3057451 -0.600869E-03  0.149E-02    0.03       1.0  T
   4    -84.3057664 -0.213385E-04  0.909E-03    0.04       1.7  T
   5    -84.3057756 -0.912523E-05  0.373E-03    0.04       4.1  T
   6    -84.3057774 -0.182653E-05  0.245E-04    0.03      63.1  T
   7    -84.3057774 -0.787715E-08  0.298E-05    0.03     518.2  T
   8    -84.3057774  0.230074E-09  0.444E-05    0.03     347.4  T
     SCC iter.                  ...        0 min,  0.031 sec
     gradient                   ...        0 min,  0.080 sec
 * total energy  :   -83.5910007 Eh     change       -0.5087972E-04 Eh
   gradient norm :     0.0025048 Eh/α   predicted    -0.3590174E-04 ( -29.44%)
   displ. norm   :     0.1994545 α      lambda       -0.5811088E-04
   maximum displ.:     0.1001693 α      in ANC's #2, #10, #4, ...

........................................................................
.............................. CYCLE   15 ..............................
........................................................................
   1    -84.3059650 -0.843060E+02  0.741E-03    0.03       0.0  T
   2    -84.3051501  0.814826E-03  0.759E-02    0.04       1.0  T
   3    -84.3059655 -0.815330E-03  0.547E-03    0.03       2.8  T
   4    -84.3059574  0.802759E-05  0.939E-03    0.04       1.6  T
   5    -84.3059676 -0.101292E-04  0.354E-03    0.04       4.4  T
   6    -84.3059692 -0.167183E-05  0.160E-04    0.04      96.7  T
   7    -84.3059692 -0.259426E-08  0.324E-05    0.04     477.0  T
   8    -84.3059692  0.155126E-09  0.416E-05    0.04     370.9  T
     SCC iter.                  ...        0 min,  0.030 sec
     gradient                   ...        0 min,  0.081 sec
 * total energy  :   -83.5910445 Eh     change       -0.4378771E-04 Eh
   gradient norm :     0.0036958 Eh/α   predicted    -0.3021260E-04 ( -31.00%)
   displ. norm   :     0.2431305 α      lambda       -0.6182617E-04
   maximum displ.:     0.1199867 α      in ANC's #2, #10, #12, ...

........................................................................
.............................. CYCLE   16 ..............................
........................................................................
   1    -84.3057807 -0.843058E+02  0.132E-02    0.03       0.0  T
   2    -84.2992428  0.653795E-02  0.214E-01    0.06       1.0  T
   3    -84.3057988 -0.655602E-02  0.676E-03    0.04       2.3  T
   4    -84.3057939  0.494038E-05  0.857E-03    0.04       1.8  T
   5    -84.3058026 -0.870186E-05  0.300E-03    0.04       5.1  T
   6    -84.3058037 -0.116660E-05  0.285E-04    0.04      54.1  T
   7    -84.3058037 -0.378425E-08  0.188E-04    0.04      82.0  T
   8    -84.3058037 -0.487199E-08  0.171E-05    0.04     904.0  T
     SCC iter.                  ...        0 min,  0.031 sec
     gradient                   ...        0 min,  0.080 sec
 * total energy  :   -83.5910918 Eh     change       -0.4732732E-04 Eh
   gradient norm :     0.0046145 Eh/α   predicted    -0.3274546E-04 ( -30.81%)
   displ. norm   :     0.2641038 α      lambda       -0.7782060E-04
   maximum displ.:     0.1287452 α      in ANC's #2, #10, #12, ...

........................................................................
.............................. CYCLE   17 ..............................
........................................................................
   1    -84.3063514 -0.843064E+02  0.133E-02    0.03       0.0  T
   2    -84.3000100  0.634141E-02  0.210E-01    0.06       1.0  T
   3    -84.3063728 -0.636288E-02  0.417E-03    0.04       3.7  T
   4    -84.3063713  0.149493E-05  0.465E-03    0.04       3.3  T
   5    -84.3063740 -0.265058E-05  0.114E-03    0.04      13.6  T
   6    -84.3063741 -0.118443E-06  0.117E-04    0.04     131.9  T
   7    -84.3063741  0.151560E-08  0.121E-04    0.04     127.9  T
     SCC iter.                  ...        0 min,  0.027 sec
     gradient                   ...        0 min,  0.081 sec
 * total energy  :   -83.5911439 Eh     change       -0.5213505E-04 Eh
   gradient norm :     0.0045452 Eh/α   predicted    -0.4162689E-04 ( -20.16%)
   displ. norm   :     0.2299208 α      lambda       -0.6151914E-04
   maximum displ.:     0.1034204 α      in ANC's #2, #10, #12, ...

........................................................................
.............................. CYCLE   18 ..............................
........................................................................
   1    -84.3051274 -0.843051E+02  0.297E-02    0.03       0.0  T
   2    -84.2801456  0.249818E-01  0.419E-01    0.11       1.0  T
   3    -84.3052413 -0.250957E-01  0.860E-03    0.04       1.8  T
   4    -84.3052505 -0.925424E-05  0.158E-03    0.04       9.7  T
   5    -84.3052504  0.694747E-07  0.112E-03    0.04      13.8  T
   6    -84.3052504  0.482863E-07  0.103E-03    0.04      15.0  T
   7    -84.3052505 -0.149299E-06  0.898E-05    0.04     171.8  T
   8    -84.3052505 -0.922867E-09  0.267E-05    0.04     578.5  T
     SCC iter.                  ...        0 min,  0.031 sec
     gradient                   ...        0 min,  0.080 sec
 * total energy  :   -83.5911814 Eh     change       -0.3752200E-04 Eh
   gradient norm :     0.0048152 Eh/α   predicted    -0.3238593E-04 ( -13.69%)
   displ. norm   :     0.2040607 α      lambda       -0.1503577E-03
   maximum displ.:     0.0956680 α      in ANC's #18, #12, #10, ...

........................................................................
.............................. CYCLE   19 ..............................
........................................................................
   1    -84.3085573 -0.843086E+02  0.462E-02    0.03       0.0  T
   2    -84.2704757  0.380816E-01  0.519E-01    0.14       1.0  T
   3    -84.3088233 -0.383476E-01  0.121E-02    0.04       1.3  T
   4    -84.3088284 -0.515204E-05  0.891E-03    0.03       1.7  T
   5    -84.3088369 -0.847964E-05  0.190E-03    0.04       8.1  T
   6    -84.3088370 -0.936874E-07  0.614E-04    0.04      25.1  T
   7    -84.3088371 -0.452420E-07  0.111E-04    0.04     139.1  T
   8    -84.3088371 -0.884540E-09  0.325E-05    0.04     474.8  T
     SCC iter.                  ...        0 min,  0.038 sec
     gradient                   ...        0 min,  0.081 sec
 * total energy  :   -83.5912085 Eh     change       -0.2706070E-04 Eh
   gradient norm :     0.0066232 Eh/α   predicted    -0.7831009E-04 ( 189.39%)
   displ. norm   :     0.1508542 α      lambda       -0.8972769E-04
   maximum displ.:     0.0709007 α      in ANC's #6, #2, #5, ...

........................................................................
.............................. CYCLE   20 ..............................
........................................................................
   1    -84.3062940 -0.843063E+02  0.140E-02    0.04       0.0  T
   2    -84.2974251  0.886895E-02  0.248E-01    0.02       1.0  T
   3    -84.3063155 -0.889039E-02  0.425E-03    0.04       3.6  T
   4    -84.3063156 -0.155105E-06  0.265E-03    0.04       5.8  T
   5    -84.3063160 -0.401847E-06  0.780E-04    0.04      19.8  T
   6    -84.3063161 -0.360072E-07  0.152E-04    0.04     101.3  T
   7    -84.3063161 -0.128466E-08  0.308E-05    0.04     500.4  T
     SCC iter.                  ...        0 min,  0.033 sec
     gradient                   ...        0 min,  0.081 sec
 * total energy  :   -83.5912593 Eh     change       -0.5076171E-04 Eh
   gradient norm :     0.0049769 Eh/α   predicted    -0.4588653E-04 (  -9.60%)
   displ. norm   :     0.0800115 α      lambda       -0.5195251E-04
   maximum displ.:     0.0353658 α      in ANC's #10, #2, #18, ...
 * RMSD in coord.:     0.4922741 α      energy gain  -0.1926117E-01 Eh

generating ANC from model Hessian ...
Using Lindh-Hessian (1995)
 Shifting diagonal of input Hessian by   9.850456232829810E-003
 Lowest  eigenvalues of input Hessian
    0.000000    0.000000    0.000000    0.000000    0.000000    0.000000
    0.010000    0.010119    0.010611    0.010968    0.011414    0.012213
    0.012696    0.012834    0.013984    0.014732    0.015925    0.016193
 Highest eigenvalues
    1.976530    2.043674    2.106514    2.133975    2.215709    2.237037
 

........................................................................
.............................. CYCLE   21 ..............................
........................................................................
   1    -84.3064751 -0.843065E+02  0.245E-02    0.04       0.0  T
   2    -84.2721363  0.343388E-01  0.488E-01    0.03       1.0  T
   3    -84.3065575 -0.344213E-01  0.482E-03    0.04       3.2  T
   4    -84.3065586 -0.102163E-05  0.203E-03    0.04       7.6  T
   5    -84.3065588 -0.260527E-06  0.908E-04    0.04      17.0  T
   6    -84.3065588 -0.940915E-08  0.134E-04    0.04     115.1  T
   7    -84.3065588  0.994760E-13  0.676E-05    0.04     228.3  T
     SCC iter.                  ...        0 min,  0.027 sec
     gradient                   ...        0 min,  0.080 sec
 * total energy  :   -83.5912888 Eh     change       -0.2954837E-04 Eh
   gradient norm :     0.0022871 Eh/α   predicted     0.0000000E+00 (-100.00%)
   displ. norm   :     0.0313738 α      lambda       -0.2251901E-04
   maximum displ.:     0.0167454 α      in ANC's #6, #4, #11, ...

........................................................................
.............................. CYCLE   22 ..............................
........................................................................
   1    -84.3071127 -0.843071E+02  0.240E-03    0.04       0.0  T
   2    -84.3070403  0.724055E-04  0.226E-02    0.04       1.0  T
   3    -84.3071127 -0.723821E-04  0.175E-03    0.04       8.8  T
   4    -84.3071125  0.198149E-06  0.202E-03    0.04       7.7  T
   5    -84.3071130 -0.512118E-06  0.217E-04    0.04      71.0  T
   6    -84.3071130 -0.338363E-08  0.914E-05    0.04     168.9  T
   7    -84.3071130 -0.110377E-08  0.140E-05    0.04    1101.5  T
     SCC iter.                  ...        0 min,  0.021 sec
     gradient                   ...        0 min,  0.073 sec
 * total energy  :   -83.5913075 Eh     change       -0.1867895E-04 Eh
   gradient norm :     0.0009025 Eh/α   predicted    -0.1129266E-04 ( -39.54%)
   displ. norm   :     0.1808733 α      lambda       -0.5414671E-04
   maximum displ.:     0.0989884 α      in ANC's #6, #4, #11, ...

........................................................................
.............................. CYCLE   23 ..............................
........................................................................
   1    -84.3081419 -0.843081E+02  0.825E-03    0.03       0.0  T
   2    -84.3068542  0.128779E-02  0.951E-02    0.05       1.0  T
   3    -84.3081441 -0.128995E-02  0.541E-03    0.03       2.9  T
   4    -84.3081406  0.348584E-05  0.725E-03    0.04       2.1  T
   5    -84.3081470 -0.642165E-05  0.178E-03    0.04       8.7  T
   6    -84.3081474 -0.380614E-06  0.359E-04    0.04      43.0  T
   7    -84.3081474 -0.175586E-07  0.581E-05    0.04     265.7  T
   8    -84.3081474  0.354817E-09  0.655E-05    0.04     235.7  T
     SCC iter.                  ...        0 min,  0.028 sec
     gradient                   ...        0 min,  0.047 sec
 * total energy  :   -83.5913608 Eh     change       -0.5326865E-04 Eh
   gradient norm :     0.0033640 Eh/α   predicted    -0.2746942E-04 ( -48.43%)
   displ. norm   :     0.1696289 α      lambda       -0.5613138E-04
   maximum displ.:     0.0922080 α      in ANC's #6, #4, #10, ...

........................................................................
.............................. CYCLE   24 ..............................
........................................................................
   1    -84.3076988 -0.843077E+02  0.621E-03    0.03       0.0  T
   2    -84.3065225  0.117622E-02  0.906E-02    0.05       1.0  T
   3    -84.3077016 -0.117904E-02  0.329E-03    0.04       4.7  T
   4    -84.3077015  0.375934E-07  0.319E-03    0.04       4.8  T
   5    -84.3077025 -0.990136E-06  0.153E-03    0.04      10.1  T
   6    -84.3077028 -0.310182E-06  0.845E-05    0.04     182.6  T
   7    -84.3077028  0.947864E-11  0.401E-05    0.04     384.4  T
     SCC iter.                  ...        0 min,  0.024 sec
     gradient                   ...        0 min,  0.080 sec
 * total energy  :   -83.5914137 Eh     change       -0.5294698E-04 Eh
   gradient norm :     0.0034826 Eh/α   predicted    -0.2887456E-04 ( -45.47%)
   displ. norm   :     0.5750126 α      lambda       -0.1878750E-03
   maximum displ.:     0.3039978 α      in ANC's #6, #10, #4, ...

........................................................................
.............................. CYCLE   25 ..............................
........................................................................
   1    -84.3018590 -0.843019E+02  0.307E-02    0.03       0.0  T
   2    -84.2820316  0.198274E-01  0.373E-01    0.09       1.0  T
   3    -84.3019419 -0.199103E-01  0.116E-02    0.03       1.3  T
   4    -84.3019361  0.576389E-05  0.113E-02    0.04       1.4  T
   5    -84.3019501 -0.139910E-04  0.207E-03    0.03       7.5  T
   6    -84.3019505 -0.375087E-06  0.387E-04    0.04      39.8  T
   7    -84.3019505  0.933461E-08  0.373E-04    0.04      41.4  T
   8    -84.3019505 -0.181411E-07  0.940E-05    0.04     164.2  T
   9    -84.3019505 -0.119252E-08  0.680E-06    0.04    2267.8  T
     SCC iter.                  ...        0 min,  0.034 sec
     gradient                   ...        0 min,  0.060 sec
 * total energy  :   -83.5913841 Eh     change        0.2959316E-04 Eh
   gradient norm :     0.0115053 Eh/α   predicted    -0.1250273E-03 (-522.49%)
   displ. norm   :     0.3040032 α      lambda       -0.3507546E-03
   maximum displ.:     0.1624649 α      in ANC's #6, #10, #4, ...

........................................................................
.............................. CYCLE   26 ..............................
........................................................................
   1    -84.3069362 -0.843069E+02  0.167E-02    0.04       0.0  T
   2    -84.3028740  0.406226E-02  0.168E-01    0.02       1.0  T
   3    -84.3069094 -0.403538E-02  0.178E-02    0.04       1.0  T
   4    -84.3069425 -0.331189E-04  0.770E-03    0.03       2.0  T
   5    -84.3069478 -0.536605E-05  0.283E-03    0.03       5.5  T
   6    -84.3069488 -0.999721E-06  0.491E-04    0.04      31.5  T
   7    -84.3069489 -0.308891E-07  0.696E-05    0.04     221.8  T
   8    -84.3069489 -0.239083E-09  0.381E-05    0.04     404.8  T
     SCC iter.                  ...        0 min,  0.021 sec
     gradient                   ...        0 min,  0.071 sec
 * total energy  :   -83.5915011 Eh     change       -0.1170102E-03 Eh
   gradient norm :     0.0021790 Eh/α   predicted    -0.1915853E-03 (  63.73%)
   displ. norm   :     0.0877611 α      lambda       -0.2993174E-04
   maximum displ.:     0.0428516 α      in ANC's #6, #10, #2, ...

........................................................................
.............................. CYCLE   27 ..............................
........................................................................
   1    -84.3066374 -0.843066E+02  0.108E-02    0.03       0.0  T
   2    -84.3014034  0.523408E-02  0.191E-01    0.06       1.0  T
   3    -84.3066537 -0.525039E-02  0.122E-03    0.04      12.6  T
   4    -84.3066539 -0.109718E-06  0.496E-04    0.04      31.1  T
   5    -84.3066539 -0.593216E-08  0.216E-04    0.04      71.4  T
   6    -84.3066539  0.850790E-09  0.927E-05    0.04     166.4  T
   7    -84.3066539 -0.111007E-08  0.118E-05    0.04    1307.6  T
     SCC iter.                  ...        0 min,  0.026 sec
     gradient                   ...        0 min,  0.079 sec
 * total energy  :   -83.5915292 Eh     change       -0.2803932E-04 Eh
   gradient norm :     0.0022000 Eh/α   predicted    -0.1508911E-04 ( -46.19%)
   displ. norm   :     0.4909969 α      lambda       -0.1651260E-03
   maximum displ.:     0.2303506 α      in ANC's #6, #10, #2, ...

........................................................................
.............................. CYCLE   28 ..............................
........................................................................
   1    -84.3018857 -0.843019E+02  0.665E-02    0.03       0.0  T
   2    -84.2513623  0.505233E-01  0.604E-01    0.20       1.0  T
   3    -84.3019696 -0.506073E-01  0.609E-02    0.04       1.0  T
   4    -84.3018733  0.963575E-04  0.659E-02    0.03       1.0  T
   5    -84.3022989 -0.425599E-03  0.373E-02    0.04       1.0  T
   6    -84.3024825 -0.183659E-03  0.108E-02    0.03       1.4  T
   7    -84.3024990 -0.164325E-04  0.175E-03    0.03       8.8  T
   8    -84.3024992 -0.261284E-06  0.111E-03    0.03      13.9  T
   9    -84.3024994 -0.139575E-06  0.519E-04    0.03      29.7  T
  10    -84.3024994 -0.383503E-07  0.592E-05    0.03     260.5  T
  11    -84.3024994 -0.470607E-09  0.149E-05    0.03    1033.1  T
     SCC iter.                  ...        0 min,  0.041 sec
     gradient                   ...        0 min,  0.080 sec
 * total energy  :   -83.5915445 Eh     change       -0.1533681E-04 Eh
   gradient norm :     0.0104123 Eh/α   predicted    -0.1024688E-03 ( 568.12%)
   displ. norm   :     0.2217149 α      lambda       -0.1945986E-03
   maximum displ.:     0.1123146 α      in ANC's #6, #10, #12, ...

........................................................................
.............................. CYCLE   29 ..............................
........................................................................
   1    -84.3062380 -0.843062E+02  0.221E-02    0.04       0.0  T
   2    -84.2821293  0.241087E-01  0.409E-01    0.03       1.0  T
   3    -84.3062880 -0.241587E-01  0.824E-03    0.04       1.9  T
   4    -84.3062937 -0.573872E-05  0.303E-03    0.03       5.1  T
   5    -84.3062940 -0.279601E-06  0.116E-03    0.03      13.4  T
   6    -84.3062941 -0.107860E-06  0.117E-04    0.03     132.2  T
   7    -84.3062941  0.190340E-09  0.599E-05    0.03     257.5  T
     SCC iter.                  ...        0 min,  0.027 sec
     gradient                   ...        0 min,  0.080 sec
 * total energy  :   -83.5916219 Eh     change       -0.7741862E-04 Eh
   gradient norm :     0.0031815 Eh/α   predicted    -0.1021521E-03 (  31.95%)
   displ. norm   :     0.0858711 α      lambda       -0.3737556E-04
   maximum displ.:     0.0376691 α      in ANC's #2, #10, #6, ...

........................................................................
.............................. CYCLE   30 ..............................
........................................................................
   1    -84.3063885 -0.843064E+02  0.130E-02    0.03       0.0  T
   2    -84.2990658  0.732268E-02  0.226E-01    0.07       1.0  T
   3    -84.3064121 -0.734626E-02  0.215E-03    0.04       7.2  T
   4    -84.3064126 -0.521776E-06  0.430E-04    0.03      35.8  T
   5    -84.3064126  0.773764E-08  0.349E-04    0.03      44.2  T
   6    -84.3064126 -0.852914E-08  0.125E-04    0.03     123.6  T
   7    -84.3064126 -0.209251E-08  0.130E-05    0.03    1183.3  T
     SCC iter.                  ...        0 min,  0.028 sec
     gradient                   ...        0 min,  0.080 sec
 * total energy  :   -83.5916572 Eh     change       -0.3532046E-04 Eh
   gradient norm :     0.0031949 Eh/α   predicted    -0.1882710E-04 ( -46.70%)
   displ. norm   :     0.5351282 α      lambda       -0.2264044E-03
   maximum displ.:     0.2371451 α      in ANC's #2, #10, #6, ...

........................................................................
.............................. CYCLE   31 ..............................
........................................................................
   1    -84.3031314 -0.843031E+02  0.591E-02    0.03       0.0  T
   2    -84.2555967  0.475347E-01  0.583E-01    0.18       1.0  T
   3    -84.3033238 -0.477271E-01  0.452E-02    0.04       1.0  T
   4    -84.3035181 -0.194335E-03  0.260E-02    0.03       1.0  T
   5    -84.3035587 -0.406019E-04  0.197E-02    0.04       1.0  T
   6    -84.3035904 -0.316891E-04  0.129E-02    0.03       1.2  T
   7    -84.3036137 -0.233090E-04  0.208E-03    0.03       7.4  T
   8    -84.3036142 -0.490014E-06  0.968E-04    0.03      15.9  T
   9    -84.3036144 -0.125220E-06  0.276E-04    0.03      56.0  T
  10    -84.3036144 -0.108870E-07  0.103E-05    0.03    1504.4  T
  11    -84.3036144 -0.837019E-11  0.571E-06    0.03    2702.2  T
     SCC iter.                  ...        0 min,  0.043 sec
     gradient                   ...        0 min,  0.080 sec
 * total energy  :   -83.5917633 Eh     change       -0.1060728E-03 Eh
   gradient norm :     0.0086870 Eh/α   predicted    -0.1455015E-03 (  37.17%)
   displ. norm   :     0.0798803 α      lambda       -0.1349282E-03
   maximum displ.:     0.0441768 α      in ANC's #4, #6, #3, ...

........................................................................
.............................. CYCLE   32 ..............................
........................................................................
   1    -84.3065991 -0.843066E+02  0.251E-02    0.04       0.0  T
   2    -84.2708533  0.357458E-01  0.497E-01    0.04       1.0  T
   3    -84.3066819 -0.358286E-01  0.462E-03    0.03       3.3  T
   4    -84.3066826 -0.743194E-06  0.208E-03    0.03       7.4  T
   5    -84.3066825  0.887954E-07  0.120E-03    0.03      12.9  T
   6    -84.3066827 -0.154247E-06  0.294E-04    0.03      52.4  T
   7    -84.3066827 -0.112824E-07  0.283E-05    0.03     546.0  T
   8    -84.3066827 -0.132729E-10  0.905E-06    0.03    1704.5  T
     SCC iter.                  ...        0 min,  0.031 sec
     gradient                   ...        0 min,  0.080 sec
 * total energy  :   -83.5918413 Eh     change       -0.7799598E-04 Eh
   gradient norm :     0.0034608 Eh/α   predicted    -0.6794040E-04 ( -12.89%)
   displ. norm   :     0.2338772 α      lambda       -0.8943903E-04
   maximum displ.:     0.1206473 α      in ANC's #2, #10, #12, ...

........................................................................
.............................. CYCLE   33 ..............................
........................................................................
   1    -84.3069390 -0.843069E+02  0.219E-02    0.04       0.0  T
   2    -84.2788514  0.280876E-01  0.440E-01    0.03       1.0  T
   3    -84.3070052 -0.281538E-01  0.292E-03    0.03       5.3  T
   4    -84.3070052  0.428993E-08  0.202E-03    0.03       7.7  T
   5    -84.3070053 -0.889213E-07  0.150E-03    0.03      10.3  T
   6    -84.3070055 -0.202331E-06  0.628E-04    0.03      24.6  T
   7    -84.3070056 -0.526495E-07  0.118E-04    0.03     130.5  T
   8    -84.3070056 -0.172749E-08  0.210E-05    0.03     733.3  T
     SCC iter.                  ...        0 min,  0.033 sec
     gradient                   ...        0 min,  0.118 sec
 * total energy  :   -83.5919213 Eh     change       -0.8000745E-04 Eh
   gradient norm :     0.0031064 Eh/α   predicted    -0.4726118E-04 ( -40.93%)
   displ. norm   :     0.6288673 α      lambda       -0.2321556E-03
   maximum displ.:     0.3284958 α      in ANC's #2, #10, #12, ...

........................................................................
.............................. CYCLE   34 ..............................
........................................................................
   1    -84.3022267 -0.843022E+02  0.747E-02    0.04       0.0  T
   2    -84.1473665  0.154860E+00  0.104E+00    0.16       1.0  T
   3    -84.3028398 -0.155473E+00  0.356E-02    0.03       1.0  T
   4    -84.3030078 -0.168026E-03  0.642E-03    0.04       2.4  T
   5    -84.3030103 -0.247910E-05  0.261E-03    0.03       5.9  T
   6    -84.3030097  0.605795E-06  0.255E-03    0.03       6.0  T
   7    -84.3030106 -0.852932E-06  0.744E-04    0.04      20.7  T
   8    -84.3030106 -0.728787E-07  0.221E-04    0.03      70.0  T
   9    -84.3030107 -0.512624E-08  0.114E-04    0.03     135.6  T
  10    -84.3030107 -0.184697E-08  0.679E-06    0.03    2271.3  T
     SCC iter.                  ...        0 min,  0.034 sec
     gradient                   ...        0 min,  0.079 sec
 * total energy  :   -83.5919427 Eh     change       -0.2134510E-04 Eh
   gradient norm :     0.0110293 Eh/α   predicted    -0.1630732E-03 ( 663.98%)
   displ. norm   :     0.2076435 α      lambda       -0.3551462E-03
   maximum displ.:     0.0837796 α      in ANC's #10, #2, #7, ...

........................................................................
.............................. CYCLE   35 ..............................
........................................................................
   1    -84.3083858 -0.843084E+02  0.553E-02    0.04       0.0  T
   2    -84.1857218  0.122664E+00  0.925E-01    0.11       1.0  T
   3    -84.3087738 -0.123052E+00  0.176E-02    0.03       1.0  T
   4    -84.3088093 -0.355407E-04  0.469E-03    0.04       3.3  T
   5    -84.3088093  0.608285E-07  0.233E-03    0.03       6.6  T
   6    -84.3088094 -0.196950E-06  0.107E-03    0.04      14.4  T
   7    -84.3088096 -0.159287E-06  0.152E-04    0.04     101.5  T
   8    -84.3088096 -0.285078E-08  0.436E-05    0.04     354.0  T
     SCC iter.                  ...        0 min,  0.027 sec
     gradient                   ...        0 min,  0.075 sec
 * total energy  :   -83.5920860 Eh     change       -0.1433779E-03 Eh
   gradient norm :     0.0027707 Eh/α   predicted    -0.1842509E-03 (  28.51%)
   displ. norm   :     0.1458228 α      lambda       -0.5443995E-04
   maximum displ.:     0.0831158 α      in ANC's #2, #6, #4, ...

........................................................................
.............................. CYCLE   36 ..............................
........................................................................
   1    -84.3086827 -0.843087E+02  0.150E-02    0.04       0.0  T
   2    -84.2949443  0.137384E-01  0.308E-01    0.02       1.0  T
   3    -84.3087134 -0.137691E-01  0.364E-03    0.03       4.2  T
   4    -84.3087146 -0.123843E-05  0.165E-03    0.04       9.4  T
   5    -84.3087148 -0.174614E-06  0.992E-04    0.04      15.6  T
   6    -84.3087149 -0.781002E-07  0.501E-04    0.04      30.8  T
   7    -84.3087149 -0.342374E-07  0.100E-04    0.04     154.1  T
   8    -84.3087149 -0.136116E-08  0.980E-06    0.04    1574.6  T
     SCC iter.                  ...        0 min,  0.028 sec
     gradient                   ...        0 min,  0.075 sec
 * total energy  :   -83.5921361 Eh     change       -0.5006837E-04 Eh
   gradient norm :     0.0030499 Eh/α   predicted    -0.2826247E-04 ( -43.55%)
   displ. norm   :     0.4160768 α      lambda       -0.3293863E-03
   maximum displ.:     0.2345281 α      in ANC's #2, #6, #4, ...

........................................................................
.............................. CYCLE   37 ..............................
........................................................................
   1    -84.3066622 -0.843067E+02  0.193E-02    0.03       0.0  T
   2    -84.2971704  0.949178E-02  0.257E-01    0.07       1.0  T
   3    -84.3066735 -0.950309E-02  0.139E-02    0.03       1.1  T
   4    -84.3066976 -0.240333E-04  0.397E-03    0.04       3.9  T
   5    -84.3066987 -0.117310E-05  0.110E-03    0.04      14.1  T
   6    -84.3066987  0.316183E-07  0.843E-04    0.04      18.3  T
   7    -84.3066988 -0.981589E-07  0.140E-04    0.04     110.6  T
   8    -84.3066988 -0.220835E-08  0.408E-05    0.04     377.9  T
     SCC iter.                  ...        0 min,  0.028 sec
     gradient                   ...        0 min,  0.076 sec
 * total energy  :   -83.5922179 Eh     change       -0.8181440E-04 Eh
   gradient norm :     0.0063173 Eh/α   predicted    -0.1033132E-03 (  26.28%)
   displ. norm   :     0.1044956 α      lambda       -0.1828746E-03
   maximum displ.:     0.0509744 α      in ANC's #4, #2, #6, ...

........................................................................
.............................. CYCLE   38 ..............................
........................................................................
   1    -84.3075824 -0.843076E+02  0.381E-02    0.03       0.0  T
   2    -84.2730729  0.345094E-01  0.492E-01    0.13       1.0  T
   3    -84.3077199 -0.346470E-01  0.229E-02    0.04       1.0  T
   4    -84.3077850 -0.651253E-04  0.808E-03    0.03       1.9  T
   5    -84.3077907 -0.564030E-05  0.524E-03    0.04       2.9  T
   6    -84.3077943 -0.361504E-05  0.131E-03    0.04      11.7  T
   7    -84.3077945 -0.242779E-06  0.197E-04    0.03      78.2  T
   8    -84.3077945 -0.553496E-08  0.901E-06    0.03    1712.9  T
     SCC iter.                  ...        0 min,  0.028 sec
     gradient                   ...        0 min,  0.076 sec
 * total energy  :   -83.5922797 Eh     change       -0.6179305E-04 Eh
   gradient norm :     0.0042102 Eh/α   predicted    -0.3814183E-04 ( -38.27%)
   displ. norm   :     0.2398132 α      lambda       -0.5006013E-03
   maximum displ.:     0.1153742 α      in ANC's #4, #2, #6, ...

........................................................................
.............................. CYCLE   39 ..............................
........................................................................
   1    -84.3069535 -0.843070E+02  0.981E-02    0.02       0.0  T
   2    -84.2499187  0.570347E-01  0.655E-01    0.29       1.0  T
   3    -84.3042938 -0.543750E-01  0.168E-01    0.06       1.0  T
   4    -84.3073901 -0.309632E-02  0.818E-02    0.03       1.0  T
   5    -84.3083626 -0.972511E-03  0.635E-03    0.04       2.4  T
   6    -84.3083673 -0.472552E-05  0.213E-03    0.03       7.3  T
   7    -84.3083679 -0.531913E-06  0.321E-04    0.03      48.1  T
   8    -84.3083678  0.976554E-07  0.872E-04    0.03      17.7  T
   9    -84.3083679 -0.106653E-06  0.160E-04    0.03      96.3  T
  10    -84.3083679 -0.371720E-08  0.950E-06    0.03    1623.5  T
     SCC iter.                  ...        0 min,  0.035 sec
     gradient                   ...        0 min,  0.075 sec
 * total energy  :   -83.5923442 Eh     change       -0.6452009E-04 Eh
   gradient norm :     0.0040258 Eh/α   predicted    -0.6232573E-04 (  -3.40%)
   displ. norm   :     0.3009265 α      lambda       -0.8061532E-03
   maximum displ.:     0.1481440 α      in ANC's #2, #6, #4, ...

........................................................................
.............................. CYCLE   40 ..............................
........................................................................
   1    -84.3046923 -0.843047E+02  0.157E-01    0.02       0.0  T
   2    -84.2447252  0.599672E-01  0.704E-01    0.44       1.0  T
   3    -84.2883044 -0.435792E-01  0.373E-01    0.09       1.0  T
   4    -84.3082625 -0.199581E-01  0.240E-02    0.04       1.0  T
   5    -84.3082149  0.476359E-04  0.291E-02    0.03       1.0  T
   6    -84.3083213 -0.106459E-03  0.115E-02    0.04       1.3  T
   7    -84.3083376 -0.163322E-04  0.409E-03    0.03       3.8  T
   8    -84.3083399 -0.223878E-05  0.117E-03    0.03      13.1  T
   9    -84.3083400 -0.134498E-06  0.670E-04    0.03      23.0  T
  10    -84.3083401 -0.588397E-07  0.208E-04    0.03      74.2  T
  11    -84.3083401 -0.623143E-08  0.252E-05    0.03     611.2  T
  12    -84.3083401 -0.225668E-10  0.218E-05    0.03     709.1  T
     SCC iter.                  ...        0 min,  0.041 sec
     gradient                   ...        0 min,  0.075 sec
 * total energy  :   -83.5923748 Eh     change       -0.3060451E-04 Eh
   gradient norm :     0.0056667 Eh/α   predicted    -0.7196186E-04 ( 135.13%)
   displ. norm   :     0.1313725 α      lambda       -0.4032140E-03
   maximum displ.:     0.0649840 α      in ANC's #2, #4, #6, ...

........................................................................
.............................. CYCLE   41 ..............................
........................................................................
   1    -84.3076178 -0.843076E+02  0.248E-02    0.03       0.0  T
   2    -84.2870996  0.205182E-01  0.378E-01    0.09       1.0  T
   3    -84.3076969 -0.205973E-01  0.758E-03    0.03       2.0  T
   4    -84.3077036 -0.673527E-05  0.239E-03    0.03       6.5  T
   5    -84.3077041 -0.513930E-06  0.593E-04    0.03      26.0  T
   6    -84.3077040  0.969359E-07  0.851E-04    0.03      18.1  T
   7    -84.3077041 -0.822179E-07  0.383E-04    0.03      40.2  T
   8    -84.3077041 -0.213283E-07  0.194E-05    0.03     796.5  T
   9    -84.3077041 -0.248690E-11  0.176E-05    0.03     875.4  T
     SCC iter.                  ...        0 min,  0.031 sec
     gradient                   ...        0 min,  0.075 sec
 * total energy  :   -83.5924251 Eh     change       -0.5030208E-04 Eh
   gradient norm :     0.0038812 Eh/α   predicted    -0.3461309E-04 ( -31.19%)
   displ. norm   :     0.1054807 α      lambda       -0.6789522E-03
   maximum displ.:     0.0626112 α      in ANC's #5, #4, #13, ...

........................................................................
.............................. CYCLE   42 ..............................
........................................................................
   1    -84.3098565 -0.843099E+02  0.413E-02    0.03       0.0  T
   2    -84.2716815  0.381750E-01  0.518E-01    0.14       1.0  T
   3    -84.3099483 -0.382667E-01  0.333E-02    0.04       1.0  T
   4    -84.3100773 -0.129029E-03  0.138E-02    0.03       1.1  T
   5    -84.3100832 -0.591961E-05  0.122E-02    0.03       1.3  T
   6    -84.3101042 -0.210278E-04  0.138E-03    0.03      11.2  T
   7    -84.3101045 -0.212846E-06  0.662E-04    0.03      23.3  T
   8    -84.3101045 -0.617396E-07  0.107E-04    0.03     144.1  T
   9    -84.3101045 -0.161083E-08  0.675E-06    0.03    2285.4  T
     SCC iter.                  ...        0 min,  0.031 sec
     gradient                   ...        0 min,  0.075 sec
 * total energy  :   -83.5924523 Eh     change       -0.2719616E-04 Eh
   gradient norm :     0.0053247 Eh/α   predicted    -0.5388719E-04 (  98.14%)
   displ. norm   :     0.1493530 α      lambda       -0.5226153E-03
   maximum displ.:     0.0793257 α      in ANC's #2, #4, #6, ...
 * RMSD in coord.:     0.5032931 α      energy gain  -0.1193073E-02 Eh

generating ANC from model Hessian ...
Using Lindh-Hessian (1995)
 Shifting diagonal of input Hessian by   9.848797122367157E-003
 Lowest  eigenvalues of input Hessian
    0.000000    0.000000    0.000000    0.000000    0.000000    0.000000
    0.010000    0.010123    0.010628    0.010998    0.011364    0.012557
    0.012736    0.013161    0.013919    0.014746    0.015971    0.016231
 Highest eigenvalues
    1.978743    2.056894    2.108168    2.136167    2.216665    2.236044
 

........................................................................
.............................. CYCLE   43 ..............................
........................................................................
   1    -84.3087991 -0.843088E+02  0.887E-03    0.03       0.0  T
   2    -84.3065357  0.226339E-02  0.125E-01    0.05       1.0  T
   3    -84.3088006 -0.226490E-02  0.679E-03    0.03       2.3  T
   4    -84.3088061 -0.551169E-05  0.195E-03    0.03       7.9  T
   5    -84.3088062 -0.545946E-07  0.914E-04    0.03      16.9  T
   6    -84.3088063 -0.105345E-06  0.799E-05    0.03     193.1  T
   7    -84.3088063  0.723048E-10  0.535E-05    0.03     288.5  T
     SCC iter.                  ...        0 min,  0.024 sec
     gradient                   ...        0 min,  0.075 sec
 * total energy  :   -83.5924997 Eh     change       -0.4733547E-04 Eh
   gradient norm :     0.0038902 Eh/α   predicted     0.0000000E+00 (-100.00%)
   displ. norm   :     0.0256694 α      lambda       -0.3589482E-04
   maximum displ.:     0.0121084 α      in ANC's #5, #7, #13, ...

........................................................................
.............................. CYCLE   44 ..............................
........................................................................
   1    -84.3088848 -0.843089E+02  0.616E-03    0.03       0.0  T
   2    -84.3072424  0.164239E-02  0.107E-01    0.05       1.0  T
   3    -84.3088861 -0.164368E-02  0.525E-03    0.03       2.9  T
   4    -84.3088884 -0.229482E-05  0.288E-03    0.03       5.4  T
   5    -84.3088895 -0.107097E-05  0.284E-04    0.03      54.3  T
   6    -84.3088895 -0.495227E-08  0.740E-05    0.03     208.6  T
   7    -84.3088895 -0.158693E-09  0.434E-05    0.03     355.7  T
     SCC iter.                  ...        0 min,  0.024 sec
     gradient                   ...        0 min,  0.075 sec
 * total energy  :   -83.5925255 Eh     change       -0.2579630E-04 Eh
   gradient norm :     0.0014358 Eh/α   predicted    -0.1802281E-04 ( -30.13%)
   displ. norm   :     0.0712950 α      lambda       -0.2435914E-04
   maximum displ.:     0.0343998 α      in ANC's #5, #13, #7, ...

........................................................................
.............................. CYCLE   45 ..............................
........................................................................
   1    -84.3088496 -0.843088E+02  0.467E-03    0.03       0.0  T
   2    -84.3082927  0.556940E-03  0.623E-02    0.04       1.0  T
   3    -84.3088480 -0.555320E-03  0.549E-03    0.03       2.8  T
   4    -84.3088469  0.114972E-05  0.584E-03    0.03       2.6  T
   5    -84.3088514 -0.451728E-05  0.871E-04    0.03      17.7  T
   6    -84.3088515 -0.913709E-07  0.103E-04    0.03     150.2  T
   7    -84.3088515 -0.604743E-09  0.557E-05    0.03     277.1  T
     SCC iter.                  ...        0 min,  0.024 sec
     gradient                   ...        0 min,  0.079 sec
 * total energy  :   -83.5925467 Eh     change       -0.2125183E-04 Eh
   gradient norm :     0.0021806 Eh/α   predicted    -0.1220744E-04 ( -42.56%)
   displ. norm   :     0.0484733 α      lambda       -0.1594941E-04
   maximum displ.:     0.0221586 α      in ANC's #5, #13, #7, ...

........................................................................
.............................. CYCLE   46 ..............................
........................................................................
   1    -84.3087527 -0.843088E+02  0.245E-03    0.03       0.0  T
   2    -84.3085027  0.250086E-03  0.414E-02    0.03       1.0  T
   3    -84.3087529 -0.250258E-03  0.201E-03    0.03       7.7  T
   4    -84.3087532 -0.285490E-06  0.131E-03    0.03      11.7  T
   5    -84.3087534 -0.189922E-06  0.548E-04    0.03      28.2  T
   6    -84.3087534 -0.386714E-07  0.723E-05    0.03     213.4  T
   7    -84.3087534 -0.574715E-09  0.196E-05    0.03     786.3  T
     SCC iter.                  ...        0 min,  0.026 sec
     gradient                   ...        0 min,  0.074 sec
 * total energy  :   -83.5925611 Eh     change       -0.1439716E-04 Eh
   gradient norm :     0.0020612 Eh/α   predicted    -0.8013068E-05 ( -44.34%)
   displ. norm   :     0.2116971 α      lambda       -0.6081494E-04
   maximum displ.:     0.0944608 α      in ANC's #13, #5, #7, ...

........................................................................
.............................. CYCLE   47 ..............................
........................................................................
   1    -84.3079083 -0.843079E+02  0.549E-03    0.03       0.0  T
   2    -84.3077453  0.163011E-03  0.335E-02    0.03       1.0  T
   3    -84.3078839 -0.138580E-03  0.136E-02    0.04       1.1  T
   4    -84.3079084 -0.245109E-04  0.316E-03    0.03       4.9  T
   5    -84.3079093 -0.946666E-06  0.134E-03    0.03      11.5  T
   6    -84.3079096 -0.219925E-06  0.237E-04    0.03      65.2  T
   7    -84.3079096 -0.581444E-08  0.697E-05    0.03     221.4  T
   8    -84.3079096 -0.495930E-09  0.239E-05    0.03     645.0  T
     SCC iter.                  ...        0 min,  0.028 sec
     gradient                   ...        0 min,  0.075 sec
 * total energy  :   -83.5925972 Eh     change       -0.3611662E-04 Eh
   gradient norm :     0.0018141 Eh/α   predicted    -0.3177214E-04 ( -12.03%)
   displ. norm   :     0.0914458 α      lambda       -0.1114834E-04
   maximum displ.:     0.0431773 α      in ANC's #13, #5, #3, ...

........................................................................
.............................. CYCLE   48 ..............................
........................................................................
   1    -84.3080779 -0.843081E+02  0.106E-02    0.03       0.0  T
   2    -84.3028880  0.518990E-02  0.189E-01    0.06       1.0  T
   3    -84.3080935 -0.520546E-02  0.174E-03    0.03       8.9  T
   4    -84.3080938 -0.297054E-06  0.589E-04    0.03      26.2  T
   5    -84.3080938 -0.240446E-08  0.277E-04    0.03      55.8  T
   6    -84.3080938  0.364358E-08  0.184E-04    0.03      83.7  T
   7    -84.3080938 -0.471329E-08  0.141E-05    0.03    1095.4  T
     SCC iter.                  ...        0 min,  0.024 sec
     gradient                   ...        0 min,  0.075 sec
 * total energy  :   -83.5926096 Eh     change       -0.1234396E-04 Eh
   gradient norm :     0.0014444 Eh/α   predicted    -0.5595841E-05 ( -54.67%)
   displ. norm   :     0.1067524 α      lambda       -0.1825809E-04
   maximum displ.:     0.0496107 α      in ANC's #6, #13, #9, ...

........................................................................
.............................. CYCLE   49 ..............................
........................................................................
   1    -84.3087096 -0.843087E+02  0.321E-02    0.03       0.0  T
   2    -84.2789000  0.298096E-01  0.456E-01    0.11       1.0  T
   3    -84.3088268 -0.299267E-01  0.154E-02    0.03       1.0  T
   4    -84.3088587 -0.319610E-04  0.380E-03    0.03       4.1  T
   5    -84.3088607 -0.197114E-05  0.615E-04    0.03      25.1  T
   6    -84.3088604  0.268302E-06  0.139E-03    0.03      11.1  T
   7    -84.3088607 -0.276386E-06  0.186E-04    0.03      83.2  T
   8    -84.3088607 -0.489835E-08  0.191E-05    0.03     807.9  T
     SCC iter.                  ...        0 min,  0.027 sec
     gradient                   ...        0 min,  0.075 sec
 * total energy  :   -83.5926275 Eh     change       -0.1790657E-04 Eh
   gradient norm :     0.0015256 Eh/α   predicted    -0.9195485E-05 ( -48.65%)
   displ. norm   :     0.1768708 α      lambda       -0.1436788E-04
   maximum displ.:     0.0741745 α      in ANC's #6, #13, #9, ...

........................................................................
.............................. CYCLE   50 ..............................
........................................................................
   1    -84.3074610 -0.843075E+02  0.334E-02    0.03       0.0  T
   2    -84.2763225  0.311385E-01  0.466E-01    0.12       1.0  T
   3    -84.3075931 -0.312706E-01  0.145E-02    0.03       1.1  T
   4    -84.3076218 -0.286677E-04  0.316E-03    0.03       4.9  T
   5    -84.3076230 -0.129277E-05  0.798E-04    0.03      19.3  T
   6    -84.3076229  0.135194E-06  0.112E-03    0.03      13.8  T
   7    -84.3076231 -0.174107E-06  0.226E-04    0.03      68.3  T
   8    -84.3076231 -0.743347E-08  0.123E-05    0.03    1258.3  T
   9    -84.3076231  0.311076E-10  0.174E-05    0.03     888.6  T
     SCC iter.                  ...        0 min,  0.031 sec
     gradient                   ...        0 min,  0.075 sec
 * total energy  :   -83.5926384 Eh     change       -0.1090535E-04 Eh
   gradient norm :     0.0024810 Eh/α   predicted    -0.7301886E-05 ( -33.04%)
   displ. norm   :     0.0462826 α      lambda       -0.1218616E-04
   maximum displ.:     0.0240252 α      in ANC's #6, #4, #1, ...

........................................................................
.............................. CYCLE   51 ..............................
........................................................................
   1    -84.3080556 -0.843081E+02  0.475E-03    0.03       0.0  T
   2    -84.3069328  0.112278E-02  0.879E-02    0.04       1.0  T
   3    -84.3080584 -0.112564E-02  0.161E-03    0.03       9.6  T
   4    -84.3080586 -0.138011E-06  0.106E-03    0.03      14.5  T
   5    -84.3080587 -0.122401E-06  0.270E-04    0.03      57.1  T
   6    -84.3080587 -0.557547E-08  0.540E-05    0.03     285.7  T
   7    -84.3080587 -0.319417E-09  0.127E-05    0.03    1214.4  T
     SCC iter.                  ...        0 min,  0.024 sec
     gradient                   ...        0 min,  0.075 sec
 * total energy  :   -83.5926485 Eh     change       -0.1008240E-04 Eh
   gradient norm :     0.0017534 Eh/α   predicted    -0.6118460E-05 ( -39.32%)
   displ. norm   :     0.1835548 α      lambda       -0.2200329E-04
   maximum displ.:     0.0912610 α      in ANC's #6, #4, #1, ...

........................................................................
.............................. CYCLE   52 ..............................
........................................................................
   1    -84.3087459 -0.843087E+02  0.684E-03    0.03       0.0  T
   2    -84.3072035  0.154242E-02  0.103E-01    0.02       1.0  T
   3    -84.3087477 -0.154427E-02  0.500E-03    0.03       3.1  T
   4    -84.3087499 -0.212027E-05  0.250E-03    0.03       6.2  T
   5    -84.3087504 -0.536622E-06  0.109E-03    0.03      14.2  T
   6    -84.3087505 -0.131098E-06  0.276E-04    0.03      55.9  T
   7    -84.3087505 -0.103115E-07  0.334E-05    0.03     462.0  T
   8    -84.3087505  0.987654E-11  0.262E-05    0.03     588.2  T
     SCC iter.                  ...        0 min,  0.027 sec
     gradient                   ...        0 min,  0.075 sec
 * total energy  :   -83.5926690 Eh     change       -0.2056431E-04 Eh
   gradient norm :     0.0012224 Eh/α   predicted    -0.1119735E-04 ( -45.55%)
   displ. norm   :     0.1540199 α      lambda       -0.1178833E-04
   maximum displ.:     0.0669480 α      in ANC's #1, #6, #4, ...

........................................................................
.............................. CYCLE   53 ..............................
........................................................................
   1    -84.3082085 -0.843082E+02  0.204E-02    0.04       0.0  T
   2    -84.2815025  0.267061E-01  0.429E-01    0.03       1.0  T
   3    -84.3082672 -0.267647E-01  0.461E-03    0.03       3.3  T
   4    -84.3082698 -0.266936E-05  0.112E-03    0.03      13.7  T
   5    -84.3082699 -0.297291E-07  0.797E-04    0.03      19.4  T
   6    -84.3082699 -0.499034E-07  0.317E-04    0.03      48.7  T
   7    -84.3082699 -0.143497E-07  0.201E-05    0.03     768.1  T
   8    -84.3082699 -0.866862E-11  0.139E-05    0.03    1113.1  T
     SCC iter.                  ...        0 min,  0.028 sec
     gradient                   ...        0 min,  0.075 sec
 * total energy  :   -83.5926809 Eh     change       -0.1182040E-04 Eh
   gradient norm :     0.0011678 Eh/α   predicted    -0.5957145E-05 ( -49.60%)
   displ. norm   :     0.1132372 α      lambda       -0.1605256E-04
   maximum displ.:     0.0618399 α      in ANC's #1, #4, #3, ...

........................................................................
.............................. CYCLE   54 ..............................
........................................................................
   1    -84.3085855 -0.843086E+02  0.560E-02    0.04       0.0  T
   2    -84.1817320  0.126853E+00  0.940E-01    0.12       1.0  T
   3    -84.3089949 -0.127263E+00  0.198E-02    0.03       1.0  T
   4    -84.3090505 -0.556433E-04  0.171E-03    0.03       9.0  T
   5    -84.3090502  0.343727E-06  0.237E-03    0.03       6.5  T
   6    -84.3090505 -0.377677E-06  0.154E-03    0.03      10.0  T
   7    -84.3090509 -0.342210E-06  0.235E-05    0.03     657.7  T
   8    -84.3090509 -0.633804E-11  0.140E-05    0.03    1105.7  T
     SCC iter.                  ...        0 min,  0.028 sec
     gradient                   ...        0 min,  0.075 sec
 * total energy  :   -83.5926949 Eh     change       -0.1401442E-04 Eh
   gradient norm :     0.0017379 Eh/α   predicted    -0.8072654E-05 ( -42.40%)
   displ. norm   :     0.1159597 α      lambda       -0.1026515E-04
   maximum displ.:     0.0618544 α      in ANC's #1, #4, #2, ...

........................................................................
[...]
H41-C23=1.0870       H42-C23=1.0903       
 C  H  Rav=1.0921 sigma=0.0034  Rmin=1.0870  Rmax=1.0976    15
 C  C  Rav=1.4657 sigma=0.0621  Rmin=1.3678  Rmax=1.5370     8
 N  H  Rav=1.0113 sigma=0.0000  Rmin=1.0113  Rmax=1.0113     1
 N  C  Rav=1.3633 sigma=0.0521  Rmin=1.2925  Rmax=1.4680     8
 N  N  Rav=1.3678 sigma=0.0000  Rmin=1.3678  Rmax=1.3678     1
 O  H  Rav=1.0123 sigma=0.0000  Rmin=1.0123  Rmax=1.0123     1
 O  C  Rav=1.3632 sigma=0.0547  Rmin=1.2568  Rmax=1.4115     9
 
 selected bond angles (degree)
 --------------------
H26-C1-O2=111.44               H27-C1-O2=107.38               H27-C1-H26=109.13              H28-C1-O2=111.46               
H28-C1-H26=108.25              H28-C1-H27=109.14              C3-O2-C1=114.80                O4-C3-O2=118.55                
C5-C3-O2=115.90                C5-C3-O4=125.55                C6-C5-C3=120.43                N25-C5-C3=121.12               
N25-C5-C6=118.46               O7-C6-C5=118.25                C8-C6-C5=118.17                C8-C6-O7=123.57                
H29-O7-C6=104.95               O9-C8-C6=126.84                N11-C8-C6=121.87               N11-C8-O9=111.29               
C10-O9-C8=120.23               H30-C10-O9=112.11              H31-C10-O9=112.09              H31-C10-H30=108.90             
H32-C10-O9=106.52              H32-C10-H30=108.49             H32-C10-H31=108.60             
 
 selected dihedral angles (degree)
 ---------------------------------
C3-O2-C1-H26= 60.21           C3-O2-C1-H27=179.67           C3-O2-C1-H28=299.15           O4-C3-O2-C1=  0.80            
C5-C3-O2-C1=180.82            C6-C5-C3-O2=179.90            C6-C5-C3-O4=359.92            N25-C5-C3-O2=359.77           
N25-C5-C3-O4=179.79           O7-C6-C5-C3=  0.06            O7-C6-C5-N25=180.19           C8-C6-C5-C3=180.05            
C8-C6-C5-N25=  0.18           H29-O7-C6-C5=359.76           H29-O7-C6-C8=179.77           O9-C8-C6-C5=180.66            
O9-C8-C6-O7=  0.65            N11-C8-C6-C5=  0.06           N11-C8-C6-O7=180.05           C10-O9-C8-C6=353.83           
C10-O9-C8-N11=174.38          H30-C10-O9-C8= 65.50          H31-C10-O9-C8=302.68          H32-C10-O9-C8=184.03          
           -------------------------------------------------
          |                Final Singlepoint                |
           -------------------------------------------------

          ...................................................
          :                      SETUP                      :
          :.................................................:
          :  # basis functions                 134          :
          :  # atomic orbitals                 134          :
          :  # shells                           84          :
          :  # electrons                       136          :
          :  # halogen bonds                     0          :
          :  max. iterations                   250          :
          :  Hamiltonian                  GFN1-xTB          :
          :  restarted?                      false          :
          :  GBSA solvation                   true          :
          :  PC potential                    false          :
          :  electronic temp.          300.0000000     K    :
          :  accuracy                    1.0000000          :
          :  -> integral cutoff          0.2500000E+02      :
          :  -> integral neglect         0.1000000E-07      :
          :  -> SCF convergence          0.1000000E-05 Eh   :
          :  -> wf. convergence          0.2000000E-04 e    :
          :  Broyden damping             0.4000000          :
          ...................................................

 iter      E             dE          RMSdq      gap      omega  full diag
   1    -84.3089166 -0.843089E+02  0.808E-06    0.03       0.0  T
   2    -84.3089166  0.361034E-08  0.158E-04    0.03      97.9  T
   3    -84.3089166 -0.361958E-08  0.867E-07    0.03   17801.1  T

   *** convergence criteria satisfied after 3 iterations ***

         #    Occupation            Energy/Eh            Energy/eV
      -------------------------------------------------------------
         1        2.0000           -0.7953387             -21.6423
       ...           ...                  ...                  ...
        62        2.0000           -0.3918183             -10.6619
        63        2.0000           -0.3826032             -10.4112
        64        2.0000           -0.3822122             -10.4005
        65        2.0000           -0.3770113             -10.2590
        66        2.0000           -0.3588054              -9.7636
        67        2.0000           -0.3460730              -9.4171
        68        1.3101           -0.2606235              -7.0919 (HOMO)
        69        0.6899           -0.2594049              -7.0588 (LUMO)
        70                         -0.2050803              -5.5805
        71                         -0.1946168              -5.2958
        72                         -0.1577620              -4.2929
        73                         -0.1323630              -3.6018
       ...                                ...                  ...
       134                          0.6910572              18.8046
      -------------------------------------------------------------
                  HL-Gap            0.0012186 Eh            0.0332 eV
             Fermi-level           -0.2600142 Eh           -7.0753 eV

 SCC (total)                   0 d,  0 h,  0 min,  0.124 sec
 SCC setup                      ...        0 min,  0.002 sec (  1.502%)
 Dispersion                     ...        0 min,  0.000 sec (  0.269%)
 classical contributions        ...        0 min,  0.000 sec (  0.093%)
 integral evaluation            ...        0 min,  0.033 sec ( 26.258%)
 iterations                     ...        0 min,  0.011 sec (  8.901%)
 molecular gradient             ...        0 min,  0.077 sec ( 62.308%)
 printout                       ...        0 min,  0.001 sec (  0.638%)

         :::::::::::::::::::::::::::::::::::::::::::::::::::::
         ::                     SUMMARY                     ::
         :::::::::::::::::::::::::::::::::::::::::::::::::::::
         :: total energy             -83.592757737655 Eh    ::
         :: total w/o Gsasa/hb       -83.570556275206 Eh    ::
         :: gradient norm              0.000760167418 Eh/a0 ::
         :: HOMO-LUMO gap              0.033160447290 eV    ::
         ::.................................................::
         :: SCC energy               -84.308916590090 Eh    ::
         :: -> electrostatic           0.641161569442 Eh    ::
         :: -> Gsolv                  -0.258489206763 Eh    ::
         ::    -> Gelec               -0.236287744314 Eh    ::
         ::    -> Gsasa               -0.025991872030 Eh    ::
         ::    -> Ghb                 -0.003833869424 Eh    ::
         ::    -> Gshift               0.007624279005 Eh    ::
         :: repulsion energy           0.740746353756 Eh    ::
         :: dispersion energy         -0.024587501322 Eh    ::
         :: halogen bond corr.         0.000000000000 Eh    ::
         :: add. restraining           0.000000000000 Eh    ::
         :: total charge              -2.000000000000 e     ::
         :::::::::::::::::::::::::::::::::::::::::::::::::::::

           -------------------------------------------------
          |                Property Printout                |
           -------------------------------------------------

    * Orbital Energies and Occupations

         #    Occupation            Energy/Eh            Energy/eV
      -------------------------------------------------------------
         1        2.0000           -0.7953387             -21.6423
       ...           ...                  ...                  ...
        56        2.0000           -0.4346123             -11.8264
        57        2.0000           -0.4306660             -11.7190
        58        2.0000           -0.4220746             -11.4852
        59        2.0000           -0.4007636             -10.9053
        60        2.0000           -0.3960733             -10.7777
        61        2.0000           -0.3944880             -10.7346
        62        2.0000           -0.3918183             -10.6619
        63        2.0000           -0.3826032             -10.4112
        64        2.0000           -0.3822122             -10.4005
        65        2.0000           -0.3770113             -10.2590
        66        2.0000           -0.3588054              -9.7636
        67        2.0000           -0.3460730              -9.4171
        68        1.3101           -0.2606235              -7.0919 (HOMO)
        69        0.6899           -0.2594049              -7.0588 (LUMO)
        70                         -0.2050803              -5.5805
        71                         -0.1946168              -5.2958
        72                         -0.1577620              -4.2929
        73                         -0.1323630              -3.6018
        74                         -0.1225256              -3.3341
        75                         -0.1064069              -2.8955
        76                         -0.1048467              -2.8530
        77                         -0.0881677              -2.3992
        78                         -0.0841885              -2.2909
        79                         -0.0721603              -1.9636
       ...                                ...                  ...
       134                          0.6910572              18.8046
      -------------------------------------------------------------
                  HL-Gap            0.0012186 Eh            0.0332 eV
             Fermi-level           -0.2600142 Eh           -7.0753 eV

  Mulliken/CM5 charges         n(s)   n(p)   n(d)
     1C     0.18315  0.06520   0.963  2.854  0.000
     2O    -0.47676 -0.55595   1.699  4.778  0.000
     3C     0.44796  0.50230   0.964  2.588  0.000
     4O    -0.70000 -0.77410   1.749  4.951  0.000
     5C    -0.00184  0.06927   1.030  2.971  0.000
     6C     0.15664  0.18637   1.016  2.827  0.000
     7O    -0.59494 -0.77886   1.722  4.873  0.000
     8C     0.30572  0.40114   0.979  2.715  0.000
     9O    -0.46832 -0.54522   1.686  4.783  0.000
    10C     0.17851  0.06055   0.966  2.856  0.000
    11N    -0.51264 -0.68432   1.552  3.960  0.000
    12C     0.26949  0.42519   1.014  2.716  0.000
    13C     0.15664  0.19803   1.061  2.782  0.000
    14C    -0.08506 -0.22301   1.010  3.075  0.000
    15C    -0.08838 -0.22610   1.010  3.079  0.000
    16N    -0.38165 -0.72128   1.443  3.939  0.000
    17C     0.38415  0.48251   0.974  2.642  0.000
    18O    -0.68362 -0.72591   1.747  4.937  0.000
    19C     0.26105  0.37471   1.004  2.735  0.000
    20N    -0.34337 -0.43760   1.585  3.758  0.000
    21N    -0.31563 -0.42329   1.571  3.745  0.000
    22C     0.35191  0.46033   0.991  2.657  0.000
    23C    -0.10966 -0.24700   1.008  3.102  0.000
    24O    -0.41615 -0.47004   1.712  4.705  0.000
    25N    -0.46047 -0.63723   1.554  3.906  0.000
    26H     0.01708  0.07842   0.983  0.000  0.000
    27H     0.01269  0.07266   0.987  0.000  0.000
    28H     0.01652  0.07785   0.983  0.000  0.000
    29H     0.37259  0.56523   0.627  0.000  0.000
    30H     0.01888  0.08134   0.981  0.000  0.000
    31H     0.01977  0.08209   0.980  0.000  0.000
    32H     0.01427  0.07432   0.986  0.000  0.000
    33H     0.02638  0.08644   0.974  0.000  0.000
    34H     0.00952  0.06417   0.990  0.000  0.000
    35H     0.01578  0.07594   0.984  0.000  0.000
    36H     0.02434  0.08350   0.976  0.000  0.000
    37H     0.01441  0.07175   0.986  0.000  0.000
    38H     0.01769  0.07662   0.982  0.000  0.000
    39H     0.21339  0.41958   0.787  0.000  0.000
    40H     0.05211  0.10633   0.948  0.000  0.000
    41H     0.04472  0.10068   0.955  0.000  0.000
    42H     0.05312  0.10737   0.947  0.000  0.000

Wiberg/Mayer (AO) data.
largest (>0.10) Wiberg bond orders for each atom

 ---------------------------------------------------------------------------
     #   Z sym  total        # sym  WBO       # sym  WBO       # sym  WBO
 ---------------------------------------------------------------------------
     1   6 C    3.919 --    27 H    0.987    28 H    0.980    26 H    0.980
                             2 O    0.951
     2   8 O    2.047 --     1 C    0.951     3 C    0.943
     3   6 C    3.703 --     4 O    1.338     5 C    1.320     2 O    0.943
     4   8 O    1.710 --     3 C    1.338    29 H    0.128
     5   6 C    3.800 --     3 C    1.320     6 C    1.146    25 N    1.122
     6   6 C    3.822 --     8 C    1.478     5 C    1.146     7 O    1.025
     7   8 O    1.961 --     6 C    1.025    29 H    0.745
     8   6 C    3.801 --     6 C    1.478    11 N    1.193     9 O    0.958
     9   8 O    2.061 --     8 C    0.958    10 C    0.946
    10   6 C    3.915 --    32 H    0.985    31 H    0.981    30 H    0.980
                             9 O    0.946
    11   7 N    2.781 --    12 C    1.327     8 C    1.193
    12   6 C    3.956 --    25 N    1.504    11 N    1.327    13 C    0.965
    13   6 C    3.943 --    15 C    0.993    14 C    0.989    12 C    0.965
                            16 N    0.933
    14   6 C    3.994 --    13 C    0.989    34 H    0.988    35 H    0.984
                            33 H    0.983
    15   6 C    3.993 --    13 C    0.993    37 H    0.986    38 H    0.986
                            36 H    0.985
    16   7 N    3.160 --    17 C    1.108    13 C    0.933    39 H    0.920
                            18 O    0.112
    17   6 C    3.761 --    18 O    1.418    19 C    1.164    16 N    1.108
    18   8 O    1.665 --    17 C    1.418    16 N    0.112
    19   6 C    3.672 --    20 N    1.381    17 C    1.164    24 O    0.959
    20   7 N    2.709 --    19 C    1.381    21 N    1.189
    21   7 N    2.981 --    22 C    1.628    20 N    1.189
    22   6 C    3.808 --    21 N    1.628    24 O    1.037    23 C    1.023
    23   6 C    3.994 --    22 C    1.023    41 H    0.986    40 H    0.972
                            42 H    0.972
    24   8 O    2.165 --    22 C    1.037    19 C    0.959
    25   7 N    2.876 --    12 C    1.504     5 C    1.122
    26   1 H    1.019 --     1 C    0.980
    27   1 H    1.020 --     1 C    0.987
    28   1 H    1.019 --     1 C    0.980
    29   1 H    0.886 --     7 O    0.745     4 O    0.128
    30   1 H    1.022 --    10 C    0.980
    31   1 H    1.020 --    10 C    0.981
    32   1 H    1.020 --    10 C    0.985
    33   1 H    1.024 --    14 C    0.983
    34   1 H    1.009 --    14 C    0.988
    35   1 H    1.027 --    14 C    0.984
    36   1 H    1.018 --    15 C    0.985
    37   1 H    1.020 --    15 C    0.986
    38   1 H    1.019 --    15 C    0.986
    39   1 H    0.972 --    16 N    0.920
    40   1 H    1.001 --    23 C    0.972
    41   1 H    1.005 --    23 C    0.986
    42   1 H    1.001 --    23 C    0.972
 ---------------------------------------------------------------------------

Topologies differ in total number of bonds
Writing topology from bond orders to xtbtopo.mol

 dipole moment from electron density (au)
     X       Y       Z   
  -2.4614   0.9460   3.5230  total (Debye):   11.185

           -------------------------------------------------
          |                Geometry Summary                 |
           -------------------------------------------------

      molecular mass/u    :      351.3152409
   center of mass at/Å    :        0.1800141      -0.0735327      -0.0695954
  moments of inertia/u·Å² :        0.1671687E+04   0.4568703E+04   0.4865299E+04
rotational constants/cm⁻¹ :        0.1008420E-01   0.3689807E-02   0.3464871E-02

 * 35 selected distances

     #   Z          #   Z                                           value/Å
     1   6 C        2   8 O                                       1.4114618
     3   6 C        5   6 C                                       1.3960631
     6   6 C        7   8 O                                       1.3739732
     6   6 C        8   6 C                                       1.3677771
     8   6 C        9   8 O                                       1.3909500
     9   8 O       10   6 C                                       1.4104340
     8   6 C       11   7 N                                       1.3670224
    11   7 N       12   6 C                                       1.3412463
    13   6 C       14   6 C                                       1.5370442 (max)
    13   6 C       15   6 C                                       1.5353929
    13   6 C       16   7 N                                       1.4680148
    16   7 N       17   6 C                                       1.3922906
    17   6 C       19   6 C                                       1.4276926
    19   6 C       20   7 N                                       1.3418825
    21   7 N       22   6 C                                       1.2925391
    22   6 C       23   6 C                                       1.4848865
    19   6 C       24   8 O                                       1.3899962
    22   6 C       24   8 O                                       1.3586777
    12   6 C       25   7 N                                       1.3088054
     1   6 C       26   1 H                                       1.0975894
     1   6 C       27   1 H                                       1.0917699
     1   6 C       28   1 H                                       1.0975865
    10   6 C       30   1 H                                       1.0970339
    10   6 C       31   1 H                                       1.0969003
    10   6 C       32   1 H                                       1.0936429
    14   6 C       33   1 H                                       1.0891590
    14   6 C       34   1 H                                       1.0902852
    14   6 C       35   1 H                                       1.0909915
    15   6 C       36   1 H                                       1.0895224
    15   6 C       37   1 H                                       1.0899841
    15   6 C       38   1 H                                       1.0900962
    16   7 N       39   1 H                                       1.0113202 (min)
    23   6 C       40   1 H                                       1.0900567
    23   6 C       41   1 H                                       1.0870075
    23   6 C       42   1 H                                       1.0903077

 * 5 distinct bonds (by element types)

   Z      Z             #   av. dist./Å        max./Å        min./Å
   1 H    6 C          15     1.0921289     1.0975894     1.0870075
   6 C    6 C           6     1.4581427     1.5370442     1.3677771
   1 H    7 N           1     1.0113202     1.0113202     1.0113202
   6 C    7 N           7     1.3588287     1.4680148     1.2925391
   6 C    8 O           6     1.3892488     1.4114618     1.3586777


optimized geometry written to: xtbopt.xyz


           -------------------------------------------------
          | TOTAL ENERGY              -83.592757737655 Eh   |
          | GRADIENT NORM               0.000760167418 Eh/α |
          | HOMO-LUMO GAP               0.033160447290 eV   |
           -------------------------------------------------

------------------------------------------------------------------------
 * finished run on 2023/06/20 at 18:01:00.360     
------------------------------------------------------------------------
 total:
 * wall-time:     0 d,  0 h,  0 min,  9.304 sec
 *  cpu-time:     0 d,  0 h,  0 min,  9.182 sec
 * ratio c/w:     0.987 speedup
 SCF:
 * wall-time:     0 d,  0 h,  0 min,  0.223 sec
 *  cpu-time:     0 d,  0 h,  0 min,  0.209 sec
 * ratio c/w:     0.936 speedup
 ANC optimizer:
 * wall-time:     0 d,  0 h,  0 min,  8.986 sec
 *  cpu-time:     0 d,  0 h,  0 min,  8.925 sec
 * ratio c/w:     0.993 speedup

