42
 energy: -83.592757737655 gnorm: 0.000760167418 xtb: 6.5.1 (579679a)
C           -3.86501642166514        3.92581916032168       -0.23128834109643
O           -2.98987394859374        2.84059448961410       -0.45182639666814
C           -3.34241616076002        1.65658101811113        0.21129283315941
O           -4.39848023880814        1.64913534929159        0.92420281354678
C           -2.48243028852956        0.57303043347053        0.02331914202503
C           -2.75168646037082       -0.69525164473432        0.66346296839256
O           -3.87053445490834       -0.80021932545544        1.45400896889417
C           -1.87807741598390       -1.72549515725677        0.44847590076616
O           -1.96813375875613       -3.01584787784789        0.95996519532304
C           -2.97066650435777       -3.33965868314559        1.89772763134365
N           -0.77406406227173       -1.58192489173392       -0.34480332251225
C           -0.59259622012785       -0.37719512359647       -0.90572836733687
C            0.64915733273470       -0.26755188635143       -1.79424001914398
C            0.57103305840755       -1.36735778853450       -2.86514059089508
C            0.72116164296225        1.12014888092991       -2.44733494977914
N            1.80798859131683       -0.49979252578371       -0.92346949379540
C            3.11688990303107       -0.33835236531092       -1.36977345707231
O            3.43046334781130       -0.36864427182562       -2.58645259992685
C            4.07678046009710       -0.20121836379814       -0.32186589366496
N            5.40844749879704       -0.08181264878761       -0.43611812583463
N            5.89527277945847        0.05555467971490        0.83474661835971
C            4.89051913752467        0.01721274791874        1.64693931802286
C            4.93257978566508        0.13530668376542        3.12652449382019
O            3.69884059379911       -0.14395050483455        1.01453636417926
N           -1.35007108694029        0.68310592469247       -0.78339777979396
H           -3.91581951988624        4.19046721431443        0.83270538974846
H           -3.47686845169944        4.77736159057038       -0.79358535677719
H           -4.88140360813740        3.69891761692174       -0.57794192856809
H           -4.30219396998169        0.11478566381889        1.41837489425538
H           -3.97698294662653       -3.27204420609926        1.46617394090374
H           -2.92292392440887       -2.70236426438967        2.78922437414316
H           -2.79147543298794       -4.37546412754171        2.19947614539794
H            1.45463151655251       -1.36143265186594       -3.50191815603206
H           -0.31063391951172       -1.20878857540649       -3.48662327120228
H            0.48461974229233       -2.34031563912500       -2.37919000136502
H            1.57341632235721        1.18755715850248       -3.12274372033764
H           -0.19326483554931        1.30301463050032       -3.01164827676633
H            0.80985523084412        1.88871298284150       -1.67938170883803
H            1.65590594413258       -0.25003855710802        0.04465355287116
H            4.52517354065631       -0.76013648348259        3.59601900032111
H            5.96239374390210        0.26917172506055        3.44769166230046
H            4.34048745852266        0.98838161366941        3.45888054962960
