21
 energy: -30.762188978011 gnorm: 0.000782359474 xtb: 6.5.1 (579679a)
C           -2.67162002778709       -0.44861841934831        0.43420328600197
C           -1.78522738554448        0.39302724603369       -0.53933928585937
F           -2.64726500024720        0.94348201173445       -1.44665636019805
C           -0.86206818350615       -0.57611830401692       -1.17121623770551
C            0.40198243487463       -0.72210349051642       -0.70266694717861
C            0.92228610463826        0.15313927812456        0.28605505769700
C            2.30100745704738       -0.00744981187987        0.78847926342542
N            3.08830753833232       -0.93984452128345        0.02746094663926
C            0.13191987566675        1.23864410560801        0.74931639728513
C           -1.13127169374937        1.42635095933856        0.29198731596466
H           -3.19900172526255       -1.19858268618832       -0.15083651110223
H           -3.38783609530523        0.22272602389918        0.90276026375454
H           -2.05888017522799       -0.92851374660593        1.19187975744680
H           -1.26786988321369       -1.21703574282208       -1.94502486569595
H            1.05602341202252       -1.49263558993062       -1.09521457124180
H            2.23116809725386       -0.35809593817128        1.82693002945882
H            2.78277533761960        0.98112737074928        0.84759971963321
H            3.28385451441554       -0.58026752195712       -0.89487891105493
H            3.95651679615093       -1.12924939012789        0.50466803950143
H            0.58138918253543        1.95582920586281        1.42668354185027
H           -1.72619158071346        2.28418896149709        0.58146307137808
