      -----------------------------------------------------------      
     |                   =====================                   |     
     |                           x T B                           |     
     |                   =====================                   |     
     |                         S. Grimme                         |     
     |          Mulliken Center for Theoretical Chemistry        |     
     |                    University of Bonn                     |     
      -----------------------------------------------------------      

   * xtb version 6.5.1 (579679a) compiled by 'ehlert@majestix' on 2022-07-11

   xtb is free software: you can redistribute it and/or modify it under
   the terms of the GNU Lesser General Public License as published by
   the Free Software Foundation, either version 3 of the License, or
   (at your option) any later version.
   
   xtb is distributed in the hope that it will be useful,
   but WITHOUT ANY WARRANTY; without even the implied warranty of
   MERCHANTABILITY or FITNESS FOR A PARTICULAR PURPOSE.  See the
   GNU Lesser General Public License for more details.
   
   Cite this work as:
   * C. Bannwarth, E. Caldeweyher, S. Ehlert, A. Hansen, P. Pracht,
     J. Seibert, S. Spicher, S. Grimme, WIREs Comput. Mol. Sci., 2020, 11,
     e01493. DOI: 10.1002/wcms.1493
   
   for GFN2-xTB:
   * C. Bannwarth, S. Ehlert and S. Grimme., J. Chem. Theory Comput., 2019,
     15, 1652-1671. DOI: 10.1021/acs.jctc.8b01176
   for GFN1-xTB:
   * S. Grimme, C. Bannwarth, P. Shushkov, J. Chem. Theory Comput., 2017,
     13, 1989-2009. DOI: 10.1021/acs.jctc.7b00118
   for GFN0-xTB:
   * P. Pracht, E. Caldeweyher, S. Ehlert, S. Grimme, ChemRxiv, 2019, preprint.
     DOI: 10.26434/chemrxiv.8326202.v1
   for GFN-FF:
   * S. Spicher and S. Grimme, Angew. Chem. Int. Ed., 2020, 59, 15665-15673.
     DOI: 10.1002/anie.202004239
   
   for ALPB and GBSA implicit solvation:
   * S. Ehlert, M. Stahn, S. Spicher, S. Grimme, J. Chem. Theory Comput.,
     2021, 17, 4250-4261. DOI: 10.1021/acs.jctc.1c00471
   
   for DFT-D4:
   * E. Caldeweyher, C. Bannwarth and S. Grimme, J. Chem. Phys., 2017,
     147, 034112. DOI: 10.1063/1.4993215
   * E. Caldeweyher, S. Ehlert, A. Hansen, H. Neugebauer, S. Spicher,
     C. Bannwarth and S. Grimme, J. Chem. Phys., 2019, 150, 154122.
     DOI: 10.1063/1.5090222
   * E. Caldeweyher, J.-M. Mewes, S. Ehlert and S. Grimme, Phys. Chem. Chem. Phys.
     2020, 22, 8499-8512. DOI: 10.1039/D0CP00502A
   
   for sTDA-xTB:
   * S. Grimme and C. Bannwarth, J. Chem. Phys., 2016, 145, 054103.
     DOI: 10.1063/1.4959605
   
   in the mass-spec context:
   * V. Asgeirsson, C. Bauer and S. Grimme, Chem. Sci., 2017, 8, 4879.
     DOI: 10.1039/c7sc00601b
   * J. Koopman and S. Grimme, ACS Omega 2019, 4, 12, 15120-15133.
     DOI: 10.1021/acsomega.9b02011
   
   for metadynamics refer to:
   * S. Grimme, J. Chem. Theory Comput., 2019, 155, 2847-2862
     DOI: 10.1021/acs.jctc.9b00143
   
   for SPH calculations refer to:
   * S. Spicher and S. Grimme, J. Chem. Theory Comput., 2021, 17, 1701-1714
     DOI: 10.1021/acs.jctc.0c01306
   
   with help from (in alphabetical order)
   P. Atkinson, C. Bannwarth, F. Bohle, G. Brandenburg, E. Caldeweyher
   M. Checinski, S. Dohm, S. Ehlert, S. Ehrlich, I. Gerasimov, C. Hölzer
   A. Katbashev, J. Koopman, C. Lavigne, S. Lehtola, F. März, M. Müller,
   F. Musil, H. Neugebauer, J. Pisarek, C. Plett, P. Pracht, F. Pultar,
   J. Seibert, P. Shushkov, S. Spicher, M. Stahn, M. Steiner, T. Strunk,
   J. Stückrath, T. Rose, and J. Unsleber
   
 * started run on 2023/06/21 at 17:00:47.756     

           -------------------------------------------------
          |                Calculation Setup                |
           -------------------------------------------------

          program call               : /lustre/hpc/kemi/ree/PhD/git/ReactivityQM/dep/xtb-6.5.1/bin/xtb --gfn 1 /lustre/hpc/kemi/ree/PhD/git/ReactivityQM/calculations/R02oxygendeprot/reac01prodE01/conf11/R02oxygendeprot_reac01prodE01_conf11_gfn1.xyz --opt --vfukui --chrg -2 --uhf 0 --alpb DMSO
          hostname                   : node070
          coordinate file            : /lustre/hpc/kemi/ree/PhD/git/ReactivityQM/calculations/R02oxygendeprot/reac01prodE01/conf11/R02oxygendeprot_reac01prodE01_conf11_gfn1.xyz
          omp threads                :                     1

   ID    Z sym.   atoms
    1    6 C      1, 3, 5, 7-10, 12, 13, 15, 18, 19, 22, 24
    2    8 O      2, 4, 14, 20, 23, 25
    3    7 N      6, 11, 16, 17, 21
    4    1 H      26-42

           -------------------------------------------------
          |                 G F N 1 - x T B                 |
           -------------------------------------------------

        Reference                      10.1021/acs.jctc.7b00118
      * Hamiltonian:
        H0-scaling (s, p, d)           1.850000    2.250000    2.000000
        zeta-weighting                 0.000000
      * Dispersion:
        s8                             2.400000
        a1                             0.630000
        a2                             5.000000
        s9                             0.000000
      * Repulsion:
        kExp                           1.500000
        rExp                           1.000000
      * Coulomb:
        alpha                          2.000000
        third order                    atomic
        anisotropic                    false
      * Halogen bond correction:
        rad-scale                      1.300000
        damping                        0.440000

      * Solvation model:               ALPB
        Solvent                        DMSO
        Parameter file                 internal GFN1-xTB/ALPB
        Dielectric constant                4.6680E+01
        Reference state                gsolv [1 M gas/solution]
        Free energy shift                  7.6243E-03 Eh       4.7843E+00 kcal/mol
        Temperature                        2.9815E+02 K
        Density                            1.1000E+00 kg/L
        Solvent mass                       7.8130E+01 g/mol
        Interaction kernel             P16
        Born radius scaling (c1)           1.7672E+00
        Born radii integrator          GBOBC
        Born offset                        0.0000E+00 a0       0.0000E+00 AA
        H-bond correction              true
        Ion screening                  false
        Surface tension                    1.0000E-05 Eh       1.5569E+01 dyn/cm
        Grid points                               230 per atom

          ...................................................
          :                      SETUP                      :
          :.................................................:
          :  # basis functions                 134          :
          :  # atomic orbitals                 134          :
          :  # shells                           84          :
          :  # electrons                       136          :
          :  # halogen bonds                     0          :
          :  max. iterations                   250          :
          :  Hamiltonian                  GFN1-xTB          :
          :  restarted?                      false          :
          :  GBSA solvation                   true          :
          :  PC potential                    false          :
          :  electronic temp.          300.0000000     K    :
          :  accuracy                    1.0000000          :
          :  -> integral cutoff          0.2500000E+02      :
          :  -> integral neglect         0.1000000E-07      :
          :  -> SCF convergence          0.1000000E-05 Eh   :
          :  -> wf. convergence          0.2000000E-04 e    :
          :  Broyden damping             0.4000000          :
          ...................................................

 iter      E             dE          RMSdq      gap      omega  full diag
   1    -84.0171206 -0.840171E+02  0.863E+00    2.79       0.0  T
   2    -84.3306423 -0.313522E+00  0.515E+00    2.37       1.0  T
   3    -84.3176416  0.130007E-01  0.166E+00    1.62       1.0  T
   4    -84.3500200 -0.323784E-01  0.226E-01    1.66       1.0  T
   5    -84.3516390 -0.161905E-02  0.519E-02    1.85       1.0  T
   6    -84.3517372 -0.981993E-04  0.122E-02    1.88       1.3  T
   7    -84.3517407 -0.343029E-05  0.402E-03    1.87       3.8  T
   8    -84.3517409 -0.249174E-06  0.148E-03    1.87      10.4  T
   9    -84.3517409 -0.255892E-07  0.546E-04    1.87      28.2  T
  10    -84.3517409 -0.369846E-08  0.136E-04    1.87     113.7  T
  11    -84.3517409 -0.124118E-09  0.342E-05    1.87     451.1  T

   *** convergence criteria satisfied after 11 iterations ***

         #    Occupation            Energy/Eh            Energy/eV
      -------------------------------------------------------------
         1        2.0000           -0.8159737             -22.2038
       ...           ...                  ...                  ...
        62        2.0000           -0.4024936             -10.9524
        63        2.0000           -0.3988838             -10.8542
        64        2.0000           -0.3659188              -9.9572
        65        2.0000           -0.3615024              -9.8370
        66        2.0000           -0.3487432              -9.4898
        67        2.0000           -0.3307643              -9.0006
        68        2.0000           -0.3292180              -8.9585 (HOMO)
        69                         -0.2604055              -7.0860 (LUMO)
        70                         -0.2358175              -6.4169
        71                         -0.2222938              -6.0489
        72                         -0.2070909              -5.6352
        73                         -0.1863609              -5.0711
       ...                                ...                  ...
       134                          0.7864637              21.4008
      -------------------------------------------------------------
                  HL-Gap            0.0688126 Eh            1.8725 eV
             Fermi-level           -0.2948118 Eh           -8.0222 eV

 SCC (total)                   0 d,  0 h,  0 min,  0.143 sec
 SCC setup                      ...        0 min,  0.002 sec (  1.263%)
 Dispersion                     ...        0 min,  0.000 sec (  0.187%)
 classical contributions        ...        0 min,  0.000 sec (  0.071%)
 integral evaluation            ...        0 min,  0.025 sec ( 17.353%)
 iterations                     ...        0 min,  0.058 sec ( 40.253%)
 molecular gradient             ...        0 min,  0.057 sec ( 40.033%)
 printout                       ...        0 min,  0.001 sec (  0.826%)

         :::::::::::::::::::::::::::::::::::::::::::::::::::::
         ::                     SUMMARY                     ::
         :::::::::::::::::::::::::::::::::::::::::::::::::::::
         :: total energy             -83.631175814943 Eh    ::
         :: total w/o Gsasa/hb       -83.612018194294 Eh    ::
         :: gradient norm              0.114001320174 Eh/a0 ::
         :: HOMO-LUMO gap              1.872485046665 eV    ::
         ::.................................................::
         :: SCC energy               -84.351740948347 Eh    ::
         :: -> electrostatic           0.704906607666 Eh    ::
         :: -> Gsolv                  -0.265179373823 Eh    ::
         ::    -> Gelec               -0.246021753174 Eh    ::
         ::    -> Gsasa               -0.024247873763 Eh    ::
         ::    -> Ghb                 -0.002534025891 Eh    ::
         ::    -> Gshift               0.007624279005 Eh    ::
         :: repulsion energy           0.746387698200 Eh    ::
         :: dispersion energy         -0.025822564796 Eh    ::
         :: halogen bond corr.         0.000000000000 Eh    ::
         :: add. restraining           0.000000000000 Eh    ::
         :: total charge              -2.000000000000 e     ::
         :::::::::::::::::::::::::::::::::::::::::::::::::::::

      ----------------------------------------------------------- 
     |                   =====================                   |
     |                        A N C O P T                        |
     |                   =====================                   |
     |               Approximate Normal Coordinate               |
     |                Rational Function Optimizer                |
      ----------------------------------------------------------- 

          ...................................................
          :                      SETUP                      :
          :.................................................:
          :   optimization level            normal          :
          :   max. optcycles                   200          :
          :   ANC micro-cycles                  20          :
          :   degrees of freedom               120          :
          :.................................................:
          :   RF solver                   davidson          :
          :   write xtbopt.log                true          :
          :   linear?                        false          :
          :   energy convergence         0.5000000E-05 Eh   :
          :   grad. convergence          0.1000000E-02 Eh/α :
          :   maximium RF displ.         1.0000000          :
          :   Hlow (freq-cutoff)         0.1000000E-01      :
          :   Hmax (freq-cutoff)         5.0000000          :
          :   S6 in model hess.         20.0000000          :
          ...................................................

generating ANC from model Hessian ...
Using Lindh-Hessian (1995)
 Shifting diagonal of input Hessian by   9.817668117499317E-003
 Lowest  eigenvalues of input Hessian
    0.000000    0.000000    0.000000    0.000000    0.000000    0.000000
    0.010000    0.010106    0.010426    0.010882    0.011486    0.012128
    0.012516    0.013033    0.014234    0.015050    0.015370    0.015415
 Highest eigenvalues
    1.928739    2.045953    2.059507    2.180658    2.291312    2.392423
 

........................................................................
.............................. CYCLE    1 ..............................
........................................................................
   1    -84.3517409 -0.843517E+02  0.105E-05    1.87       0.0  T
   2    -84.3517409 -0.129319E-11  0.556E-06    1.87    2773.2  T
   3    -84.3517409  0.284217E-13  0.305E-06    1.87    5066.4  T
     SCC iter.                  ...        0 min,  0.010 sec
     gradient                   ...        0 min,  0.044 sec
 * total energy  :   -83.6311758 Eh     change       -0.2260947E-10 Eh
   gradient norm :     0.1140011 Eh/α   predicted     0.0000000E+00 (-100.00%)
   displ. norm   :     0.3038316 α      lambda       -0.1722219E-01
   maximum displ.:     0.1216680 α      in ANC's #23, #13, #30, ...

........................................................................
.............................. CYCLE    2 ..............................
........................................................................
   1    -84.3639848 -0.843640E+02  0.923E-02    1.95       0.0  T
   2    -84.3643027 -0.317942E-03  0.438E-02    2.04       1.0  T
   3    -84.3643480 -0.452319E-04  0.181E-02    2.06       1.0  T
   4    -84.3643485 -0.539636E-06  0.640E-03    2.07       2.4  T
   5    -84.3643487 -0.168953E-06  0.940E-04    2.07      16.4  T
   6    -84.3643487 -0.270601E-07  0.384E-04    2.07      40.2  T
   7    -84.3643487 -0.246447E-08  0.100E-04    2.07     153.8  T
   8    -84.3643487 -0.150919E-09  0.250E-05    2.07     618.1  T
     SCC iter.                  ...        0 min,  0.038 sec
     gradient                   ...        0 min,  0.033 sec
 * total energy  :   -83.6428129 Eh     change       -0.1163708E-01 Eh
   gradient norm :     0.0583018 Eh/α   predicted    -0.9417370E-02 ( -19.07%)
   displ. norm   :     0.3015358 α      lambda       -0.6106561E-02
   maximum displ.:     0.1234993 α      in ANC's #23, #13, #14, ...

........................................................................
.............................. CYCLE    3 ..............................
........................................................................
   1    -84.3747082 -0.843747E+02  0.733E-02    2.07       0.0  T
   2    -84.3749694 -0.261180E-03  0.325E-02    2.16       1.0  T
   3    -84.3749957 -0.262360E-04  0.123E-02    2.18       1.3  T
   4    -84.3749959 -0.261247E-06  0.643E-03    2.19       2.4  T
   5    -84.3749960 -0.103660E-06  0.691E-04    2.19      22.3  T
   6    -84.3749960 -0.117787E-07  0.218E-04    2.19      70.9  T
   7    -84.3749960 -0.927656E-09  0.575E-05    2.19     268.2  T
   8    -84.3749960 -0.937632E-10  0.204E-05    2.19     758.0  T
     SCC iter.                  ...        0 min,  0.025 sec
     gradient                   ...        0 min,  0.035 sec
 * total energy  :   -83.6466201 Eh     change       -0.3807248E-02 Eh
   gradient norm :     0.0206301 Eh/α   predicted    -0.3330898E-02 ( -12.51%)
   displ. norm   :     0.2693540 α      lambda       -0.1423772E-02
   maximum displ.:     0.1001677 α      in ANC's #8, #10, #3, ...

........................................................................
.............................. CYCLE    4 ..............................
........................................................................
   1    -84.3784767 -0.843785E+02  0.297E-02    2.18       0.0  T
   2    -84.3785217 -0.449894E-04  0.139E-02    2.22       1.1  T
   3    -84.3785251 -0.345568E-05  0.628E-03    2.23       2.5  T
   4    -84.3785252 -0.513505E-07  0.317E-03    2.23       4.9  T
   5    -84.3785252 -0.320365E-07  0.331E-04    2.23      46.6  T
   6    -84.3785252 -0.245836E-08  0.933E-05    2.23     165.4  T
   7    -84.3785252 -0.156334E-09  0.252E-05    2.23     613.0  T
     SCC iter.                  ...        0 min,  0.022 sec
     gradient                   ...        0 min,  0.038 sec
 * total energy  :   -83.6476535 Eh     change       -0.1033374E-02 Eh
   gradient norm :     0.0093119 Eh/α   predicted    -0.7637144E-03 ( -26.10%)
   displ. norm   :     0.3454222 α      lambda       -0.9724816E-03
   maximum displ.:     0.1360940 α      in ANC's #8, #3, #6, ...

........................................................................
.............................. CYCLE    5 ..............................
........................................................................
   1    -84.3799368 -0.843799E+02  0.184E-02    2.23       0.0  T
   2    -84.3799505 -0.137437E-04  0.100E-02    2.25       1.5  T
   3    -84.3799517 -0.121590E-05  0.512E-03    2.25       3.0  T
   4    -84.3799518 -0.126916E-07  0.183E-03    2.26       8.4  T
   5    -84.3799518 -0.199897E-07  0.181E-04    2.26      85.5  T
   6    -84.3799518 -0.763350E-09  0.687E-05    2.26     224.7  T
     SCC iter.                  ...        0 min,  0.032 sec
     gradient                   ...        0 min,  0.048 sec
 * total energy  :   -83.6483435 Eh     change       -0.6899548E-03 Eh
   gradient norm :     0.0094705 Eh/α   predicted    -0.5442585E-03 ( -21.12%)
   displ. norm   :     0.3304635 α      lambda       -0.5548543E-03
   maximum displ.:     0.1273886 α      in ANC's #8, #3, #6, ...

........................................................................
.............................. CYCLE    6 ..............................
........................................................................
   1    -84.3802528 -0.843803E+02  0.883E-03    2.26       0.0  T
   2    -84.3802545 -0.164546E-05  0.464E-03    2.26       3.3  T
   3    -84.3802546 -0.153136E-06  0.248E-03    2.26       6.2  T
   4    -84.3802546 -0.134383E-07  0.511E-04    2.26      30.2  T
   5    -84.3802546 -0.265800E-08  0.118E-04    2.26     130.3  T
   6    -84.3802546 -0.148816E-09  0.350E-05    2.26     441.3  T
     SCC iter.                  ...        0 min,  0.031 sec
     gradient                   ...        0 min,  0.056 sec
 * total energy  :   -83.6487472 Eh     change       -0.4037723E-03 Eh
   gradient norm :     0.0097285 Eh/α   predicted    -0.3077334E-03 ( -23.79%)
   displ. norm   :     0.3016215 α      lambda       -0.3698105E-03
   maximum displ.:     0.1230054 α      in ANC's #3, #2, #6, ...

........................................................................
.............................. CYCLE    7 ..............................
........................................................................
   1    -84.3807576 -0.843808E+02  0.106E-02    2.26       0.0  T
   2    -84.3807631 -0.550634E-05  0.399E-03    2.25       3.9  T
   3    -84.3807636 -0.455343E-06  0.194E-03    2.25       8.0  T
   4    -84.3807636 -0.262102E-07  0.917E-04    2.25      16.8  T
   5    -84.3807636 -0.129432E-08  0.200E-04    2.25      77.3  T
   6    -84.3807636 -0.704262E-09  0.459E-05    2.25     336.1  T
     SCC iter.                  ...        0 min,  0.032 sec
     gradient                   ...        0 min,  0.056 sec
 * total energy  :   -83.6490134 Eh     change       -0.2661724E-03 Eh
   gradient norm :     0.0067587 Eh/α   predicted    -0.2017274E-03 ( -24.21%)
   displ. norm   :     0.2468144 α      lambda       -0.2299207E-03
   maximum displ.:     0.1226553 α      in ANC's #2, #3, #5, ...

........................................................................
.............................. CYCLE    8 ..............................
........................................................................
   1    -84.3816213 -0.843816E+02  0.109E-02    2.25       0.0  T
   2    -84.3816273 -0.605086E-05  0.489E-03    2.24       3.2  T
   3    -84.3816280 -0.642642E-06  0.225E-03    2.24       6.8  T
   4    -84.3816280 -0.184267E-07  0.106E-03    2.24      14.5  T
   5    -84.3816280 -0.309687E-08  0.172E-04    2.24      89.7  T
   6    -84.3816280 -0.755634E-09  0.439E-05    2.24     351.3  T
     SCC iter.                  ...        0 min,  0.031 sec
     gradient                   ...        0 min,  0.056 sec
 * total energy  :   -83.6491818 Eh     change       -0.1683403E-03 Eh
   gradient norm :     0.0038335 Eh/α   predicted    -0.1219646E-03 ( -27.55%)
   displ. norm   :     0.2238336 α      lambda       -0.1613196E-03
   maximum displ.:     0.1275320 α      in ANC's #2, #3, #7, ...

........................................................................
.............................. CYCLE    9 ..............................
........................................................................
   1    -84.3823191 -0.843823E+02  0.834E-03    2.24       0.0  T
   2    -84.3823222 -0.304775E-05  0.419E-03    2.23       3.7  T
   3    -84.3823225 -0.356375E-06  0.207E-03    2.23       7.4  T
   4    -84.3823225 -0.699423E-08  0.813E-04    2.23      19.0  T
   5    -84.3823225 -0.344866E-08  0.116E-04    2.23     132.7  T
   6    -84.3823225 -0.408505E-09  0.319E-05    2.23     483.1  T
     SCC iter.                  ...        0 min,  0.031 sec
     gradient                   ...        0 min,  0.057 sec
 * total energy  :   -83.6493047 Eh     change       -0.1229655E-03 Eh
   gradient norm :     0.0041252 Eh/α   predicted    -0.8470203E-04 ( -31.12%)
   displ. norm   :     0.2290631 α      lambda       -0.1412318E-03
   maximum displ.:     0.1369508 α      in ANC's #2, #3, #7, ...

........................................................................
.............................. CYCLE   10 ..............................
........................................................................
   1    -84.3826725 -0.843827E+02  0.521E-03    2.23       0.0  T
   2    -84.3826733 -0.853647E-06  0.265E-03    2.23       5.8  T
   3    -84.3826734 -0.680102E-07  0.142E-03    2.23      10.9  T
   4    -84.3826734 -0.317763E-08  0.474E-04    2.23      32.5  T
   5    -84.3826734 -0.225189E-08  0.625E-05    2.23     246.8  T
   6    -84.3826734 -0.120110E-09  0.227E-05    2.23     679.4  T
     SCC iter.                  ...        0 min,  0.030 sec
     gradient                   ...        0 min,  0.057 sec
 * total energy  :   -83.6494175 Eh     change       -0.1127936E-03 Eh
   gradient norm :     0.0053023 Eh/α   predicted    -0.7432217E-04 ( -34.11%)
   displ. norm   :     0.2724178 α      lambda       -0.1570335E-03
   maximum displ.:     0.1628038 α      in ANC's #2, #3, #1, ...

........................................................................
.............................. CYCLE   11 ..............................
........................................................................
   1    -84.3826341 -0.843826E+02  0.418E-03    2.23       0.0  T
   2    -84.3826348 -0.682598E-06  0.166E-03    2.23       9.3  T
   3    -84.3826348 -0.379581E-07  0.973E-04    2.23      15.9  T
   4    -84.3826348 -0.352337E-08  0.379E-04    2.23      40.8  T
   5    -84.3826348 -0.607614E-09  0.891E-05    2.23     173.2  T
   6    -84.3826348 -0.240945E-09  0.192E-05    2.23     802.7  T
     SCC iter.                  ...        0 min,  0.030 sec
     gradient                   ...        0 min,  0.047 sec
 * total energy  :   -83.6495471 Eh     change       -0.1295834E-03 Eh
   gradient norm :     0.0055452 Eh/α   predicted    -0.8434993E-04 ( -34.91%)
   displ. norm   :     0.3381510 α      lambda       -0.1813383E-03
   maximum displ.:     0.2012106 α      in ANC's #2, #1, #3, ...

........................................................................
.............................. CYCLE   12 ..............................
........................................................................
   1    -84.3820613 -0.843821E+02  0.568E-03    2.23       0.0  T
   2    -84.3820631 -0.176692E-05  0.241E-03    2.23       6.4  T
   3    -84.3820633 -0.181990E-06  0.111E-03    2.23      13.9  T
   4    -84.3820633 -0.767490E-08  0.534E-04    2.23      28.9  T
   5    -84.3820633 -0.575113E-09  0.116E-04    2.23     133.1  T
   6    -84.3820633 -0.266297E-09  0.234E-05    2.23     659.1  T
     SCC iter.                  ...        0 min,  0.031 sec
     gradient                   ...        0 min,  0.048 sec
 * total energy  :   -83.6496911 Eh     change       -0.1440002E-03 Eh
   gradient norm :     0.0052050 Eh/α   predicted    -0.1010509E-03 ( -29.83%)
   displ. norm   :     0.3397087 α      lambda       -0.1660744E-03
   maximum displ.:     0.2049878 α      in ANC's #2, #1, #3, ...

........................................................................
.............................. CYCLE   13 ..............................
........................................................................
   1    -84.3818101 -0.843818E+02  0.624E-03    2.24       0.0  T
   2    -84.3818121 -0.201627E-05  0.296E-03    2.24       5.2  T
   3    -84.3818123 -0.228078E-06  0.132E-03    2.24      11.7  T
   4    -84.3818123 -0.645213E-08  0.626E-04    2.24      24.7  T
   5    -84.3818123 -0.167260E-08  0.109E-04    2.24     141.6  T
   6    -84.3818123 -0.246771E-09  0.241E-05    2.24     641.6  T
     SCC iter.                  ...        0 min,  0.032 sec
     gradient                   ...        0 min,  0.059 sec
 * total energy  :   -83.6498228 Eh     change       -0.1317065E-03 Eh
   gradient norm :     0.0046117 Eh/α   predicted    -0.9262141E-04 ( -29.68%)
   displ. norm   :     0.3385449 α      lambda       -0.1534759E-03
   maximum displ.:     0.2070710 α      in ANC's #2, #1, #3, ...

........................................................................
.............................. CYCLE   14 ..............................
........................................................................
   1    -84.3817852 -0.843818E+02  0.571E-03    2.24       0.0  T
   2    -84.3817864 -0.121190E-05  0.273E-03    2.25       5.6  T
   3    -84.3817865 -0.106245E-06  0.129E-03    2.25      12.0  T
   4    -84.3817865 -0.380658E-08  0.587E-04    2.25      26.3  T
   5    -84.3817865 -0.232461E-08  0.793E-05    2.25     194.7  T
   6    -84.3817865 -0.130413E-09  0.236E-05    2.25     653.3  T
     SCC iter.                  ...        0 min,  0.032 sec
     gradient                   ...        0 min,  0.058 sec
 * total energy  :   -83.6499360 Eh     change       -0.1132107E-03 Eh
   gradient norm :     0.0043619 Eh/α   predicted    -0.8553610E-04 ( -24.45%)
   displ. norm   :     0.2570959 α      lambda       -0.1131563E-03
   maximum displ.:     0.1590186 α      in ANC's #2, #1, #3, ...

........................................................................
.............................. CYCLE   15 ..............................
........................................................................
   1    -84.3829907 -0.843830E+02  0.551E-03    2.26       0.0  T
   2    -84.3829917 -0.102085E-05  0.213E-03    2.26       7.2  T
   3    -84.3829918 -0.598891E-07  0.111E-03    2.26      13.9  T
   4    -84.3829918 -0.292239E-08  0.441E-04    2.26      35.0  T
   5    -84.3829918 -0.931792E-09  0.607E-05    2.26     254.2  T
   6    -84.3829918 -0.694769E-10  0.205E-05    2.26     752.4  T
     SCC iter.                  ...        0 min,  0.032 sec
     gradient                   ...        0 min,  0.056 sec
 * total energy  :   -83.6500198 Eh     change       -0.8376717E-04 Eh
   gradient norm :     0.0041787 Eh/α   predicted    -0.6032126E-04 ( -27.99%)
   displ. norm   :     0.2933396 α      lambda       -0.1019368E-03
   maximum displ.:     0.1802925 α      in ANC's #2, #1, #3, ...

........................................................................
.............................. CYCLE   16 ..............................
........................................................................
   1    -84.3823932 -0.843824E+02  0.551E-03    2.25       0.0  T
   2    -84.3823942 -0.103899E-05  0.210E-03    2.25       7.3  T
   3    -84.3823944 -0.137714E-06  0.102E-03    2.25      15.1  T
   4    -84.3823944 -0.624934E-08  0.389E-04    2.25      39.7  T
   5    -84.3823944 -0.335461E-09  0.102E-04    2.25     151.9  T
   6    -84.3823944 -0.203656E-09  0.191E-05    2.25     808.0  T
     SCC iter.                  ...        0 min,  0.030 sec
     gradient                   ...        0 min,  0.055 sec
 * total energy  :   -83.6500991 Eh     change       -0.7927710E-04 Eh
   gradient norm :     0.0039399 Eh/α   predicted    -0.5535509E-04 ( -30.18%)
   displ. norm   :     0.2821462 α      lambda       -0.1115690E-03
   maximum displ.:     0.1874710 α      in ANC's #1, #2, #3, ...

........................................................................
.............................. CYCLE   17 ..............................
........................................................................
   1    -84.3843039 -0.843843E+02  0.608E-03    2.25       0.0  T
   2    -84.3843052 -0.124184E-05  0.270E-03    2.25       5.7  T
   3    -84.3843053 -0.905711E-07  0.148E-03    2.25      10.4  T
   4    -84.3843053 -0.339557E-08  0.434E-04    2.25      35.6  T
   5    -84.3843053 -0.570950E-09  0.651E-05    2.25     236.9  T
   6    -84.3843053 -0.103796E-09  0.183E-05    2.25     841.2  T
     SCC iter.                  ...        0 min,  0.031 sec
     gradient                   ...        0 min,  0.057 sec
 * total energy  :   -83.6501770 Eh     change       -0.7792961E-04 Eh
   gradient norm :     0.0048523 Eh/α   predicted    -0.6022643E-04 ( -22.72%)
   displ. norm   :     0.3189406 α      lambda       -0.9471668E-04
   maximum displ.:     0.2079586 α      in ANC's #1, #2, #3, ...

........................................................................
.............................. CYCLE   18 ..............................
........................................................................
   1    -84.3827415 -0.843827E+02  0.589E-03    2.24       0.0  T
   2    -84.3827426 -0.111756E-05  0.287E-03    2.24       5.4  T
   3    -84.3827428 -0.159034E-06  0.140E-03    2.24      11.0  T
   4    -84.3827428 -0.384166E-08  0.412E-04    2.24      37.5  T
   5    -84.3827428 -0.126232E-08  0.885E-05    2.24     174.4  T
   6    -84.3827428 -0.166409E-09  0.275E-05    2.24     561.7  T
     SCC iter.                  ...        0 min,  0.031 sec
     gradient                   ...        0 min,  0.058 sec
 * total energy  :   -83.6502437 Eh     change       -0.6672464E-04 Eh
   gradient norm :     0.0045062 Eh/α   predicted    -0.5217671E-04 ( -21.80%)
   displ. norm   :     0.1942703 α      lambda       -0.8358843E-04
   maximum displ.:     0.1426348 α      in ANC's #1, #2, #7, ...

........................................................................
.............................. CYCLE   19 ..............................
........................................................................
   1    -84.3834493 -0.843834E+02  0.390E-03    2.24       0.0  T
   2    -84.3834497 -0.422840E-06  0.173E-03    2.24       8.9  T
   3    -84.3834498 -0.266602E-07  0.994E-04    2.24      15.5  T
   4    -84.3834498 -0.361248E-08  0.287E-04    2.24      53.8  T
   5    -84.3834498 -0.909438E-09  0.514E-05    2.24     300.4  T
   6    -84.3834498 -0.695906E-10  0.120E-05    2.24    1289.0  T
     SCC iter.                  ...        0 min,  0.032 sec
     gradient                   ...        0 min,  0.056 sec
 * total energy  :   -83.6503131 Eh     change       -0.6937031E-04 Eh
   gradient norm :     0.0033881 Eh/α   predicted    -0.4337251E-04 ( -37.48%)
   displ. norm   :     0.2855128 α      lambda       -0.1142246E-03
   maximum displ.:     0.2072674 α      in ANC's #1, #2, #7, ...

........................................................................
.............................. CYCLE   20 ..............................
........................................................................
   1    -84.3840731 -0.843841E+02  0.681E-03    2.24       0.0  T
   2    -84.3840754 -0.220946E-05  0.280E-03    2.24       5.5  T
   3    -84.3840756 -0.290107E-06  0.139E-03    2.24      11.1  T
   4    -84.3840757 -0.992809E-08  0.616E-04    2.24      25.1  T
   5    -84.3840757 -0.565279E-09  0.106E-04    2.24     144.9  T
   6    -84.3840757 -0.323411E-09  0.197E-05    2.24     782.5  T
     SCC iter.                  ...        0 min,  0.030 sec
     gradient                   ...        0 min,  0.055 sec
 * total energy  :   -83.6504003 Eh     change       -0.8721385E-04 Eh
   gradient norm :     0.0038634 Eh/α   predicted    -0.6177174E-04 ( -29.17%)
   displ. norm   :     0.2874110 α      lambda       -0.1018398E-03
   maximum displ.:     0.2171471 α      in ANC's #1, #2, #7, ...
 * RMSD in coord.:     0.6740905 α      energy gain  -0.1922449E-01 Eh

generating ANC from model Hessian ...
Using Lindh-Hessian (1995)
 Shifting diagonal of input Hessian by   9.803202521828898E-003
 Lowest  eigenvalues of input Hessian
    0.000000    0.000000    0.000000    0.000000    0.000000    0.000000
    0.010000    0.010089    0.010545    0.010705    0.011522    0.012082
    0.012588    0.012943    0.014078    0.014951    0.015191    0.015851
 Highest eigenvalues
    2.003602    2.075169    2.108218    2.199289    2.325364    2.358044
 

........................................................................
.............................. CYCLE   21 ..............................
........................................................................
   1    -84.3836915 -0.843837E+02  0.609E-03    2.23       0.0  T
   2    -84.3836932 -0.162867E-05  0.258E-03    2.24       6.0  T
   3    -84.3836932 -0.728544E-07  0.138E-03    2.24      11.2  T
   4    -84.3836932 -0.245305E-08  0.546E-04    2.24      28.3  T
   5    -84.3836932 -0.108477E-08  0.728E-05    2.24     211.8  T
   6    -84.3836932 -0.179995E-09  0.243E-05    2.24     635.1  T
     SCC iter.                  ...        0 min,  0.025 sec
     gradient                   ...        0 min,  0.055 sec
 * total energy  :   -83.6504718 Eh     change       -0.7149947E-04 Eh
   gradient norm :     0.0040409 Eh/α   predicted     0.0000000E+00 (-100.00%)
   displ. norm   :     0.0359345 α      lambda       -0.3631528E-04
   maximum displ.:     0.0227567 α      in ANC's #1, #3, #11, ...

........................................................................
.............................. CYCLE   22 ..............................
........................................................................
   1    -84.3837782 -0.843838E+02  0.274E-03    2.24       0.0  T
   2    -84.3837785 -0.251295E-06  0.128E-03    2.24      12.1  T
   3    -84.3837785 -0.108289E-07  0.733E-04    2.24      21.1  T
   4    -84.3837785 -0.213987E-08  0.242E-04    2.24      63.7  T
   5    -84.3837785 -0.453014E-09  0.434E-05    2.24     355.2  T
   6    -84.3837785 -0.650147E-10  0.863E-06    2.24    1787.7  T
     SCC iter.                  ...        0 min,  0.024 sec
     gradient                   ...        0 min,  0.033 sec
 * total energy  :   -83.6505023 Eh     change       -0.3046411E-04 Eh
   gradient norm :     0.0020298 Eh/α   predicted    -0.1913933E-04 ( -37.17%)
   displ. norm   :     0.0923593 α      lambda       -0.5511324E-04
   maximum displ.:     0.0585004 α      in ANC's #1, #3, #11, ...

........................................................................
.............................. CYCLE   23 ..............................
........................................................................
   1    -84.3836929 -0.843837E+02  0.487E-03    2.24       0.0  T
   2    -84.3836938 -0.908464E-06  0.221E-03    2.24       7.0  T
   3    -84.3836939 -0.600123E-07  0.132E-03    2.24      11.7  T
   4    -84.3836939 -0.911797E-08  0.491E-04    2.24      31.4  T
   5    -84.3836939 -0.107403E-08  0.727E-05    2.24     212.1  T
   6    -84.3836939 -0.159503E-09  0.136E-05    2.24    1136.8  T
     SCC iter.                  ...        0 min,  0.019 sec
     gradient                   ...        0 min,  0.040 sec
 * total energy  :   -83.6505387 Eh     change       -0.3641645E-04 Eh
   gradient norm :     0.0019034 Eh/α   predicted    -0.2779194E-04 ( -23.68%)
   displ. norm   :     0.1247709 α      lambda       -0.2686821E-04
   maximum displ.:     0.0823689 α      in ANC's #1, #3, #11, ...

........................................................................
.............................. CYCLE   24 ..............................
........................................................................
   1    -84.3834472 -0.843834E+02  0.369E-03    2.25       0.0  T
   2    -84.3834478 -0.541472E-06  0.174E-03    2.25       8.9  T
   3    -84.3834478 -0.564897E-07  0.102E-03    2.25      15.1  T
   4    -84.3834478 -0.452640E-08  0.364E-04    2.25      42.4  T
   5    -84.3834478 -0.485983E-09  0.458E-05    2.25     337.2  T
   6    -84.3834478 -0.620162E-10  0.109E-05    2.25    1412.4  T
     SCC iter.                  ...        0 min,  0.018 sec
     gradient                   ...        0 min,  0.032 sec
 * total energy  :   -83.6505674 Eh     change       -0.2876411E-04 Eh
   gradient norm :     0.0033000 Eh/α   predicted    -0.1367585E-04 ( -52.46%)
   displ. norm   :     0.0909512 α      lambda       -0.3109359E-04
   maximum displ.:     0.0607961 α      in ANC's #1, #3, #11, ...

........................................................................
.............................. CYCLE   25 ..............................
........................................................................
   1    -84.3834367 -0.843834E+02  0.143E-03    2.25       0.0  T
   2    -84.3834367 -0.605591E-07  0.761E-04    2.25      20.3  T
   3    -84.3834368 -0.679502E-08  0.423E-04    2.25      36.5  T
   4    -84.3834368 -0.498829E-09  0.107E-04    2.25     144.8  T
   5    -84.3834368 -0.133198E-09  0.191E-05    2.25     808.3  T
     SCC iter.                  ...        0 min,  0.015 sec
     gradient                   ...        0 min,  0.031 sec
 * total energy  :   -83.6505943 Eh     change       -0.2687610E-04 Eh
   gradient norm :     0.0028349 Eh/α   predicted    -0.1567692E-04 ( -41.67%)
   displ. norm   :     0.1814246 α      lambda       -0.5883412E-04
   maximum displ.:     0.1218113 α      in ANC's #1, #3, #11, ...

........................................................................
.............................. CYCLE   26 ..............................
........................................................................
   1    -84.3834444 -0.843834E+02  0.282E-03    2.24       0.0  T
   2    -84.3834446 -0.244991E-06  0.141E-03    2.24      11.0  T
   3    -84.3834446 -0.153957E-07  0.740E-04    2.24      20.8  T
   4    -84.3834446 -0.119273E-08  0.255E-04    2.25      60.4  T
   5    -84.3834446 -0.362093E-09  0.356E-05    2.25     433.2  T
   6    -84.3834446 -0.262759E-10  0.134E-05    2.25    1154.5  T
     SCC iter.                  ...        0 min,  0.018 sec
     gradient                   ...        0 min,  0.032 sec
 * total energy  :   -83.6506396 Eh     change       -0.4532334E-04 Eh
   gradient norm :     0.0017742 Eh/α   predicted    -0.3038667E-04 ( -32.96%)
   displ. norm   :     0.2889667 α      lambda       -0.4505369E-04
   maximum displ.:     0.1992177 α      in ANC's #1, #3, #11, ...

........................................................................
.............................. CYCLE   27 ..............................
........................................................................
   1    -84.3831414 -0.843831E+02  0.380E-03    2.24       0.0  T
   2    -84.3831419 -0.478387E-06  0.173E-03    2.24       8.9  T
   3    -84.3831420 -0.460483E-07  0.859E-04    2.24      18.0  T
   4    -84.3831420 -0.165723E-08  0.326E-04    2.24      47.3  T
   5    -84.3831420 -0.424393E-09  0.478E-05    2.24     322.5  T
   6    -84.3831420 -0.325855E-10  0.163E-05    2.24     943.9  T
     SCC iter.                  ...        0 min,  0.021 sec
     gradient                   ...        0 min,  0.047 sec
 * total energy  :   -83.6506834 Eh     change       -0.4375955E-04 Eh
   gradient norm :     0.0029530 Eh/α   predicted    -0.2336826E-04 ( -46.60%)
   displ. norm   :     0.0854570 α      lambda       -0.2704538E-04
   maximum displ.:     0.0642152 α      in ANC's #1, #3, #11, ...

........................................................................
.............................. CYCLE   28 ..............................
........................................................................
   1    -84.3837821 -0.843838E+02  0.193E-03    2.24       0.0  T
   2    -84.3837822 -0.549244E-07  0.926E-04    2.24      16.7  T
   3    -84.3837822 -0.225175E-08  0.521E-04    2.24      29.6  T
   4    -84.3837822 -0.147234E-08  0.110E-04    2.24     139.7  T
   5    -84.3837822 -0.146386E-09  0.169E-05    2.24     913.1  T
     SCC iter.                  ...        0 min,  0.016 sec
     gradient                   ...        0 min,  0.049 sec
 * total energy  :   -83.6507075 Eh     change       -0.2405004E-04 Eh
   gradient norm :     0.0023473 Eh/α   predicted    -0.1362643E-04 ( -43.34%)
   displ. norm   :     0.1909581 α      lambda       -0.6304706E-04
   maximum displ.:     0.1420556 α      in ANC's #1, #2, #13, ...

........................................................................
.............................. CYCLE   29 ..............................
........................................................................
   1    -84.3845268 -0.843845E+02  0.366E-03    2.24       0.0  T
   2    -84.3845271 -0.312425E-06  0.170E-03    2.24       9.1  T
   3    -84.3845271 -0.170122E-07  0.993E-04    2.24      15.5  T
   4    -84.3845271 -0.366558E-08  0.271E-04    2.24      56.9  T
   5    -84.3845271 -0.416648E-09  0.357E-05    2.24     432.1  T
   6    -84.3845271 -0.248974E-10  0.125E-05    2.24    1236.4  T
     SCC iter.                  ...        0 min,  0.033 sec
     gradient                   ...        0 min,  0.061 sec
 * total energy  :   -83.6507572 Eh     change       -0.4978512E-04 Eh
   gradient norm :     0.0017074 Eh/α   predicted    -0.3267667E-04 ( -34.36%)
   displ. norm   :     0.3634636 α      lambda       -0.5357608E-04
   maximum displ.:     0.2717653 α      in ANC's #1, #2, #5, ...

........................................................................
.............................. CYCLE   30 ..............................
........................................................................
   1    -84.3835989 -0.843836E+02  0.481E-03    2.24       0.0  T
   2    -84.3835993 -0.393393E-06  0.238E-03    2.23       6.5  T
   3    -84.3835993 -0.112235E-07  0.112E-03    2.23      13.8  T
   4    -84.3835993 -0.347201E-08  0.307E-04    2.23      50.3  T
   5    -84.3835993 -0.128942E-08  0.587E-05    2.23     262.7  T
   6    -84.3835993 -0.397762E-10  0.164E-05    2.23     942.3  T
     SCC iter.                  ...        0 min,  0.032 sec
     gradient                   ...        0 min,  0.058 sec
 * total energy  :   -83.6508066 Eh     change       -0.4937494E-04 Eh
   gradient norm :     0.0033925 Eh/α   predicted    -0.2836538E-04 ( -42.55%)
   displ. norm   :     0.1014973 α      lambda       -0.2614341E-04
   maximum displ.:     0.0779303 α      in ANC's #1, #2, #5, ...

........................................................................
.............................. CYCLE   31 ..............................
........................................................................
   1    -84.3840741 -0.843841E+02  0.214E-03    2.23       0.0  T
   2    -84.3840742 -0.118910E-06  0.922E-04    2.23      16.7  T
   3    -84.3840742 -0.192501E-07  0.429E-04    2.23      36.0  T
   4    -84.3840742 -0.260457E-09  0.668E-05    2.23     231.0  T
   5    -84.3840742 -0.214442E-10  0.157E-05    2.23     985.9  T
     SCC iter.                  ...        0 min,  0.026 sec
     gradient                   ...        0 min,  0.056 sec
 * total energy  :   -83.6508290 Eh     change       -0.2233893E-04 Eh
   gradient norm :     0.0022153 Eh/α   predicted    -0.1321594E-04 ( -40.84%)
   displ. norm   :     0.1784436 α      lambda       -0.4325781E-04
   maximum displ.:     0.1381020 α      in ANC's #1, #2, #5, ...

........................................................................
.............................. CYCLE   32 ..............................
........................................................................
   1    -84.3843727 -0.843844E+02  0.287E-03    2.23       0.0  T
   2    -84.3843730 -0.327293E-06  0.120E-03    2.23      12.9  T
   3    -84.3843730 -0.390464E-07  0.448E-04    2.23      34.5  T
   4    -84.3843730 -0.259604E-09  0.208E-04    2.23      74.3  T
   5    -84.3843730 -0.107860E-09  0.229E-05    2.23     673.4  T
   6    -84.3843730 -0.101181E-10  0.719E-06    2.23    2144.8  T
     SCC iter.                  ...        0 min,  0.032 sec
     gradient                   ...        0 min,  0.054 sec
 * total energy  :   -83.6508645 Eh     change       -0.3552427E-04 Eh
   gradient norm :     0.0012853 Eh/α   predicted    -0.2231796E-04 ( -37.18%)
   displ. norm   :     0.3197853 α      lambda       -0.4227389E-04
   maximum displ.:     0.2490629 α      in ANC's #1, #2, #5, ...

........................................................................
.............................. CYCLE   33 ..............................
........................................................................
   1    -84.3837363 -0.843837E+02  0.399E-03    2.22       0.0  T
   2    -84.3837368 -0.497278E-06  0.207E-03    2.23       7.4  T
   3    -84.3837368 -0.178511E-07  0.116E-03    2.23      13.3  T
   4    -84.3837368 -0.118534E-08  0.347E-04    2.23      44.5  T
   5    -84.3837368 -0.137753E-08  0.363E-05    2.23     424.7  T
   6    -84.3837368 -0.390941E-10  0.119E-05    2.23    1298.8  T
     SCC iter.                  ...        0 min,  0.031 sec
     gradient                   ...        0 min,  0.056 sec
 * total energy  :   -83.6509075 Eh     change       -0.4305688E-04 Eh
   gradient norm :     0.0024333 Eh/α   predicted    -0.2209924E-04 ( -48.67%)
   displ. norm   :     0.1113089 α      lambda       -0.2175314E-04
   maximum displ.:     0.0858991 α      in ANC's #1, #2, #3, ...

........................................................................
.............................. CYCLE   34 ..............................
........................................................................
   1    -84.3840715 -0.843841E+02  0.181E-03    2.23       0.0  T
   2    -84.3840715 -0.798935E-07  0.847E-04    2.23      18.2  T
   3    -84.3840716 -0.863560E-08  0.484E-04    2.23      31.9  T
   4    -84.3840716 -0.819725E-09  0.112E-04    2.23     138.2  T
   5    -84.3840716 -0.613056E-10  0.187E-05    2.23     826.7  T
     SCC iter.                  ...        0 min,  0.026 sec
     gradient                   ...        0 min,  0.049 sec
 * total energy  :   -83.6509263 Eh     change       -0.1879557E-04 Eh
   gradient norm :     0.0025994 Eh/α   predicted    -0.1101329E-04 ( -41.40%)
   displ. norm   :     0.1955735 α      lambda       -0.4096951E-04
   maximum displ.:     0.1493249 α      in ANC's #1, #2, #3, ...

........................................................................
.............................. CYCLE   35 ..............................
........................................................................
   1    -84.3844734 -0.843845E+02  0.229E-03    2.23       0.0  T
   2    -84.3844735 -0.123464E-06  0.111E-03    2.23      13.9  T
   3    -84.3844735 -0.135027E-07  0.568E-04    2.24      27.2  T
   4    -84.3844735 -0.187593E-08  0.161E-04    2.24      95.8  T
   5    -84.3844735 -0.247454E-09  0.343E-05    2.24     449.5  T
     SCC iter.                  ...        0 min,  0.017 sec
     gradient                   ...        0 min,  0.034 sec
 * total energy  :   -83.6509594 Eh     change       -0.3307519E-04 Eh
   gradient norm :     0.0021755 Eh/α   predicted    -0.2127341E-04 ( -35.68%)
   displ. norm   :     0.2639842 α      lambda       -0.4300199E-04
   maximum displ.:     0.2013793 α      in ANC's #1, #2, #8, ...

........................................................................
.............................. CYCLE   36 ..............................
........................................................................
   1    -84.3840219 -0.843840E+02  0.294E-03    2.24       0.0  T
   2    -84.3840220 -0.117871E-06  0.145E-03    2.24      10.6  T
   3    -84.3840220 -0.683848E-08  0.734E-04    2.24      21.0  T
   4    -84.3840220 -0.331389E-08  0.187E-04    2.24      82.5  T
   5    -84.3840220 -0.563602E-09  0.434E-05    2.24     355.3  T
     SCC iter.                  ...        0 min,  0.016 sec
     gradient                   ...        0 min,  0.040 sec
 * total energy  :   -83.6509889 Eh     change       -0.2950996E-04 Eh
   gradient norm :     0.0020357 Eh/α   predicted    -0.2300276E-04 ( -22.05%)
   displ. norm   :     0.2663111 α      lambda        0.1065986E-04
   maximum displ.:     0.2032059 α      in ANC's #1, #2, #8, ...

........................................................................
.............................. CYCLE   37 ..............................
........................................................................
   1    -84.3829601 -0.843830E+02  0.371E-03    2.24       0.0  T
   2    -84.3829602 -0.138768E-06  0.187E-03    2.24       8.2  T
   3    -84.3829602 -0.775728E-08  0.894E-04    2.24      17.3  T
   4    -84.3829602 -0.624399E-08  0.202E-04    2.24      76.5  T
   5    -84.3829602 -0.586041E-09  0.509E-05    2.24     303.4  T
   6    -84.3829602 -0.192131E-10  0.155E-05    2.24     993.8  T
     SCC iter.                  ...        0 min,  0.023 sec
     gradient                   ...        0 min,  0.041 sec
 * total energy  :   -83.6509852 Eh     change        0.3694122E-05 Eh
   gradient norm :     0.0042347 Eh/α   predicted     0.5706616E-05 (  54.48%)
   displ. norm   :     0.0471622 α      lambda       -0.5064586E-04
   maximum displ.:     0.0246591 α      in ANC's #11, #3, #1, ...

........................................................................
.............................. CYCLE   38 ..............................
........................................................................
   1    -84.3842297 -0.843842E+02  0.460E-03    2.24       0.0  T
   2    -84.3842298 -0.780701E-07  0.248E-03    2.24       6.2  T
   3    -84.3842298  0.210341E-08  0.757E-04    2.24      20.4  T
   4    -84.3842298 -0.100217E-07  0.192E-04    2.24      80.4  T
   5    -84.3842298 -0.221320E-09  0.353E-05    2.24     436.8  T
     SCC iter.                  ...        0 min,  0.031 sec
     gradient                   ...        0 min,  0.058 sec
 * total energy  :   -83.6510148 Eh     change       -0.2962786E-04 Eh
   gradient norm :     0.0015876 Eh/α   predicted    -0.2538146E-04 ( -14.33%)
   displ. norm   :     0.1224300 α      lambda       -0.1451468E-04
   maximum displ.:     0.0953347 α      in ANC's #1, #2, #3, ...

........................................................................
.............................. CYCLE   39 ..............................
........................................................................
   1    -84.3849554 -0.843850E+02  0.260E-03    2.23       0.0  T
   2    -84.3849555 -0.164765E-06  0.137E-03    2.23      11.3  T
   3    -84.3849556 -0.176977E-07  0.771E-04    2.23      20.0  T
   4    -84.3849556 -0.142757E-08  0.156E-04    2.23      99.1  T
   5    -84.3849556 -0.192159E-09  0.342E-05    2.23     451.1  T
     SCC iter.                  ...        0 min,  0.026 sec
     gradient                   ...        0 min,  0.055 sec
 * total energy  :   -83.6510318 Eh     change       -0.1696934E-04 Eh
   gradient norm :     0.0015788 Eh/α   predicted    -0.7307387E-05 ( -56.94%)
   displ. norm   :     0.0959687 α      lambda       -0.1557533E-04
   maximum displ.:     0.0741296 α      in ANC's #1, #2, #13, ...

........................................................................
.............................. CYCLE   40 ..............................
........................................................................
   1    -84.3851500 -0.843852E+02  0.286E-03    2.23       0.0  T
   2    -84.3851503 -0.274353E-06  0.152E-03    2.23      10.2  T
   3    -84.3851503 -0.362971E-07  0.778E-04    2.23      19.8  T
   4    -84.3851503 -0.304766E-09  0.171E-04    2.23      90.5  T
   5    -84.3851503 -0.236824E-09  0.307E-05    2.23     502.0  T
     SCC iter.                  ...        0 min,  0.025 sec
     gradient                   ...        0 min,  0.050 sec
 * total energy  :   -83.6510484 Eh     change       -0.1661130E-04 Eh
   gradient norm :     0.0011877 Eh/α   predicted    -0.7824225E-05 ( -52.90%)
   displ. norm   :     0.0694027 α      lambda       -0.7952863E-05
   maximum displ.:     0.0552951 α      in ANC's #1, #2, #5, ...

........................................................................
.............................. CYCLE   41 ..............................
........................................................................
   1    -84.3849593 -0.843850E+02  0.113E-03    2.23       0.0  T
   2    -84.3849594 -0.369551E-07  0.569E-04    2.23      27.1  T
   3    -84.3849594 -0.415440E-08  0.296E-04    2.23      52.1  T
   4    -84.3849594 -0.110489E-09  0.773E-05    2.23     199.7  T
   5    -84.3849594 -0.487717E-10  0.146E-05    2.23    1056.8  T
     SCC iter.                  ...        0 min,  0.025 sec
     gradient                   ...        0 min,  0.054 sec
 * total energy  :   -83.6510589 Eh     change       -0.1042403E-04 Eh
   gradient norm :     0.0013037 Eh/α   predicted    -0.3985840E-05 ( -61.76%)
   displ. norm   :     0.0706518 α      lambda       -0.9614721E-05
   maximum displ.:     0.0502755 α      in ANC's #1, #5, #2, ...

........................................................................
.............................. CYCLE   42 ..............................
........................................................................
   1    -84.3848746 -0.843849E+02  0.776E-04    2.23       0.0  T
   2    -84.3848746 -0.171432E-07  0.323E-04    2.23      47.7  T
   3    -84.3848746 -0.698606E-09  0.166E-04    2.23      93.2  T
   4    -84.3848746 -0.111740E-09  0.634E-05    2.23     243.4  T
     SCC iter.                  ...        0 min,  0.020 sec
     gradient                   ...        0 min,  0.056 sec
 * total energy  :   -83.6510718 Eh     change       -0.1294723E-04 Eh
   gradient norm :     0.0013289 Eh/α   predicted    -0.4819450E-05 ( -62.78%)
   displ. norm   :     0.1211732 α      lambda       -0.1640877E-04
   maximum displ.:     0.0796885 α      in ANC's #1, #5, #2, ...
 * RMSD in coord.:     0.4571444 α      energy gain  -0.6714997E-03 Eh

generating ANC from model Hessian ...
Using Lindh-Hessian (1995)
 Shifting diagonal of input Hessian by   9.801338291839587E-003
 Lowest  eigenvalues of input Hessian
    0.000000    0.000000    0.000000    0.000000    0.000000    0.000000
    0.010000    0.010105    0.010527    0.010734    0.011675    0.012046
    0.012571    0.012955    0.014093    0.014856    0.015254    0.015699
 Highest eigenvalues
    2.003682    2.075338    2.108433    2.201493    2.327584    2.358834
 

........................................................................
.............................. CYCLE   43 ..............................
........................................................................
   1    -84.3846120 -0.843846E+02  0.208E-03    2.23       0.0  T
   2    -84.3846121 -0.135183E-06  0.834E-04    2.23      18.5  T
   3    -84.3846121 -0.705406E-08  0.478E-04    2.23      32.3  T
   4    -84.3846121 -0.107161E-08  0.173E-04    2.23      89.2  T
   5    -84.3846121 -0.916174E-10  0.269E-05    2.23     573.4  T
     SCC iter.                  ...        0 min,  0.027 sec
     gradient                   ...        0 min,  0.056 sec
 * total energy  :   -83.6510918 Eh     change       -0.2004484E-04 Eh
   gradient norm :     0.0010787 Eh/α   predicted     0.0000000E+00 (-100.00%)
   displ. norm   :     0.0268311 α      lambda       -0.4630611E-05
   maximum displ.:     0.0209324 α      in ANC's #1, #13, #6, ...

........................................................................
.............................. CYCLE   44 ..............................
........................................................................
   1    -84.3845841 -0.843846E+02  0.986E-04    2.23       0.0  T
   2    -84.3845841 -0.254360E-07  0.458E-04    2.23      33.7  T
   3    -84.3845841 -0.303922E-08  0.244E-04    2.23      63.2  T
   4    -84.3845841 -0.945306E-10  0.580E-05    2.23     266.2  T
   5    -84.3845841 -0.173515E-10  0.104E-05    2.23    1481.3  T
     SCC iter.                  ...        0 min,  0.022 sec
     gradient                   ...        0 min,  0.045 sec
 * total energy  :   -83.6510989 Eh     change       -0.7104175E-05 Eh
   gradient norm :     0.0005021 Eh/α   predicted    -0.2831439E-05 ( -60.14%)
   displ. norm   :     0.0735625 α      lambda       -0.1205349E-04
   maximum displ.:     0.0542313 α      in ANC's #1, #13, #6, ...

........................................................................
.............................. CYCLE   45 ..............................
........................................................................
   1    -84.3844565 -0.843845E+02  0.198E-03    2.23       0.0  T
   2    -84.3844567 -0.132412E-06  0.939E-04    2.23      16.4  T
   3    -84.3844567 -0.178796E-07  0.420E-04    2.23      36.8  T
   4    -84.3844567 -0.199677E-09  0.127E-04    2.23     121.2  T
   5    -84.3844567 -0.684963E-10  0.225E-05    2.23     685.5  T
     SCC iter.                  ...        0 min,  0.026 sec
     gradient                   ...        0 min,  0.059 sec
 * total energy  :   -83.6511128 Eh     change       -0.1380764E-04 Eh
   gradient norm :     0.0011339 Eh/α   predicted    -0.6042518E-05 ( -56.24%)
   displ. norm   :     0.0892982 α      lambda       -0.1021089E-04
   maximum displ.:     0.0681046 α      in ANC's #1, #13, #25, ...

........................................................................
.............................. CYCLE   46 ..............................
........................................................................
   1    -84.3844220 -0.843844E+02  0.113E-03    2.23       0.0  T
   2    -84.3844220 -0.432589E-07  0.575E-04    2.23      26.9  T
   3    -84.3844221 -0.612290E-08  0.268E-04    2.23      57.5  T
   4    -84.3844221 -0.276572E-09  0.705E-05    2.23     218.9  T
   5    -84.3844221 -0.237037E-10  0.209E-05    2.23     737.5  T
     SCC iter.                  ...        0 min,  0.026 sec
     gradient                   ...        0 min,  0.058 sec
 * total energy  :   -83.6511248 Eh     change       -0.1201278E-04 Eh
   gradient norm :     0.0013462 Eh/α   predicted    -0.5146485E-05 ( -57.16%)
   displ. norm   :     0.0822744 α      lambda       -0.8499514E-05
   maximum displ.:     0.0651040 α      in ANC's #1, #25, #3, ...

........................................................................
.............................. CYCLE   47 ..............................
........................................................................
   1    -84.3844387 -0.843844E+02  0.805E-04    2.23       0.0  T
   2    -84.3844387 -0.163648E-07  0.326E-04    2.23      47.4  T
   3    -84.3844387 -0.101124E-08  0.158E-04    2.23      97.5  T
   4    -84.3844387 -0.183064E-09  0.576E-05    2.23     268.0  T
     SCC iter.                  ...        0 min,  0.021 sec
     gradient                   ...        0 min,  0.058 sec
 * total energy  :   -83.6511355 Eh     change       -0.1076406E-04 Eh
   gradient norm :     0.0011900 Eh/α   predicted    -0.4263095E-05 ( -60.40%)
   displ. norm   :     0.0954672 α      lambda       -0.1066009E-04
   maximum displ.:     0.0759180 α      in ANC's #1, #25, #7, ...

........................................................................
.............................. CYCLE   48 ..............................
........................................................................
   1    -84.3845092 -0.843845E+02  0.118E-03    2.23       0.0  T
   2    -84.3845093 -0.397700E-07  0.546E-04    2.23      28.3  T
   3    -84.3845093 -0.362627E-08  0.258E-04    2.23      59.8  T
   4    -84.3845093 -0.123492E-09  0.104E-04    2.23     148.5  T
   5    -84.3845093 -0.763976E-10  0.175E-05    2.23     880.0  T
     SCC iter.                  ...        0 min,  0.026 sec
     gradient                   ...        0 min,  0.059 sec
 * total energy  :   -83.6511491 Eh     change       -0.1352089E-04 Eh
   gradient norm :     0.0006480 Eh/α   predicted    -0.5357526E-05 ( -60.38%)
   displ. norm   :     0.1213482 α      lambda       -0.1310638E-04
   maximum displ.:     0.0956910 α      in ANC's #1, #7, #25, ...

........................................................................
.............................. CYCLE   49 ..............................
........................................................................
   1    -84.3845741 -0.843846E+02  0.158E-03    2.23       0.0  T
   2    -84.3845742 -0.863412E-07  0.738E-04    2.23      20.9  T
   3    -84.3845742 -0.981512E-08  0.331E-04    2.23      46.6  T
   4    -84.3845742 -0.129091E-09  0.132E-04    2.23     116.9  T
   5    -84.3845742 -0.106439E-09  0.206E-05    2.23     748.0  T
     SCC iter.                  ...        0 min,  0.027 sec
     gradient                   ...        0 min,  0.060 sec
 * total energy  :   -83.6511659 Eh     change       -0.1682219E-04 Eh
   gradient norm :     0.0006829 Eh/α   predicted    -0.6599727E-05 ( -60.77%)
   displ. norm   :     0.1403502 α      lambda       -0.1264687E-04
   maximum displ.:     0.1108944 α      in ANC's #1, #7, #25, ...

........................................................................
.............................. CYCLE   50 ..............................
........................................................................
   1    -84.3844960 -0.843845E+02  0.959E-04    2.23       0.0  T
   2    -84.3844960 -0.202087E-07  0.461E-04    2.23      33.5  T
   3    -84.3844960 -0.128739E-08  0.247E-04    2.23      62.4  T
   4    -84.3844960 -0.217810E-09  0.748E-05    2.23     206.2  T
   5    -84.3844960 -0.845120E-10  0.138E-05    2.23    1119.9  T
     SCC iter.                  ...        0 min,  0.027 sec
     gradient                   ...        0 min,  0.072 sec
 * total energy  :   -83.6511821 Eh     change       -0.1626747E-04 Eh
   gradient norm :     0.0008867 Eh/α   predicted    -0.6379728E-05 ( -60.78%)
   displ. norm   :     0.1185759 α      lambda       -0.9329866E-05
   maximum displ.:     0.0951532 α      in ANC's #1, #7, #3, ...

........................................................................
.............................. CYCLE   51 ..............................
........................................................................
   1    -84.3845757 -0.843846E+02  0.715E-04    2.23       0.0  T
   2    -84.3845757 -0.108044E-07  0.391E-04    2.23      39.4  T
   3    -84.3845757 -0.104609E-08  0.203E-04    2.23      76.0  T
   4    -84.3845757 -0.155481E-09  0.501E-05    2.23     308.2  T
   5    -84.3845757 -0.104166E-10  0.118E-05    2.23    1302.2  T
     SCC iter.                  ...        0 min,  0.030 sec
     gradient                   ...        0 min,  0.061 sec
 * total energy  :   -83.6511942 Eh     change       -0.1204049E-04 Eh
   gradient norm :     0.0007083 Eh/α   predicted    -0.4694474E-05 ( -61.01%)
   displ. norm   :     0.0779276 α      lambda       -0.5823294E-05
   maximum displ.:     0.0642330 α      in ANC's #1, #7, #3, ...

........................................................................
.............................. CYCLE   52 ..............................
........................................................................
   1    -84.3846798 -0.843847E+02  0.762E-04    2.23       0.0  T
   2    -84.3846798 -0.157867E-07  0.416E-04    2.23      37.1  T
   3    -84.3846798 -0.195971E-08  0.215E-04    2.23      71.9  T
   4    -84.3846798 -0.104819E-09  0.567E-05    2.23     272.3  T
   5    -84.3846798 -0.268017E-10  0.125E-05    2.23    1230.8  T
     SCC iter.                  ...        0 min,  0.029 sec
     gradient                   ...        0 min,  0.061 sec
 * total energy  :   -83.6512021 Eh     change       -0.7879586E-05 Eh
   gradient norm :     0.0004730 Eh/α   predicted    -0.2920398E-05 ( -62.94%)
   displ. norm   :     0.0541963 α      lambda       -0.4342208E-05
   maximum displ.:     0.0460331 α      in ANC's #1, #3, #7, ...

........................................................................
.............................. CYCLE   53 ..............................
........................................................................
   1    -84.3847364 -0.843847E+02  0.702E-04    2.23       0.0  T
   2    -84.3847365 -0.177196E-07  0.345E-04    2.23      44.8  T
   3    -84.3847365 -0.252430E-08  0.157E-04    2.23      98.4  T
   4    -84.3847365 -0.336513E-10  0.506E-05    2.23     305.0  T
     SCC iter.                  ...        0 min,  0.023 sec
     gradient                   ...        0 min,  0.058 sec
 * total energy  :   -83.6512081 Eh     change       -0.6071099E-05 Eh
   gradient norm :     0.0002765 Eh/α   predicted    -0.2174786E-05 ( -64.18%)
   displ. norm   :     0.0440191 α      lambda       -0.3806442E-05
   maximum displ.:     0.0383358 α      in ANC's #1, #3, #5, ...

........................................................................
.............................. CYCLE   54 ..............................
........................................................................
   1    -84.3847681 -0.843848E+02  0.466E-04    2.23       0.0  T
   2    -84.3847682 -0.777970E-08  0.230E-04    2.23      67.0  T
   3    -84.3847682 -0.108723E-08  0.115E-04    2.23     133.6  T
   4    -84.3847682 -0.413252E-10  0.371E-05    2.23     416.4  T
     SCC iter.                  ...        0 min,  0.023 sec
     gradient                   ...        0 min,  0.062 sec
 * total energy  :   -83.6512135 Eh     change       -0.5367677E-05 Eh
   gradient norm :     0.0002996 Eh/α   predicted    -0.1906058E-05 ( -64.49%)
   displ. norm   :     0.0405460 α      lambda       -0.3638644E-05
   maximum displ.:     0.0353961 α      in ANC's #1, #3, #5, ...

........................................................................
.............................. CYCLE   55 ..............................
........................................................................
   1    -84.3847857 -0.843848E+02  0.284E-04    2.23       0.0  T
   2    -84.3847857 -0.263923E-08  0.120E-04    2.23     128.6  T
   3    -84.3847857 -0.302805E-09  0.607E-05    2.23     254.2  T
     SCC iter.                  ...        0 min,  0.016 sec
     gradient                   ...        0 min,  0.049 sec
 * total energy  :   -83.6512186 Eh     change       -0.5144014E-05 Eh
   gradient norm :     0.0003327 Eh/α   predicted    -0.1821672E-05 ( -64.59%)
   displ. norm   :     0.0422069 α      lambda       -0.3802915E-05
   maximum displ.:     0.0360576 α      in ANC's #1, #3, #14, ...

........................................................................
.............................. CYCLE   56 ..............................
........................................................................
   1    -84.3847937 -0.843848E+02  0.224E-04    2.23       0.0  T
   2    -84.3847937 -0.773184E-09  0.114E-04    2.23     135.7  T
   3    -84.3847937 -0.721201E-10  0.534E-05    2.23     288.7  T
     SCC iter.                  ...        0 min,  0.015 sec
     gradient                   ...        0 min,  0.056 sec
 * total energy  :   -83.6512241 Eh     change       -0.5416865E-05 Eh
   gradient norm :     0.0003411 Eh/α   predicted    -0.1904248E-05 ( -64.85%)
   displ. norm   :     0.0482956 α      lambda       -0.4300476E-05
   maximum displ.:     0.0397977 α      in ANC's #1, #3, #7, ...

........................................................................
.............................. CYCLE   57 ..............................
........................................................................
   1    -84.3847886 -0.843848E+02  0.225E-04    2.23       0.0  T
   2    -84.3847886 -0.101394E-08  0.117E-04    2.23     131.4  T
   3    -84.3847886 -0.100101E-09  0.593E-05    2.23     260.3  T
     SCC iter.                  ...        0 min,  0.015 sec
     gradient                   ...        0 min,  0.051 sec
 * total energy  :   -83.6512302 Eh     change       -0.6149566E-05 Eh
   gradient norm :     0.0003187 Eh/α   predicted    -0.2153917E-05 ( -64.97%)
   displ. norm   :     0.0575618 α      lambda       -0.4981039E-05
   maximum displ.:     0.0459939 α      in ANC's #1, #3, #25, ...

........................................................................
.............................. CYCLE   58 ..............................
........................................................................
   1    -84.3847700 -0.843848E+02  0.318E-04    2.23       0.0  T
   2    -84.3847700 -0.288458E-08  0.151E-04    2.23     102.3  T
   3    -84.3847700 -0.169152E-09  0.748E-05    2.23     206.3  T
     SCC iter.                  ...        0 min,  0.015 sec
     gradient                   ...        0 min,  0.051 sec
 * total energy  :   -83.6512372 Eh     change       -0.6977638E-05 Eh
   gradient norm :     0.0002848 Eh/α   predicted    -0.2495505E-05 ( -64.24%)
   displ. norm   :     0.0638765 α      lambda       -0.5240071E-05
   maximum displ.:     0.0505775 α      in ANC's #1, #3, #25, ...

........................................................................
.............................. CYCLE   59 ..............................
........................................................................
   1    -84.3847473 -0.843847E+02  0.360E-04    2.23       0.0  T
   2    -84.3847473 -0.416038E-08  0.143E-04    2.23     107.6  T
   3    -84.3847473 -0.273076E-09  0.759E-05    2.23     203.4  T
     SCC iter.                  ...        0 min,  0.015 sec
     gradient                   ...        0 min,  0.051 sec
 * total energy  :   -83.6512445 Eh     change       -0.7276899E-05 Eh
   gradient norm :     0.0002465 Eh/α   predicted    -0.2625722E-05 ( -63.92%)
   displ. norm   :     0.0652480 α      lambda       -0.5038588E-05
   maximum displ.:     0.0518239 α      in ANC's #1, #3, #25, ...

........................................................................
.............................. CYCLE   60 ..............................
........................................................................
   1    -84.3847200 -0.843847E+02  0.345E-04    2.23       0.0  T
   2    -84.3847200 -0.407722E-08  0.161E-04    2.23      96.1  T
   3    -84.3847200 -0.207422E-09  0.868E-05    2.23     177.7  T
     SCC iter.                  ...        0 min,  0.016 sec
     gradient                   ...        0 min,  0.054 sec
 * total energy  :   -83.6512513 Eh     change       -0.6870769E-05 Eh
   gradient norm :     0.0002208 Eh/α   predicted    -0.2525669E-05 ( -63.24%)
   displ. norm   :     0.0609465 α      lambda       -0.4431561E-05
   maximum displ.:     0.0491175 α      in ANC's #1, #3, #25, ...

........................................................................
.............................. CYCLE   61 ..............................
........................................................................
   1    -84.3847172 -0.843847E+02  0.342E-04    2.23       0.0  T
   2    -84.3847172 -0.361504E-08  0.123E-04    2.23     125.8  T
   3    -84.3847172 -0.261835E-09  0.673E-05    2.23     229.2  T
     SCC iter.                  ...        0 min,  0.016 sec
     gradient                   ...        0 min,  0.056 sec
 * total energy  :   -83.6512575 Eh     change       -0.6115750E-05 Eh
   gradient norm :     0.0002300 Eh/α   predicted    -0.2219736E-05 ( -63.70%)
   displ. norm   :     0.0567487 α      lambda       -0.4028425E-05
   maximum displ.:     0.0462489 α      in ANC's #1, #2, #11, ...

........................................................................
.............................. CYCLE   62 ..............................
........................................................................
   1    -84.3847183 -0.843847E+02  0.301E-04    2.23       0.0  T
   2    -84.3847184 -0.225066E-08  0.142E-04    2.23     108.6  T
   3    -84.3847184 -0.143231E-09  0.765E-05    2.23     201.7  T
     SCC iter.                  ...        0 min,  0.016 sec
     gradient                   ...        0 min,  0.050 sec
 * total energy  :   -83.6512631 Eh     change       -0.5667204E-05 Eh
   gradient norm :     0.0002281 Eh/α   predicted    -0.2018469E-05 ( -64.38%)
   displ. norm   :     0.0573396 α      lambda       -0.4040973E-05
   maximum displ.:     0.0467688 α      in ANC's #1, #7, #2, ...

........................................................................
.............................. CYCLE   63 ..............................
........................................................................
   1    -84.3847258 -0.843847E+02  0.334E-04    2.23       0.0  T
   2    -84.3847258 -0.236646E-08  0.147E-04    2.23     104.8  T
   3    -84.3847258 -0.191648E-09  0.780E-05    2.23     197.9  T
     SCC iter.                  ...        0 min,  0.015 sec
     gradient                   ...        0 min,  0.055 sec
 * total energy  :   -83.6512689 Eh     change       -0.5754919E-05 Eh
   gradient norm :     0.0002341 Eh/α   predicted    -0.2026539E-05 ( -64.79%)
   displ. norm   :     0.0616371 α      lambda       -0.4267114E-05
   maximum displ.:     0.0499213 α      in ANC's #1, #7, #2, ...

........................................................................
.............................. CYCLE   64 ..............................
........................................................................
   1    -84.3847483 -0.843847E+02  0.385E-04    2.23       0.0  T
   2    -84.3847483 -0.257889E-08  0.179E-04    2.23      86.2  T
   3    -84.3847483 -0.178972E-09  0.902E-05    2.23     171.0  T
     SCC iter.                  ...        0 min,  0.015 sec
     gradient                   ...        0 min,  0.055 sec
 * total energy  :   -83.6512749 Eh     change       -0.5999208E-05 Eh
   gradient norm :     0.0002356 Eh/α   predicted    -0.2142139E-05 ( -64.29%)
   displ. norm   :     0.0609347 α      lambda       -0.4107418E-05
   maximum displ.:     0.0494329 α      in ANC's #1, #7, #2, ...

........................................................................
.............................. CYCLE   65 ..............................
........................................................................
   1    -84.3847608 -0.843848E+02  0.372E-04    2.23       0.0  T
   2    -84.3847608 -0.253374E-08  0.174E-04    2.23      88.5  T
   3    -84.3847608 -0.123435E-09  0.777E-05    2.23     198.6  T
     SCC iter.                  ...        0 min,  0.015 sec
     gradient                   ...        0 min,  0.056 sec
 * total energy  :   -83.6512805 Eh     change       -0.5667213E-05 Eh
   gradient norm :     0.0002135 Eh/α   predicted    -0.2058616E-05 ( -63.67%)
   displ. norm   :     0.0560734 α      lambda       -0.3585286E-05
   maximum displ.:     0.0456619 α      in ANC's #1, #7, #2, ...

........................................................................
.............................. CYCLE   66 ..............................
........................................................................
   1    -84.3848020 -0.843848E+02  0.364E-04    2.23       0.0  T
   2    -84.3848020 -0.249962E-08  0.163E-04    2.23      94.9  T
   3    -84.3848020 -0.108173E-09  0.723E-05    2.23     213.3  T
     SCC iter.                  ...        0 min,  0.015 sec
     gradient                   ...        0 min,  0.055 sec
 * total energy  :   -83.6512855 Eh     change       -0.4968761E-05 Eh
   gradient norm :     0.0001803 Eh/α   predicted    -0.1796800E-05 ( -63.84%)
   displ. norm   :     0.0490905 α      lambda       -0.3093748E-05
   maximum displ.:     0.0401690 α      in ANC's #1, #2, #7, ...

   *** GEOMETRY OPTIMIZATION CONVERGED AFTER 66 ITERATIONS ***

------------------------------------------------------------------------
 total energy gain   :        -0.0201097 Eh      -12.6190 kcal/mol
 total RMSD          :         1.1820790 a0        0.6255 Å
 total power (kW/mol):        -0.7999697 (step)   -7.7260 (real)
------------------------------------------------------------------------

 ANCopt (total)                0 d,  0 h,  0 min,  6.834 sec
 optimizer setup                ...        0 min,  0.001 sec (  0.011%)
 model hessian                  ...        0 min,  0.071 sec (  1.046%)
 ANC generation                 ...        0 min,  0.007 sec (  0.108%)
 coordinate transformation      ...        0 min,  0.001 sec (  0.021%)
 single point calculation       ...        0 min,  6.732 sec ( 98.503%)
 optimization log               ...        0 min,  0.012 sec (  0.172%)
 hessian update                 ...        0 min,  0.001 sec (  0.020%)
 rational function              ...        0 min,  0.005 sec (  0.078%)

================
 final structure:
================
42
 xtb: 6.5.1 (579679a)
C            6.35958589192505        0.86094599127661       -0.24355369682488
O            5.02202346051777        0.47924470443754        0.03026142563045
C            4.83566574728196       -0.22800370452031        1.19366765692237
[...]
H28-C1-H26=109.58              H28-C1-H27=108.63              C3-O2-C1=115.47                O4-C3-O2=119.75                
C5-C3-O2=112.67                C5-C3-O4=127.58                N6-C5-C3=115.32                C24-C5-C3=121.81               
C24-C5-N6=122.86               C7-N6-C5=120.27                C8-C7-N6=120.76                N21-C7-N6=121.63               
N21-C7-C8=117.53               C9-C8-C7=108.07                C10-C8-C7=106.37               C10-C8-C9=110.31               
N11-C8-C7=107.22               N11-C8-C9=112.22               N11-C8-C10=112.33              H29-C9-C8=110.40               
H30-C9-C8=110.07               H30-C9-H29=108.86              H31-C9-C8=109.53               H31-C9-H29=109.31              
H31-C9-H30=108.63              H32-C10-C8=109.10              H33-C10-C8=110.23              H33-C10-H32=108.52             
H34-C10-C8=110.94              H34-C10-H32=108.79             H34-C10-H33=109.21             
 
 selected dihedral angles (degree)
 ---------------------------------
C3-O2-C1-H26=179.78           C3-O2-C1-H27= 60.27           C3-O2-C1-H28=299.42           O4-C3-O2-C1=  0.94            
C5-C3-O2-C1=181.31            N6-C5-C3-O2=359.53            N6-C5-C3-O4=179.94            C24-C5-C3-O2=178.73           
C24-C5-C3-O4=359.14           C7-N6-C5-C3=178.84            C7-N6-C5-C24=359.65           C8-C7-N6-C5=182.36            
N21-C7-N6-C5=359.19           C9-C8-C7-N6=316.59            C9-C8-C7-N21=139.63           C10-C8-C7-N6= 75.04           
C10-C8-C7-N21=258.09          N11-C8-C7-N6=195.42           N11-C8-C7-N21= 18.47          H29-C9-C8-C7=175.76           
H29-C9-C8-C10= 59.85          H29-C9-C8-N11=293.77          H30-C9-C8-C7=295.97           H30-C9-C8-C10=180.06          
H30-C9-C8-N11= 53.98          H31-C9-C8-C7= 55.35           H31-C9-C8-C10=299.44          H31-C9-C8-N11=173.36          
H32-C10-C8-C7=304.05          H32-C10-C8-C9= 61.02          H32-C10-C8-N11=187.04         H33-C10-C8-C7= 63.13          
H33-C10-C8-C9=180.10          H33-C10-C8-N11=306.11         H34-C10-C8-C7=184.21          H34-C10-C8-C9=301.19          
H34-C10-C8-N11= 67.20         
           -------------------------------------------------
          |                Final Singlepoint                |
           -------------------------------------------------

          ...................................................
          :                      SETUP                      :
          :.................................................:
          :  # basis functions                 134          :
          :  # atomic orbitals                 134          :
          :  # shells                           84          :
          :  # electrons                       136          :
          :  # halogen bonds                     0          :
          :  max. iterations                   250          :
          :  Hamiltonian                  GFN1-xTB          :
          :  restarted?                      false          :
          :  GBSA solvation                   true          :
          :  PC potential                    false          :
          :  electronic temp.          300.0000000     K    :
          :  accuracy                    1.0000000          :
          :  -> integral cutoff          0.2500000E+02      :
          :  -> integral neglect         0.1000000E-07      :
          :  -> SCF convergence          0.1000000E-05 Eh   :
          :  -> wf. convergence          0.2000000E-04 e    :
          :  Broyden damping             0.4000000          :
          ...................................................

 iter      E             dE          RMSdq      gap      omega  full diag
   1    -84.3848020 -0.843848E+02  0.202E-05    2.23       0.0  T
   2    -84.3848020 -0.588329E-11  0.106E-05    2.23    1461.5  T
   3    -84.3848020 -0.109424E-11  0.606E-06    2.23    2545.0  T

   *** convergence criteria satisfied after 3 iterations ***

         #    Occupation            Energy/Eh            Energy/eV
      -------------------------------------------------------------
         1        2.0000           -0.8171485             -22.2357
       ...           ...                  ...                  ...
        62        2.0000           -0.4078334             -11.0977
        63        2.0000           -0.3987318             -10.8500
        64        2.0000           -0.3728239             -10.1451
        65        2.0000           -0.3635122              -9.8917
        66        2.0000           -0.3506695              -9.5422
        67        2.0000           -0.3421794              -9.3112
        68        2.0000           -0.3404582              -9.2643 (HOMO)
        69                         -0.2584863              -7.0338 (LUMO)
        70                         -0.2242021              -6.1008
        71                         -0.2184080              -5.9432
        72                         -0.2085270              -5.6743
        73                         -0.1847391              -5.0270
       ...                                ...                  ...
       134                          0.7691034              20.9284
      -------------------------------------------------------------
                  HL-Gap            0.0819720 Eh            2.2306 eV
             Fermi-level           -0.2994722 Eh           -8.1491 eV

 SCC (total)                   0 d,  0 h,  0 min,  0.096 sec
 SCC setup                      ...        0 min,  0.002 sec (  1.601%)
 Dispersion                     ...        0 min,  0.000 sec (  0.231%)
 classical contributions        ...        0 min,  0.000 sec (  0.089%)
 integral evaluation            ...        0 min,  0.024 sec ( 24.902%)
 iterations                     ...        0 min,  0.015 sec ( 15.707%)
 molecular gradient             ...        0 min,  0.054 sec ( 56.362%)
 printout                       ...        0 min,  0.001 sec (  1.087%)

         :::::::::::::::::::::::::::::::::::::::::::::::::::::
         ::                     SUMMARY                     ::
         :::::::::::::::::::::::::::::::::::::::::::::::::::::
         :: total energy             -83.651285511692 Eh    ::
         :: total w/o Gsasa/hb       -83.632198358807 Eh    ::
         :: gradient norm              0.000180226608 Eh/a0 ::
         :: HOMO-LUMO gap              2.230570723047 eV    ::
         ::.................................................::
         :: SCC energy               -84.384801964199 Eh    ::
         :: -> electrostatic           0.697229614886 Eh    ::
         :: -> Gsolv                  -0.263556514880 Eh    ::
         ::    -> Gelec               -0.244469361996 Eh    ::
         ::    -> Gsasa               -0.024257901070 Eh    ::
         ::    -> Ghb                 -0.002453530819 Eh    ::
         ::    -> Gshift               0.007624279005 Eh    ::
         :: repulsion energy           0.759573260998 Eh    ::
         :: dispersion energy         -0.026056808491 Eh    ::
         :: halogen bond corr.         0.000000000000 Eh    ::
         :: add. restraining           0.000000000000 Eh    ::
         :: total charge              -2.000000000000 e     ::
         :::::::::::::::::::::::::::::::::::::::::::::::::::::

           -------------------------------------------------
          |                Property Printout                |
           -------------------------------------------------

    * Orbital Energies and Occupations

         #    Occupation            Energy/Eh            Energy/eV
      -------------------------------------------------------------
         1        2.0000           -0.8171485             -22.2357
       ...           ...                  ...                  ...
        56        2.0000           -0.4411447             -12.0042
        57        2.0000           -0.4397796             -11.9670
        58        2.0000           -0.4347415             -11.8299
        59        2.0000           -0.4271503             -11.6234
        60        2.0000           -0.4224919             -11.4966
        61        2.0000           -0.4124635             -11.2237
        62        2.0000           -0.4078334             -11.0977
        63        2.0000           -0.3987318             -10.8500
        64        2.0000           -0.3728239             -10.1451
        65        2.0000           -0.3635122              -9.8917
        66        2.0000           -0.3506695              -9.5422
        67        2.0000           -0.3421794              -9.3112
        68        2.0000           -0.3404582              -9.2643 (HOMO)
        69                         -0.2584863              -7.0338 (LUMO)
        70                         -0.2242021              -6.1008
        71                         -0.2184080              -5.9432
        72                         -0.2085270              -5.6743
        73                         -0.1847391              -5.0270
        74                         -0.1279426              -3.4815
        75                         -0.1186803              -3.2295
        76                         -0.0970645              -2.6413
        77                         -0.0937683              -2.5516
        78                         -0.0848825              -2.3098
        79                         -0.0786256              -2.1395
       ...                                ...                  ...
       134                          0.7691034              20.9284
      -------------------------------------------------------------
                  HL-Gap            0.0819720 Eh            2.2306 eV
             Fermi-level           -0.2994722 Eh           -8.1491 eV

  Mulliken/CM5 charges         n(s)   n(p)   n(d)
     1C     0.17481  0.05579   0.968  2.857  0.000
     2O    -0.45033 -0.53035   1.694  4.757  0.000
     3C     0.53943  0.60293   0.980  2.480  0.000
     4O    -0.62052 -0.66535   1.735  4.886  0.000
     5C    -0.02435  0.05084   1.038  2.986  0.000
     6N    -0.40587 -0.59009   1.536  3.870  0.000
     7C     0.24500  0.39559   1.018  2.737  0.000
     8C     0.16576  0.20444   1.059  2.776  0.000
     9C    -0.08907 -0.22850   1.014  3.075  0.000
    10C    -0.08381 -0.22346   1.012  3.072  0.000
    11N    -0.48449 -0.81568   1.506  3.978  0.000
    12C     0.38967  0.45358   1.008  2.602  0.000
    13C    -0.12506 -0.26271   1.023  3.102  0.000
    14O    -0.80158 -0.85193   1.749  5.052  0.000
    15C     0.33700  0.45861   1.057  2.606  0.000
    16N    -0.30067 -0.41437   1.573  3.727  0.000
    17N    -0.30905 -0.41805   1.575  3.734  0.000
    18C     0.36798  0.47781   0.996  2.636  0.000
    19C    -0.11064 -0.24808   1.009  3.102  0.000
    20O    -0.37407 -0.42912   1.701  4.673  0.000
    21N    -0.30634 -0.64768   1.435  3.871  0.000
    22C     0.41825  0.52273   1.009  2.573  0.000
    23O    -0.63012 -0.66683   1.739  4.891  0.000
    24C     0.28034  0.32535   1.034  2.686  0.000
    25O    -0.64753 -0.68514   1.746  4.902  0.000
    26H     0.02881  0.08906   0.971  0.000  0.000
    27H     0.02924  0.09090   0.971  0.000  0.000
    28H     0.02917  0.09082   0.971  0.000  0.000
    29H     0.03590  0.09662   0.964  0.000  0.000
    30H     0.01251  0.06913   0.987  0.000  0.000
    31H     0.01166  0.06983   0.988  0.000  0.000
    32H     0.01148  0.06783   0.989  0.000  0.000
    33H     0.01512  0.07213   0.985  0.000  0.000
    34H     0.04074  0.10172   0.959  0.000  0.000
    35H     0.18078  0.38732   0.819  0.000  0.000
    36H     0.01630  0.07424   0.984  0.000  0.000
    37H     0.00296  0.06017   0.997  0.000  0.000
    38H     0.01645  0.07332   0.984  0.000  0.000
    39H     0.05244  0.10825   0.948  0.000  0.000
    40H     0.06040  0.11482   0.940  0.000  0.000
    41H     0.06030  0.11469   0.940  0.000  0.000
    42H     0.24099  0.44880   0.759  0.000  0.000

Wiberg/Mayer (AO) data.
largest (>0.10) Wiberg bond orders for each atom

 ---------------------------------------------------------------------------
     #   Z sym  total        # sym  WBO       # sym  WBO       # sym  WBO
 ---------------------------------------------------------------------------
     1   6 C    3.904 --    26 H    0.987    27 H    0.980    28 H    0.980
                             2 O    0.932
     2   8 O    2.131 --     3 C    1.014     1 C    0.932     4 O    0.105
     3   6 C    3.849 --     4 O    1.580     5 C    1.133     2 O    1.014
     4   8 O    1.858 --     3 C    1.580     2 O    0.105
     5   6 C    3.920 --    24 C    1.274     6 N    1.145     3 C    1.133
                            25 O    0.130
     6   7 N    3.019 --     7 C    1.627     5 C    1.145
     7   6 C    3.924 --     6 N    1.627    21 N    1.105     8 C    0.970
     8   6 C    3.968 --     9 C    0.983    10 C    0.983    11 N    0.981
                             7 C    0.970
     9   6 C    3.995 --    30 H    0.986    31 H    0.985     8 C    0.983
                            29 H    0.979
    10   6 C    3.994 --    32 H    0.987    33 H    0.985     8 C    0.983
                            34 H    0.977
    11   7 N    3.003 --     8 C    0.981    35 H    0.944    12 C    0.847
    12   6 C    3.936 --    14 O    1.211    13 C    0.940    15 C    0.883
                            11 N    0.847
    13   6 C    3.992 --    37 H    0.991    36 H    0.987    38 H    0.984
                            12 C    0.940
    14   8 O    1.561 --    12 C    1.211
    15   6 C    3.804 --    16 N    1.650    20 O    1.048    12 C    0.883
    16   7 N    2.983 --    15 C    1.650    17 N    1.146
    17   7 N    2.976 --    18 C    1.657    16 N    1.146
    18   6 C    3.888 --    17 N    1.657    20 O    1.063    19 C    1.024
    19   6 C    3.993 --    18 C    1.024    39 H    0.985    40 H    0.971
                            41 H    0.970
    20   8 O    2.295 --    18 C    1.063    15 C    1.048
    21   7 N    3.444 --    22 C    1.181     7 C    1.105    42 H    0.886
                            23 O    0.136
    22   6 C    3.884 --    23 O    1.554    21 N    1.181    24 C    0.973
    23   8 O    1.833 --    22 C    1.554    21 N    0.136
    24   6 C    3.944 --    25 O    1.506     5 C    1.274    22 C    0.973
    25   8 O    1.810 --    24 C    1.506     5 C    0.130
    26   1 H    1.017 --     1 C    0.987
    27   1 H    1.015 --     1 C    0.980
    28   1 H    1.016 --     1 C    0.980
    29   1 H    1.035 --     9 C    0.979
    30   1 H    1.010 --     9 C    0.986
    31   1 H    1.020 --     9 C    0.985
    32   1 H    1.013 --    10 C    0.987
    33   1 H    1.011 --    10 C    0.985
    34   1 H    1.030 --    10 C    0.977
    35   1 H    0.995 --    11 N    0.944
    36   1 H    1.017 --    13 C    0.987
    37   1 H    1.017 --    13 C    0.991
    38   1 H    1.018 --    13 C    0.984
    39   1 H    1.003 --    19 C    0.985
    40   1 H    1.002 --    19 C    0.971
    41   1 H    1.002 --    19 C    0.970
    42   1 H    0.973 --    21 N    0.886
 ---------------------------------------------------------------------------

Topologies differ in total number of bonds
Writing topology from bond orders to xtbtopo.mol

 dipole moment from electron density (au)
     X       Y       Z   
  -5.5530   2.0633  -4.4961  total (Debye):   18.903

           -------------------------------------------------
          |                Geometry Summary                 |
           -------------------------------------------------

      molecular mass/u    :      351.3152409
   center of mass at/Å    :        0.2747788      -0.1510902       0.4568943
  moments of inertia/u·Å² :        0.1083633E+04   0.5144175E+04   0.5609272E+04
rotational constants/cm⁻¹ :        0.1555659E-01   0.3277033E-02   0.3005316E-02

 * 33 selected distances

     #   Z          #   Z                                           value/Å
     1   6 C        2   8 O                                       1.4176545
     2   8 O        3   6 C                                       1.3742067
     3   6 C        4   8 O                                       1.2239998
     6   7 N        7   6 C                                       1.2836037
     8   6 C        9   6 C                                       1.5403099 (max)
     8   6 C       10   6 C                                       1.5371766
     8   6 C       11   7 N                                       1.4661033
    15   6 C       16   7 N                                       1.2963584
    17   7 N       18   6 C                                       1.2899020
    18   6 C       19   6 C                                       1.4834138
    15   6 C       20   8 O                                       1.3537571
    18   6 C       20   8 O                                       1.3476931
     7   6 C       21   7 N                                       1.3761496
    21   7 N       22   6 C                                       1.3640482
    22   6 C       23   8 O                                       1.2337288
     5   6 C       24   6 C                                       1.4200500
     1   6 C       26   1 H                                       1.0894778
     1   6 C       27   1 H                                       1.0953323
     1   6 C       28   1 H                                       1.0952872
     9   6 C       29   1 H                                       1.0887609
     9   6 C       30   1 H                                       1.0906860
     9   6 C       31   1 H                                       1.0907968
    10   6 C       32   1 H                                       1.0908676
    10   6 C       33   1 H                                       1.0901581
    10   6 C       34   1 H                                       1.0891498
    11   7 N       35   1 H                                       1.0221138
    13   6 C       36   1 H                                       1.0887872
    13   6 C       37   1 H                                       1.0885420
    13   6 C       38   1 H                                       1.0878783
    19   6 C       39   1 H                                       1.0870686
    19   6 C       40   1 H                                       1.0897067
    19   6 C       41   1 H                                       1.0897356
    21   7 N       42   1 H                                       1.0136712 (min)

 * 5 distinct bonds (by element types)

   Z      Z             #   av. dist./Å        max./Å        min./Å
   1 H    6 C          15     1.0901490     1.0953323     1.0870686
   6 C    6 C           4     1.4952376     1.5403099     1.4200500
   1 H    7 N           2     1.0178925     1.0221138     1.0136712
   6 C    7 N           6     1.3460275     1.4661033     1.2836037
   6 C    8 O           6     1.3251733     1.4176545     1.2239998


optimized geometry written to: xtbopt.xyz


           -------------------------------------------------
          | TOTAL ENERGY              -83.651285511692 Eh   |
          | GRADIENT NORM               0.000180226608 Eh/α |
          | HOMO-LUMO GAP               2.230570723047 eV   |
           -------------------------------------------------

------------------------------------------------------------------------
 * finished run on 2023/06/21 at 17:00:54.976     
------------------------------------------------------------------------
 total:
 * wall-time:     0 d,  0 h,  0 min,  7.219 sec
 *  cpu-time:     0 d,  0 h,  0 min,  7.097 sec
 * ratio c/w:     0.983 speedup
 SCF:
 * wall-time:     0 d,  0 h,  0 min,  0.143 sec
 *  cpu-time:     0 d,  0 h,  0 min,  0.143 sec
 * ratio c/w:     0.997 speedup
 ANC optimizer:
 * wall-time:     0 d,  0 h,  0 min,  6.955 sec
 *  cpu-time:     0 d,  0 h,  0 min,  6.916 sec
 * ratio c/w:     0.994 speedup

