43
 energy: -76.175030150904 gnorm: 0.000354007692 xtb: 6.5.1 (579679a)
C           -3.92947875514996        1.89480398410864       -1.03279820168356
N           -2.64112022591501        1.40287270065421       -0.54465090609758
C           -2.43811878694028        0.14401606421085       -0.02985167549342
C           -3.53395078278756       -0.92483963013931        0.08874505895914
C           -4.35176518367234       -1.12293502444636       -1.19467236039710
C           -4.43559612599961       -0.61455174189086        1.29295255184974
N           -2.88229110233928       -2.20099706874452        0.36513048864317
N           -1.28009676888188       -0.22015697658361        0.42168615832896
C           -0.19076347246179        0.60364558379842        0.40141250073075
C            1.04288020602189       -0.01616594749607        0.99198530146025
O            1.02932153970575       -1.15533193481698        1.44417135296131
N            2.14527037087011        0.75801203715200        1.01491364687536
C            3.40761007314820        0.24091327226461        1.53271228680925
C            4.23742864257446       -0.36573308516511        0.42077231048057
C            5.36051048624008        0.29778143349869       -0.06580300698031
C            6.11570244549466       -0.25051250210055       -1.09446984407399
C            5.71930408853596       -1.46523090667517       -1.62228016191868
F            6.44402683088030       -2.00259145324774       -2.61822203648386
C            4.60832008222289       -2.15126662202273       -1.16421995854227
C            3.86809223501702       -1.59064003737125       -0.13384966185692
C           -0.31847389449315        1.84972992107118       -0.13818995618596
O            0.68229155158188        2.74973190426046       -0.23961357585374
C           -1.59544156977034        2.30172481637422       -0.65516918475729
O           -1.72926804444614        3.42193190154389       -1.14573044901051
H           -4.09593501561614        1.55038803891784       -2.05284082187075
H           -3.89597201881021        2.98417338435579       -1.02624715697681
H           -4.73292641292732        1.55931502785053       -0.38539064688042
H           -3.71310843068882       -1.04391160490342       -2.07319948274579
H           -5.16444308892277       -0.40618895303806       -1.27808404407654
H           -4.78714363755199       -2.12217504467485       -1.17199639728383
H           -5.01343241635747        0.29407649637350        1.14037797985097
H           -3.82709375144623       -0.49528285531881        2.18900835405994
H           -5.12352979224670       -1.44601465456334        1.44275454564995
H           -2.30224854142135       -2.09987714670462        1.19349866637139
H           -2.26232789755159       -2.42216071138232       -0.40540113595940
H            2.16300512737989        1.66357759831473        0.57747874209842
H            3.17594700601039       -0.51687763629109        2.28843553553768
H            3.94343501597406        1.06710309450000        2.00535900101632
H            5.65457546840428        1.24966237318826        0.36053145649918
H            6.99223650037546        0.25379319016127       -1.47938805745854
H            4.33349517562057       -3.10153697164806       -1.60357888208203
H            2.99490175286685       -2.11032619567100        0.24426940772971
H            0.32617011747638        3.55805288229541       -0.65639674124024
