42
 energy: -83.587578257299 gnorm: 0.000233515262 xtb: 6.5.1 (579679a)
C            0.66454185873207        3.32458215952195        0.55825478053791
O            0.92258914441408        1.97470824665109        0.23467900373890
C            2.04728513298591        1.41602381284074        0.85113770177352
O            2.70338383703933        2.11721148597378        1.62642380342376
C            2.26643002269339        0.06860556751848        0.45972127880914
C            3.29297755354053       -0.75327158262142        0.97649032499833
O            4.14275970605221       -0.42802517692313        1.83992748834812
C            3.28565992175220       -2.18909277552941        0.46507306634520
O            4.29636535758131       -2.92405970730474        0.46368871885434
N            2.08497608550544       -2.66329457455787        0.07411353119659
C            0.96584871474230       -1.85023056669463       -0.34096448182516
C           -0.22250485004891       -1.96044422044525        0.63850749951515
C            0.16116791257502       -1.89595004548006        2.13549337369468
C           -0.95706421439749       -3.28333263770317        0.35510520898276
N           -1.10656238963143       -0.83412471281528        0.31796947866827
C           -2.30133543609154       -0.59510807765556        0.86905580914312
O           -2.85960200956869       -1.30363644151291        1.71736852736763
C           -2.95969218754638        0.62980561513332        0.36690365008906
N           -4.11475947640811        1.11214738056466        0.75255654350541
N           -4.33266782859841        2.24531452963713        0.01856253994639
C           -3.31093924548288        2.38752386442620       -0.76418253250556
C           -3.08386848998498        3.46580103742108       -1.75378889565393
O           -2.40206529247965        1.40816790154539       -0.60003075803125
N            1.36423121553929       -0.46935085888501       -0.54919807239638
C            1.90537986759787       -0.28546382361096       -1.90680033521781
H            1.49626888181195        3.97272510819509        0.25617087041014
H            0.49640512640958        3.45563722067043        1.63497931800598
H           -0.23489528440061        3.62085846136454        0.01626883742349
H            2.07867508979743       -3.62373560115771       -0.23351958145548
H           -0.71651718754222       -2.03249146946169        2.76765166201016
H            0.87534909770039       -2.68954111549249        2.35511778627242
H            0.61815493302820       -0.93239313956255        2.36522137738383
H           -0.27980908816998       -4.11631327706380        0.54071765172591
H           -1.26036576978118       -3.31032365308933       -0.69127328211380
H           -1.83817484123100       -3.40311889825644        0.98565186068151
H           -0.71095658354035       -0.15474853344749       -0.32987235841248
H           -3.92741786877525        4.15112031172002       -1.74185372062942
H           -2.17134447727739        4.01233547815802       -1.51470426612423
H           -2.97340876928660        3.04435633568093       -2.75250102878351
H            1.19438962360292       -0.70925852672497       -2.61797297209079
H            2.87873505129456       -0.78108975340452       -2.03988492255059
H            2.02238015581948        0.78147665239686       -2.11053148507509
