      -----------------------------------------------------------      
     |                   =====================                   |     
     |                           x T B                           |     
     |                   =====================                   |     
     |                         S. Grimme                         |     
     |          Mulliken Center for Theoretical Chemistry        |     
     |                    University of Bonn                     |     
      -----------------------------------------------------------      

   * xtb version 6.5.1 (579679a) compiled by 'ehlert@majestix' on 2022-07-11

   xtb is free software: you can redistribute it and/or modify it under
   the terms of the GNU Lesser General Public License as published by
   the Free Software Foundation, either version 3 of the License, or
   (at your option) any later version.
   
   xtb is distributed in the hope that it will be useful,
   but WITHOUT ANY WARRANTY; without even the implied warranty of
   MERCHANTABILITY or FITNESS FOR A PARTICULAR PURPOSE.  See the
   GNU Lesser General Public License for more details.
   
   Cite this work as:
   * C. Bannwarth, E. Caldeweyher, S. Ehlert, A. Hansen, P. Pracht,
     J. Seibert, S. Spicher, S. Grimme, WIREs Comput. Mol. Sci., 2020, 11,
     e01493. DOI: 10.1002/wcms.1493
   
   for GFN2-xTB:
   * C. Bannwarth, S. Ehlert and S. Grimme., J. Chem. Theory Comput., 2019,
     15, 1652-1671. DOI: 10.1021/acs.jctc.8b01176
   for GFN1-xTB:
   * S. Grimme, C. Bannwarth, P. Shushkov, J. Chem. Theory Comput., 2017,
     13, 1989-2009. DOI: 10.1021/acs.jctc.7b00118
   for GFN0-xTB:
   * P. Pracht, E. Caldeweyher, S. Ehlert, S. Grimme, ChemRxiv, 2019, preprint.
     DOI: 10.26434/chemrxiv.8326202.v1
   for GFN-FF:
   * S. Spicher and S. Grimme, Angew. Chem. Int. Ed., 2020, 59, 15665-15673.
     DOI: 10.1002/anie.202004239
   
   for ALPB and GBSA implicit solvation:
   * S. Ehlert, M. Stahn, S. Spicher, S. Grimme, J. Chem. Theory Comput.,
     2021, 17, 4250-4261. DOI: 10.1021/acs.jctc.1c00471
   
   for DFT-D4:
   * E. Caldeweyher, C. Bannwarth and S. Grimme, J. Chem. Phys., 2017,
     147, 034112. DOI: 10.1063/1.4993215
   * E. Caldeweyher, S. Ehlert, A. Hansen, H. Neugebauer, S. Spicher,
     C. Bannwarth and S. Grimme, J. Chem. Phys., 2019, 150, 154122.
     DOI: 10.1063/1.5090222
   * E. Caldeweyher, J.-M. Mewes, S. Ehlert and S. Grimme, Phys. Chem. Chem. Phys.
     2020, 22, 8499-8512. DOI: 10.1039/D0CP00502A
   
   for sTDA-xTB:
   * S. Grimme and C. Bannwarth, J. Chem. Phys., 2016, 145, 054103.
     DOI: 10.1063/1.4959605
   
   in the mass-spec context:
   * V. Asgeirsson, C. Bauer and S. Grimme, Chem. Sci., 2017, 8, 4879.
     DOI: 10.1039/c7sc00601b
   * J. Koopman and S. Grimme, ACS Omega 2019, 4, 12, 15120-15133.
     DOI: 10.1021/acsomega.9b02011
   
   for metadynamics refer to:
   * S. Grimme, J. Chem. Theory Comput., 2019, 155, 2847-2862
     DOI: 10.1021/acs.jctc.9b00143
   
   for SPH calculations refer to:
   * S. Spicher and S. Grimme, J. Chem. Theory Comput., 2021, 17, 1701-1714
     DOI: 10.1021/acs.jctc.0c01306
   
   with help from (in alphabetical order)
   P. Atkinson, C. Bannwarth, F. Bohle, G. Brandenburg, E. Caldeweyher
   M. Checinski, S. Dohm, S. Ehlert, S. Ehrlich, I. Gerasimov, C. Hölzer
   A. Katbashev, J. Koopman, C. Lavigne, S. Lehtola, F. März, M. Müller,
   F. Musil, H. Neugebauer, J. Pisarek, C. Plett, P. Pracht, F. Pultar,
   J. Seibert, P. Shushkov, S. Spicher, M. Stahn, M. Steiner, T. Strunk,
   J. Stückrath, T. Rose, and J. Unsleber
   
 * started run on 2023/06/21 at 17:16:07.204     

           -------------------------------------------------
          |                Calculation Setup                |
           -------------------------------------------------

          program call               : /lustre/hpc/kemi/ree/PhD/git/ReactivityQM/dep/xtb-6.5.1/bin/xtb --gfn 1 /lustre/hpc/kemi/ree/PhD/git/ReactivityQM/calculations/R02oxygendeprot/reac01prodE14/conf06/R02oxygendeprot_reac01prodE14_conf06_gfn1.xyz --opt --vfukui --chrg -2 --uhf 0 --alpb DMSO
          hostname                   : node070
          coordinate file            : /lustre/hpc/kemi/ree/PhD/git/ReactivityQM/calculations/R02oxygendeprot/reac01prodE14/conf06/R02oxygendeprot_reac01prodE14_conf06_gfn1.xyz
          omp threads                :                     1

   ID    Z sym.   atoms
    1    6 C      1, 3, 5, 7-10, 12, 14, 17, 18, 21, 23, 24
    2    8 O      2, 4, 13, 19, 22, 25
    3    7 N      6, 11, 15, 16, 20
    4    1 H      26-42

           -------------------------------------------------
          |                 G F N 1 - x T B                 |
           -------------------------------------------------

        Reference                      10.1021/acs.jctc.7b00118
      * Hamiltonian:
        H0-scaling (s, p, d)           1.850000    2.250000    2.000000
        zeta-weighting                 0.000000
      * Dispersion:
        s8                             2.400000
        a1                             0.630000
        a2                             5.000000
        s9                             0.000000
      * Repulsion:
        kExp                           1.500000
        rExp                           1.000000
      * Coulomb:
        alpha                          2.000000
        third order                    atomic
        anisotropic                    false
      * Halogen bond correction:
        rad-scale                      1.300000
        damping                        0.440000

      * Solvation model:               ALPB
        Solvent                        DMSO
        Parameter file                 internal GFN1-xTB/ALPB
        Dielectric constant                4.6680E+01
        Reference state                gsolv [1 M gas/solution]
        Free energy shift                  7.6243E-03 Eh       4.7843E+00 kcal/mol
        Temperature                        2.9815E+02 K
        Density                            1.1000E+00 kg/L
        Solvent mass                       7.8130E+01 g/mol
        Interaction kernel             P16
        Born radius scaling (c1)           1.7672E+00
        Born radii integrator          GBOBC
        Born offset                        0.0000E+00 a0       0.0000E+00 AA
        H-bond correction              true
        Ion screening                  false
        Surface tension                    1.0000E-05 Eh       1.5569E+01 dyn/cm
        Grid points                               230 per atom

          ...................................................
          :                      SETUP                      :
          :.................................................:
          :  # basis functions                 134          :
          :  # atomic orbitals                 134          :
          :  # shells                           84          :
          :  # electrons                       136          :
          :  # halogen bonds                     0          :
          :  max. iterations                   250          :
          :  Hamiltonian                  GFN1-xTB          :
          :  restarted?                      false          :
          :  GBSA solvation                   true          :
          :  PC potential                    false          :
          :  electronic temp.          300.0000000     K    :
          :  accuracy                    1.0000000          :
          :  -> integral cutoff          0.2500000E+02      :
          :  -> integral neglect         0.1000000E-07      :
          :  -> SCF convergence          0.1000000E-05 Eh   :
          :  -> wf. convergence          0.2000000E-04 e    :
          :  Broyden damping             0.4000000          :
          ...................................................

 iter      E             dE          RMSdq      gap      omega  full diag
   1    -83.9728660 -0.839729E+02  0.872E+00    1.81       0.0  T
   2    -84.2792637 -0.306398E+00  0.522E+00    0.41       1.0  T
   3    -83.6900933  0.589170E+00  0.305E+00    0.14       1.0  T
   4    -84.2397181 -0.549625E+00  0.133E+00    1.98       1.0  T
   5    -84.2941609 -0.544428E-01  0.628E-01    0.93       1.0  T
   6    -84.3009109 -0.674996E-02  0.436E-01    0.53       1.0  T
   7    -84.2912249  0.968601E-02  0.476E-01    0.04       1.0  T
   8    -84.3086653 -0.174405E-01  0.264E-01    0.08       1.0  T
   9    -83.9900333  0.318632E+00  0.159E+00    0.20       1.0  T
  10    -84.3121841 -0.322151E+00  0.148E-01    0.11       1.0  T
  11    -84.3113268  0.857262E-03  0.148E-01    0.14       1.0  T
  12    -84.3127732 -0.144638E-02  0.810E-02    0.11       1.0  T
  13    -84.3118494  0.923795E-03  0.110E-01    0.08       1.0  T
  14    -84.3126018 -0.752364E-03  0.741E-02    0.09       1.0  T
  15    -84.3130378 -0.436055E-03  0.416E-02    0.09       1.0  T
  16    -84.3132193 -0.181469E-03  0.141E-02    0.10       1.1  T
  17    -84.3132426 -0.232968E-04  0.301E-03    0.10       5.1  T
  18    -84.3132433 -0.727632E-06  0.154E-03    0.10      10.0  T
  19    -84.3132436 -0.290432E-06  0.112E-04    0.10     137.3  T
  20    -84.3132436  0.867516E-09  0.136E-04    0.10     113.1  T

   *** convergence criteria satisfied after 20 iterations ***

         #    Occupation            Energy/Eh            Energy/eV
      -------------------------------------------------------------
         1        2.0000           -0.8315939             -22.6288
       ...           ...                  ...                  ...
        62        2.0000           -0.4056248             -11.0376
        63        2.0000           -0.3975490             -10.8179
        64        2.0000           -0.3865950             -10.5198
        65        2.0000           -0.3761585             -10.2358
        66        2.0000           -0.3037221              -8.2647
        67        2.0000           -0.3009457              -8.1892
        68        1.7605           -0.2904843              -7.9045 (HOMO)
        69        0.2395           -0.2866943              -7.8013 (LUMO)
        70                         -0.2366188              -6.4387
        71                         -0.2181463              -5.9361
        72                         -0.1721475              -4.6844
        73                         -0.1691555              -4.6030
       ...                                ...                  ...
       134                          0.7441211              20.2486
      -------------------------------------------------------------
                  HL-Gap            0.0037901 Eh            0.1031 eV
             Fermi-level           -0.2885893 Eh           -7.8529 eV

 SCC (total)                   0 d,  0 h,  0 min,  0.242 sec
 SCC setup                      ...        0 min,  0.002 sec (  0.771%)
 Dispersion                     ...        0 min,  0.000 sec (  0.124%)
 classical contributions        ...        0 min,  0.000 sec (  0.042%)
 integral evaluation            ...        0 min,  0.068 sec ( 28.078%)
 iterations                     ...        0 min,  0.114 sec ( 47.032%)
 molecular gradient             ...        0 min,  0.057 sec ( 23.376%)
 printout                       ...        0 min,  0.001 sec (  0.564%)

         :::::::::::::::::::::::::::::::::::::::::::::::::::::
         ::                     SUMMARY                     ::
         :::::::::::::::::::::::::::::::::::::::::::::::::::::
         :: total energy             -83.587261202525 Eh    ::
         :: total w/o Gsasa/hb       -83.568364993084 Eh    ::
         :: gradient norm              0.150916024779 Eh/a0 ::
         :: HOMO-LUMO gap              0.103132844189 eV    ::
         ::.................................................::
         :: SCC energy               -84.313243615132 Eh    ::
         :: -> electrostatic           0.734507351283 Eh    ::
         :: -> Gsolv                  -0.292153048593 Eh    ::
         ::    -> Gelec               -0.273256839152 Eh    ::
         ::    -> Gsasa               -0.023949683329 Eh    ::
         ::    -> Ghb                 -0.002570805116 Eh    ::
         ::    -> Gshift               0.007624279005 Eh    ::
         :: repulsion energy           0.751645299910 Eh    ::
         :: dispersion energy         -0.025662887302 Eh    ::
         :: halogen bond corr.         0.000000000000 Eh    ::
         :: add. restraining           0.000000000000 Eh    ::
         :: total charge              -2.000000000000 e     ::
         :::::::::::::::::::::::::::::::::::::::::::::::::::::

      ----------------------------------------------------------- 
     |                   =====================                   |
     |                        A N C O P T                        |
     |                   =====================                   |
     |               Approximate Normal Coordinate               |
     |                Rational Function Optimizer                |
      ----------------------------------------------------------- 

          ...................................................
          :                      SETUP                      :
          :.................................................:
          :   optimization level            normal          :
          :   max. optcycles                   200          :
          :   ANC micro-cycles                  20          :
          :   degrees of freedom               120          :
          :.................................................:
          :   RF solver                   davidson          :
          :   write xtbopt.log                true          :
          :   linear?                        false          :
          :   energy convergence         0.5000000E-05 Eh   :
          :   grad. convergence          0.1000000E-02 Eh/α :
          :   maximium RF displ.         1.0000000          :
          :   Hlow (freq-cutoff)         0.1000000E-01      :
          :   Hmax (freq-cutoff)         5.0000000          :
          :   S6 in model hess.         20.0000000          :
          ...................................................

generating ANC from model Hessian ...
Using Lindh-Hessian (1995)
 Shifting diagonal of input Hessian by   9.739047731002232E-003
 Lowest  eigenvalues of input Hessian
    0.000000    0.000000    0.000000    0.000000    0.000000    0.000000
    0.010000    0.010023    0.010498    0.010980    0.011814    0.011952
    0.012822    0.013926    0.014642    0.015350    0.015796    0.017801
 Highest eigenvalues
    1.978195    2.052768    2.112528    2.214447    2.311762    2.346853
 

........................................................................
.............................. CYCLE    1 ..............................
........................................................................
   1    -84.3132436 -0.843132E+02  0.292E-05    0.10       0.0  T
   2    -84.3132436  0.958792E-09  0.906E-05    0.10     170.3  T
   3    -84.3132436 -0.381675E-09  0.710E-05    0.10     217.4  T
     SCC iter.                  ...        0 min,  0.017 sec
     gradient                   ...        0 min,  0.058 sec
 * total energy  :   -83.5872612 Eh     change       -0.1694701E-08 Eh
   gradient norm :     0.1509027 Eh/α   predicted     0.0000000E+00 (-100.00%)
   displ. norm   :     0.3525617 α      lambda       -0.2193734E-01
   maximum displ.:     0.1597113 α      in ANC's #18, #27, #30, ...

........................................................................
.............................. CYCLE    2 ..............................
........................................................................
   1    -84.3180542 -0.843181E+02  0.230E-01    0.32       0.0  T
   2    -83.9545693  0.363485E+00  0.172E+00    0.21       1.0  T
   3    -84.3196404 -0.365071E+00  0.184E-01    0.24       1.0  T
   4    -84.3207760 -0.113556E-02  0.145E-01    0.20       1.0  T
   5    -84.3223062 -0.153027E-02  0.911E-02    0.16       1.0  T
   6    -84.3231047 -0.798445E-03  0.398E-02    0.13       1.0  T
   7    -84.3230600  0.446803E-04  0.446E-02    0.11       1.0  T
   8    -84.3232922 -0.232204E-03  0.863E-03    0.12       1.8  T
   9    -84.3233008 -0.861779E-05  0.365E-04    0.12      42.2  T
  10    -84.3233007  0.148065E-06  0.115E-03    0.12      13.5  T
  11    -84.3233008 -0.108614E-06  0.632E-04    0.12      24.4  T
  12    -84.3233008 -0.491790E-07  0.998E-05    0.12     154.6  T
  13    -84.3233008 -0.297277E-09  0.680E-05    0.12     226.9  T
     SCC iter.                  ...        0 min,  0.074 sec
     gradient                   ...        0 min,  0.056 sec
 * total energy  :   -83.6033596 Eh     change       -0.1609843E-01 Eh
   gradient norm :     0.0789470 Eh/α   predicted    -0.1236909E-01 ( -23.17%)
   displ. norm   :     0.3816477 α      lambda       -0.1149962E-01
   maximum displ.:     0.2062257 α      in ANC's #18, #27, #19, ...

........................................................................
.............................. CYCLE    3 ..............................
........................................................................
   1    -84.3341808 -0.843342E+02  0.201E-01    0.37       0.0  T
   2    -84.0963800  0.237801E+00  0.140E+00    0.06       1.0  T
   3    -84.3353112 -0.238931E+00  0.159E-01    0.31       1.0  T
   4    -84.3356532 -0.342014E-03  0.137E-01    0.27       1.0  T
   5    -84.3360853 -0.432083E-03  0.119E-01    0.23       1.0  T
   6    -84.3367210 -0.635672E-03  0.879E-02    0.19       1.0  T
   7    -84.3373810 -0.659976E-03  0.399E-02    0.16       1.0  T
   8    -84.3375582 -0.177201E-03  0.211E-03    0.14       7.3  T
   9    -84.3375570  0.116689E-05  0.428E-03    0.14       3.6  T
  10    -84.3375562  0.822088E-06  0.469E-03    0.14       3.3  T
  11    -84.3375586 -0.243510E-05  0.548E-04    0.14      28.2  T
  12    -84.3375586 -0.341013E-07  0.866E-05    0.14     178.2  T
  13    -84.3375586 -0.271910E-09  0.450E-05    0.14     342.8  T
     SCC iter.                  ...        0 min,  0.071 sec
     gradient                   ...        0 min,  0.058 sec
 * total energy  :   -83.6103003 Eh     change       -0.6940646E-02 Eh
   gradient norm :     0.0246897 Eh/α   predicted    -0.6587301E-02 (  -5.09%)
   displ. norm   :     0.2788798 α      lambda       -0.1994054E-02
   maximum displ.:     0.1869289 α      in ANC's #18, #2, #19, ...

........................................................................
.............................. CYCLE    4 ..............................
........................................................................
   1    -84.3419658 -0.843420E+02  0.974E-02    0.23       0.0  T
   2    -84.2278940  0.114072E+00  0.966E-01    0.01       1.0  T
   3    -84.3424244 -0.114530E+00  0.738E-02    0.20       1.0  T
   4    -84.3425580 -0.133553E-03  0.616E-02    0.19       1.0  T
   5    -84.3427319 -0.173923E-03  0.471E-02    0.18       1.0  T
   6    -84.3429285 -0.196565E-03  0.205E-02    0.16       1.0  T
   7    -84.3429733 -0.447805E-04  0.460E-03    0.16       3.4  T
   8    -84.3429750 -0.171314E-05  0.242E-03    0.15       6.4  T
   9    -84.3429756 -0.618833E-06  0.472E-04    0.15      32.7  T
  10    -84.3429756 -0.240974E-07  0.841E-05    0.15     183.5  T
  11    -84.3429756 -0.528587E-09  0.493E-05    0.15     312.7  T
     SCC iter.                  ...        0 min,  0.060 sec
     gradient                   ...        0 min,  0.057 sec
 * total energy  :   -83.6117135 Eh     change       -0.1413206E-02 Eh
   gradient norm :     0.0151317 Eh/α   predicted    -0.1074759E-02 ( -23.95%)
   displ. norm   :     0.3014312 α      lambda       -0.1153477E-02
   maximum displ.:     0.1744519 α      in ANC's #18, #2, #19, ...

........................................................................
.............................. CYCLE    5 ..............................
........................................................................
   1    -84.3458584 -0.843459E+02  0.688E-02    0.22       0.0  T
   2    -84.3192362  0.266222E-01  0.470E-01    0.05       1.0  T
   3    -84.3461395 -0.269033E-01  0.475E-02    0.20       1.0  T
   4    -84.3462170 -0.774980E-04  0.370E-02    0.19       1.0  T
   5    -84.3463149 -0.979075E-04  0.215E-02    0.18       1.0  T
   6    -84.3463632 -0.482425E-04  0.271E-03    0.17       5.7  T
   7    -84.3463638 -0.639028E-06  0.887E-04    0.16      17.4  T
   8    -84.3463639 -0.849348E-07  0.136E-04    0.16     113.3  T
   9    -84.3463639  0.155281E-08  0.143E-04    0.16     108.1  T
     SCC iter.                  ...        0 min,  0.049 sec
     gradient                   ...        0 min,  0.058 sec
 * total energy  :   -83.6124795 Eh     change       -0.7659919E-03 Eh
   gradient norm :     0.0095556 Eh/α   predicted    -0.6291582E-03 ( -17.86%)
   displ. norm   :     0.2292011 α      lambda       -0.4726188E-03
   maximum displ.:     0.1358380 α      in ANC's #2, #18, #16, ...

........................................................................
.............................. CYCLE    6 ..............................
........................................................................
   1    -84.3478009 -0.843478E+02  0.283E-02    0.19       0.0  T
   2    -84.3463012  0.149973E-02  0.115E-01    0.12       1.0  T
   3    -84.3478759 -0.157474E-02  0.111E-02    0.18       1.4  T
   4    -84.3478847 -0.875881E-05  0.553E-03    0.17       2.8  T
   5    -84.3478876 -0.285226E-05  0.840E-04    0.17      18.4  T
   6    -84.3478875  0.207818E-07  0.652E-04    0.17      23.7  T
   7    -84.3478876 -0.485654E-07  0.555E-05    0.17     278.1  T
   8    -84.3478876 -0.209468E-10  0.468E-05    0.17     329.6  T
     SCC iter.                  ...        0 min,  0.044 sec
     gradient                   ...        0 min,  0.057 sec
 * total energy  :   -83.6128132 Eh     change       -0.3336941E-03 Eh
   gradient norm :     0.0076557 Eh/α   predicted    -0.2487252E-03 ( -25.46%)
   displ. norm   :     0.2260076 α      lambda       -0.3255623E-03
   maximum displ.:     0.1492560 α      in ANC's #2, #16, #10, ...

........................................................................
.............................. CYCLE    7 ..............................
........................................................................
   1    -84.3484818 -0.843485E+02  0.177E-02    0.19       0.0  T
   2    -84.3481474  0.334411E-03  0.560E-02    0.14       1.0  T
   3    -84.3485112 -0.363815E-03  0.575E-03    0.18       2.7  T
   4    -84.3485135 -0.223906E-05  0.258E-03    0.17       6.0  T
   5    -84.3485139 -0.396563E-06  0.501E-04    0.17      30.8  T
   6    -84.3485139  0.282370E-10  0.261E-04    0.17      59.1  T
   7    -84.3485139 -0.756289E-08  0.431E-05    0.17     357.6  T
   8    -84.3485139  0.399893E-10  0.355E-05    0.17     434.6  T
     SCC iter.                  ...        0 min,  0.043 sec
     gradient                   ...        0 min,  0.058 sec
 * total energy  :   -83.6130488 Eh     change       -0.2356026E-03 Eh
   gradient norm :     0.0063460 Eh/α   predicted    -0.1710969E-03 ( -27.38%)
   displ. norm   :     0.2117236 α      lambda       -0.2278078E-03
   maximum displ.:     0.1485226 α      in ANC's #2, #16, #7, ...

........................................................................
.............................. CYCLE    8 ..............................
........................................................................
   1    -84.3484816 -0.843485E+02  0.790E-03    0.18       0.0  T
   2    -84.3484808  0.859997E-06  0.763E-03    0.17       2.0  T
   3    -84.3484819 -0.116678E-05  0.604E-03    0.18       2.6  T
   4    -84.3484851 -0.312081E-05  0.203E-03    0.17       7.6  T
   5    -84.3484851 -0.628650E-07  0.729E-04    0.18      21.2  T
   6    -84.3484852 -0.258433E-07  0.134E-04    0.18     115.2  T
   7    -84.3484852 -0.657451E-09  0.323E-05    0.18     477.9  T
     SCC iter.                  ...        0 min,  0.039 sec
     gradient                   ...        0 min,  0.058 sec
 * total energy  :   -83.6132162 Eh     change       -0.1674228E-03 Eh
   gradient norm :     0.0055961 Eh/α   predicted    -0.1190127E-03 ( -28.91%)
   displ. norm   :     0.1998403 α      lambda       -0.1688350E-03
   maximum displ.:     0.1429407 α      in ANC's #2, #16, #11, ...

........................................................................
.............................. CYCLE    9 ..............................
........................................................................
   1    -84.3481627 -0.843482E+02  0.741E-03    0.18       0.0  T
   2    -84.3481650 -0.231608E-05  0.467E-03    0.18       3.3  T
   3    -84.3481650 -0.434655E-07  0.293E-03    0.18       5.3  T
   4    -84.3481643  0.723263E-06  0.359E-03    0.17       4.3  T
   5    -84.3481655 -0.114184E-05  0.825E-04    0.18      18.7  T
   6    -84.3481655 -0.396020E-07  0.125E-04    0.18     123.3  T
   7    -84.3481655 -0.542656E-09  0.357E-05    0.18     432.6  T
     SCC iter.                  ...        0 min,  0.039 sec
     gradient                   ...        0 min,  0.058 sec
 * total energy  :   -83.6133467 Eh     change       -0.1304693E-03 Eh
   gradient norm :     0.0051072 Eh/α   predicted    -0.8779091E-04 ( -32.71%)
   displ. norm   :     0.2197390 α      lambda       -0.1643295E-03
   maximum displ.:     0.1562222 α      in ANC's #2, #11, #7, ...

........................................................................
.............................. CYCLE   10 ..............................
........................................................................
   1    -84.3477519 -0.843478E+02  0.745E-03    0.18       0.0  T
   2    -84.3477542 -0.230273E-05  0.373E-03    0.18       4.1  T
   3    -84.3477544 -0.189184E-06  0.175E-03    0.18       8.8  T
   4    -84.3477543  0.605659E-07  0.103E-03    0.18      15.0  T
   5    -84.3477543  0.774061E-07  0.120E-03    0.18      12.9  T
   6    -84.3477544 -0.144494E-06  0.133E-04    0.18     116.3  T
   7    -84.3477544 -0.119178E-08  0.422E-05    0.18     365.7  T
     SCC iter.                  ...        0 min,  0.037 sec
     gradient                   ...        0 min,  0.058 sec
 * total energy  :   -83.6134771 Eh     change       -0.1303905E-03 Eh
   gradient norm :     0.0049298 Eh/α   predicted    -0.8613456E-04 ( -33.94%)
   displ. norm   :     0.2551502 α      lambda       -0.1695650E-03
   maximum displ.:     0.1798305 α      in ANC's #2, #11, #10, ...

........................................................................
.............................. CYCLE   11 ..............................
........................................................................
   1    -84.3473455 -0.843473E+02  0.805E-03    0.18       0.0  T
   2    -84.3473351  0.104313E-04  0.119E-02    0.17       1.3  T
   3    -84.3473474 -0.122776E-04  0.444E-03    0.18       3.5  T
   4    -84.3473494 -0.198166E-05  0.158E-03    0.18       9.8  T
   5    -84.3473494 -0.590313E-07  0.553E-04    0.18      27.9  T
   6    -84.3473494 -0.179714E-07  0.154E-04    0.18     100.3  T
   7    -84.3473494 -0.644732E-09  0.315E-05    0.18     490.4  T
     SCC iter.                  ...        0 min,  0.038 sec
     gradient                   ...        0 min,  0.058 sec
 * total energy  :   -83.6136097 Eh     change       -0.1326287E-03 Eh
   gradient norm :     0.0050818 Eh/α   predicted    -0.9030989E-04 ( -31.91%)
   displ. norm   :     0.2539708 α      lambda       -0.1459819E-03
   maximum displ.:     0.1796613 α      in ANC's #2, #10, #11, ...

........................................................................
.............................. CYCLE   12 ..............................
........................................................................
   1    -84.3473598 -0.843474E+02  0.987E-03    0.19       0.0  T
   2    -84.3473056  0.541780E-04  0.241E-02    0.16       1.0  T
   3    -84.3473690 -0.634408E-04  0.217E-03    0.18       7.1  T
   4    -84.3473694 -0.337349E-06  0.131E-03    0.18      11.8  T
   5    -84.3473693  0.524599E-08  0.901E-04    0.18      17.1  T
   6    -84.3473694 -0.539081E-07  0.213E-04    0.18      72.3  T
   7    -84.3473694 -0.298850E-08  0.260E-05    0.18     592.5  T
   8    -84.3473694 -0.858336E-11  0.910E-06    0.18    1696.3  T
     SCC iter.                  ...        0 min,  0.044 sec
     gradient                   ...        0 min,  0.059 sec
 * total energy  :   -83.6137221 Eh     change       -0.1124154E-03 Eh
   gradient norm :     0.0047946 Eh/α   predicted    -0.7770024E-04 ( -30.88%)
   displ. norm   :     0.2191684 α      lambda       -0.1162629E-03
   maximum displ.:     0.1557248 α      in ANC's #2, #10, #6, ...

........................................................................
.............................. CYCLE   13 ..............................
........................................................................
   1    -84.3480590 -0.843481E+02  0.112E-02    0.19       0.0  T
   2    -84.3479812  0.777397E-04  0.287E-02    0.16       1.0  T
   3    -84.3480722 -0.909294E-04  0.264E-03    0.18       5.8  T
   4    -84.3480726 -0.454756E-06  0.975E-04    0.18      15.8  T
   5    -84.3480726  0.492921E-07  0.853E-04    0.18      18.1  T
   6    -84.3480726 -0.509824E-07  0.204E-04    0.18      75.8  T
   7    -84.3480726 -0.347137E-08  0.227E-05    0.18     681.0  T
   8    -84.3480726 -0.885336E-11  0.905E-06    0.18    1705.3  T
     SCC iter.                  ...        0 min,  0.044 sec
     gradient                   ...        0 min,  0.056 sec
 * total energy  :   -83.6138150 Eh     change       -0.9286769E-04 Eh
   gradient norm :     0.0037721 Eh/α   predicted    -0.6092584E-04 ( -34.40%)
   displ. norm   :     0.2324026 α      lambda       -0.1132712E-03
   maximum displ.:     0.1620645 α      in ANC's #2, #6, #10, ...

........................................................................
.............................. CYCLE   14 ..............................
........................................................................
   1    -84.3487241 -0.843487E+02  0.116E-02    0.19       0.0  T
   2    -84.3486519  0.722566E-04  0.279E-02    0.16       1.0  T
   3    -84.3487381 -0.862500E-04  0.295E-03    0.18       5.2  T
   4    -84.3487387 -0.547284E-06  0.956E-04    0.18      16.1  T
   5    -84.3487386  0.330414E-07  0.794E-04    0.18      19.4  T
   6    -84.3487387 -0.343455E-07  0.190E-04    0.18      81.3  T
   7    -84.3487387 -0.324671E-08  0.252E-05    0.18     612.4  T
     SCC iter.                  ...        0 min,  0.038 sec
     gradient                   ...        0 min,  0.057 sec
 * total energy  :   -83.6139077 Eh     change       -0.9270036E-04 Eh
   gradient norm :     0.0030069 Eh/α   predicted    -0.5969738E-04 ( -35.60%)
   displ. norm   :     0.2850361 α      lambda       -0.1235890E-03
   maximum displ.:     0.1924585 α      in ANC's #2, #6, #4, ...

........................................................................
.............................. CYCLE   15 ..............................
........................................................................
   1    -84.3491601 -0.843492E+02  0.109E-02    0.19       0.0  T
   2    -84.3491130  0.471135E-04  0.232E-02    0.17       1.0  T
   3    -84.3491718 -0.588092E-04  0.306E-03    0.19       5.0  T
   4    -84.3491724 -0.625737E-06  0.941E-04    0.18      16.4  T
   5    -84.3491724  0.181560E-07  0.752E-04    0.18      20.5  T
   6    -84.3491724 -0.221889E-07  0.167E-04    0.18      92.2  T
   7    -84.3491724 -0.256014E-08  0.279E-05    0.18     553.3  T
     SCC iter.                  ...        0 min,  0.038 sec
     gradient                   ...        0 min,  0.058 sec
 * total energy  :   -83.6140088 Eh     change       -0.1011725E-03 Eh
   gradient norm :     0.0034134 Eh/α   predicted    -0.6681967E-04 ( -33.95%)
   displ. norm   :     0.3521830 α      lambda       -0.1349389E-03
   maximum displ.:     0.2306731 α      in ANC's #2, #6, #4, ...

........................................................................
.............................. CYCLE   16 ..............................
........................................................................
   1    -84.3491852 -0.843492E+02  0.984E-03    0.19       0.0  T
   2    -84.3491598  0.254512E-04  0.180E-02    0.17       1.0  T
   3    -84.3491939 -0.341747E-04  0.300E-03    0.19       5.1  T
   4    -84.3491946 -0.687936E-06  0.947E-04    0.19      16.3  T
   5    -84.3491946  0.993505E-08  0.732E-04    0.19      21.1  T
   6    -84.3491946 -0.204527E-07  0.174E-04    0.19      88.6  T
   7    -84.3491946 -0.224657E-08  0.320E-05    0.19     482.5  T
     SCC iter.                  ...        0 min,  0.038 sec
     gradient                   ...        0 min,  0.057 sec
 * total energy  :   -83.6141189 Eh     change       -0.1100521E-03 Eh
   gradient norm :     0.0041334 Eh/α   predicted    -0.7584605E-04 ( -31.08%)
   displ. norm   :     0.3917396 α      lambda       -0.1379413E-03
   maximum displ.:     0.2515412 α      in ANC's #2, #6, #4, ...

........................................................................
.............................. CYCLE   17 ..............................
........................................................................
   1    -84.3490602 -0.843491E+02  0.840E-03    0.19       0.0  T
   2    -84.3490511  0.915750E-05  0.121E-02    0.18       1.3  T
   3    -84.3490652 -0.141201E-04  0.323E-03    0.19       4.8  T
   4    -84.3490661 -0.940142E-06  0.957E-04    0.19      16.1  T
   5    -84.3490661 -0.114454E-09  0.603E-04    0.19      25.6  T
   6    -84.3490661 -0.154005E-07  0.128E-04    0.19     120.6  T
   7    -84.3490661 -0.751513E-09  0.322E-05    0.19     478.9  T
     SCC iter.                  ...        0 min,  0.038 sec
     gradient                   ...        0 min,  0.057 sec
 * total energy  :   -83.6142301 Eh     change       -0.1112494E-03 Eh
   gradient norm :     0.0041784 Eh/α   predicted    -0.7955536E-04 ( -28.49%)
   displ. norm   :     0.3925908 α      lambda       -0.1247103E-03
   maximum displ.:     0.2499874 α      in ANC's #2, #4, #6, ...

........................................................................
.............................. CYCLE   18 ..............................
........................................................................
   1    -84.3485224 -0.843485E+02  0.798E-03    0.20       0.0  T
   2    -84.3485171  0.535976E-05  0.103E-02    0.18       1.5  T
   3    -84.3485264 -0.932610E-05  0.316E-03    0.19       4.9  T
   4    -84.3485273 -0.855539E-06  0.117E-03    0.19      13.2  T
   5    -84.3485273 -0.286634E-07  0.489E-04    0.19      31.6  T
   6    -84.3485273 -0.837052E-08  0.100E-04    0.19     153.7  T
   7    -84.3485273 -0.352131E-09  0.306E-05    0.19     504.5  T
     SCC iter.                  ...        0 min,  0.038 sec
     gradient                   ...        0 min,  0.056 sec
 * total energy  :   -83.6143296 Eh     change       -0.9941700E-04 Eh
   gradient norm :     0.0035894 Eh/α   predicted    -0.7196844E-04 ( -27.61%)
   displ. norm   :     0.3727886 α      lambda       -0.1200981E-03
   maximum displ.:     0.2329479 α      in ANC's #2, #4, #6, ...

........................................................................
.............................. CYCLE   19 ..............................
........................................................................
   1    -84.3489596 -0.843490E+02  0.810E-03    0.20       0.0  T
   2    -84.3489558  0.377325E-05  0.964E-03    0.19       1.6  T
   3    -84.3489632 -0.744675E-05  0.333E-03    0.20       4.6  T
   4    -84.3489641 -0.893939E-06  0.129E-03    0.19      12.0  T
   5    -84.3489642 -0.286501E-07  0.490E-04    0.19      31.5  T
   6    -84.3489642 -0.617372E-08  0.121E-04    0.19     127.2  T
   7    -84.3489642 -0.581892E-09  0.379E-05    0.19     407.6  T
     SCC iter.                  ...        0 min,  0.037 sec
     gradient                   ...        0 min,  0.056 sec
 * total energy  :   -83.6144263 Eh     change       -0.9675203E-04 Eh
   gradient norm :     0.0029866 Eh/α   predicted    -0.6839589E-04 ( -29.31%)
   displ. norm   :     0.5175724 α      lambda       -0.1413273E-03
   maximum displ.:     0.3263367 α      in ANC's #2, #4, #6, ...

........................................................................
.............................. CYCLE   20 ..............................
........................................................................
   1    -84.3463221 -0.843463E+02  0.143E-02    0.21       0.0  T
   2    -84.3463078  0.142990E-04  0.173E-02    0.18       1.0  T
   3    -84.3463334 -0.256471E-04  0.531E-03    0.20       2.9  T
   4    -84.3463354 -0.192744E-05  0.229E-03    0.20       6.8  T
   5    -84.3463354 -0.880446E-07  0.818E-04    0.20      18.9  T
   6    -84.3463355 -0.303859E-07  0.197E-04    0.20      78.3  T
   7    -84.3463355 -0.210349E-08  0.586E-05    0.20     263.1  T
     SCC iter.                  ...        0 min,  0.038 sec
     gradient                   ...        0 min,  0.057 sec
 * total energy  :   -83.6145007 Eh     change       -0.7440599E-04 Eh
   gradient norm :     0.0060743 Eh/α   predicted    -0.8959408E-04 (  20.41%)
   displ. norm   :     0.1397748 α      lambda       -0.1090200E-03
   maximum displ.:     0.0916098 α      in ANC's #4, #2, #1, ...
 * RMSD in coord.:     0.6648051 α      energy gain  -0.2723952E-01 Eh

generating ANC from model Hessian ...
Using Lindh-Hessian (1995)
 Shifting diagonal of input Hessian by   9.774650930649173E-003
 Lowest  eigenvalues of input Hessian
    0.000000    0.000000    0.000000    0.000000    0.000000    0.000000
    0.010000    0.010197    0.010594    0.010929    0.011755    0.012117
    0.012521    0.013603    0.015049    0.015206    0.015892    0.017845
 Highest eigenvalues
    2.043253    2.131065    2.141681    2.175206    2.228141    2.419780
 

........................................................................
.............................. CYCLE   21 ..............................
........................................................................
   1    -84.3491918 -0.843492E+02  0.905E-03    0.20       0.0  T
   2    -84.3491885  0.329468E-05  0.822E-03    0.19       1.9  T
   3    -84.3491931 -0.461723E-05  0.450E-03    0.20       3.4  T
   4    -84.3491943 -0.124556E-05  0.128E-03    0.20      12.0  T
   5    -84.3491944 -0.546943E-07  0.306E-04    0.20      50.4  T
   6    -84.3491944 -0.253888E-08  0.841E-05    0.20     183.4  T
   7    -84.3491944 -0.155211E-09  0.314E-05    0.20     490.8  T
     SCC iter.                  ...        0 min,  0.037 sec
     gradient                   ...        0 min,  0.056 sec
 * total energy  :   -83.6145645 Eh     change       -0.6381270E-04 Eh
   gradient norm :     0.0038024 Eh/α   predicted     0.0000000E+00 (-100.00%)
   displ. norm   :     0.0428904 α      lambda       -0.3766611E-04
   maximum displ.:     0.0225606 α      in ANC's #7, #6, #4, ...

........................................................................
.............................. CYCLE   22 ..............................
........................................................................
   1    -84.3492928 -0.843493E+02  0.271E-03    0.20       0.0  T
   2    -84.3492927  0.113520E-06  0.310E-03    0.20       5.0  T
   3    -84.3492933 -0.581022E-06  0.110E-03    0.20      14.0  T
   4    -84.3492933  0.269674E-07  0.102E-03    0.20      15.2  T
   5    -84.3492933 -0.485142E-07  0.204E-04    0.20      75.6  T
   6    -84.3492933 -0.255733E-08  0.388E-05    0.20     397.4  T
   7    -84.3492933 -0.423341E-10  0.121E-05    0.20    1274.5  T
     SCC iter.                  ...        0 min,  0.037 sec
     gradient                   ...        0 min,  0.055 sec
 * total energy  :   -83.6145980 Eh     change       -0.3342485E-04 Eh
   gradient norm :     0.0019213 Eh/α   predicted    -0.2058761E-04 ( -38.41%)
   displ. norm   :     0.1776293 α      lambda       -0.6750703E-04
   maximum displ.:     0.0879436 α      in ANC's #7, #4, #6, ...

........................................................................
.............................. CYCLE   23 ..............................
........................................................................
   1    -84.3493567 -0.843494E+02  0.856E-03    0.20       0.0  T
   2    -84.3493598 -0.306633E-05  0.573E-03    0.20       2.7  T
   3    -84.3493606 -0.886407E-06  0.246E-03    0.20       6.3  T
   4    -84.3493606  0.727903E-07  0.153E-03    0.20      10.1  T
   5    -84.3493605  0.659949E-07  0.122E-03    0.20      12.7  T
   6    -84.3493607 -0.156573E-06  0.134E-04    0.20     114.9  T
   7    -84.3493607 -0.738552E-09  0.306E-05    0.20     504.4  T
     SCC iter.                  ...        0 min,  0.037 sec
     gradient                   ...        0 min,  0.057 sec
 * total energy  :   -83.6146394 Eh     change       -0.4144183E-04 Eh
   gradient norm :     0.0036744 Eh/α   predicted    -0.3422810E-04 ( -17.41%)
   displ. norm   :     0.0247964 α      lambda       -0.1715905E-04
   maximum displ.:     0.0136980 α      in ANC's #4, #1, #2, ...

........................................................................
.............................. CYCLE   24 ..............................
........................................................................
   1    -84.3494733 -0.843495E+02  0.212E-03    0.20       0.0  T
   2    -84.3494725  0.771843E-06  0.381E-03    0.20       4.1  T
   3    -84.3494738 -0.129208E-05  0.850E-04    0.20      18.2  T
   4    -84.3494738 -0.286434E-08  0.575E-04    0.20      26.8  T
   5    -84.3494738 -0.122162E-07  0.938E-05    0.20     164.6  T
   6    -84.3494738 -0.316092E-09  0.262E-05    0.20     589.4  T
     SCC iter.                  ...        0 min,  0.032 sec
     gradient                   ...        0 min,  0.055 sec
 * total energy  :   -83.6146541 Eh     change       -0.1470766E-04 Eh
   gradient norm :     0.0023892 Eh/α   predicted    -0.8585697E-05 ( -41.62%)
   displ. norm   :     0.0985160 α      lambda       -0.4274661E-04
   maximum displ.:     0.0523871 α      in ANC's #4, #1, #2, ...

........................................................................
.............................. CYCLE   25 ..............................
........................................................................
   1    -84.3496156 -0.843496E+02  0.538E-03    0.21       0.0  T
   2    -84.3496113  0.425852E-05  0.908E-03    0.19       1.7  T
   3    -84.3496187 -0.738920E-05  0.188E-03    0.20       8.2  T
   4    -84.3496187  0.499148E-07  0.146E-03    0.20      10.6  T
   5    -84.3496187 -0.765331E-07  0.265E-04    0.20      58.3  T
   6    -84.3496187 -0.367754E-08  0.713E-05    0.20     216.5  T
   7    -84.3496187 -0.200785E-09  0.160E-05    0.20     962.8  T
     SCC iter.                  ...        0 min,  0.037 sec
     gradient                   ...        0 min,  0.056 sec
 * total energy  :   -83.6146811 Eh     change       -0.2702080E-04 Eh
   gradient norm :     0.0013661 Eh/α   predicted    -0.2161773E-04 ( -20.00%)
   displ. norm   :     0.1292308 α      lambda       -0.1554209E-04
   maximum displ.:     0.0699031 α      in ANC's #4, #1, #6, ...

........................................................................
.............................. CYCLE   26 ..............................
........................................................................
   1    -84.3493911 -0.843494E+02  0.226E-03    0.20       0.0  T
   2    -84.3493913 -0.198728E-06  0.120E-03    0.20      12.9  T
   3    -84.3493913 -0.364441E-07  0.690E-04    0.20      22.4  T
   4    -84.3493914 -0.187972E-07  0.588E-04    0.20      26.2  T
   5    -84.3493914 -0.192336E-07  0.140E-04    0.20     110.3  T
   6    -84.3493914 -0.244953E-09  0.571E-05    0.20     270.2  T
     SCC iter.                  ...        0 min,  0.032 sec
     gradient                   ...        0 min,  0.057 sec
 * total energy  :   -83.6146971 Eh     change       -0.1598204E-04 Eh
   gradient norm :     0.0021251 Eh/α   predicted    -0.7832434E-05 ( -50.99%)
   displ. norm   :     0.0753555 α      lambda       -0.1361111E-04
   maximum displ.:     0.0405822 α      in ANC's #4, #1, #2, ...

........................................................................
.............................. CYCLE   27 ..............................
........................................................................
   1    -84.3493872 -0.843494E+02  0.151E-03    0.20       0.0  T
   2    -84.3493869  0.281627E-06  0.242E-03    0.20       6.4  T
   3    -84.3493875 -0.549148E-06  0.393E-04    0.20      39.3  T
   4    -84.3493875  0.312284E-09  0.278E-04    0.20      55.5  T
   5    -84.3493875 -0.237037E-08  0.593E-05    0.20     260.3  T
   6    -84.3493875 -0.475922E-10  0.118E-05    0.20    1305.0  T
     SCC iter.                  ...        0 min,  0.035 sec
     gradient                   ...        0 min,  0.057 sec
 * total energy  :   -83.6147084 Eh     change       -0.1130089E-04 Eh
   gradient norm :     0.0013776 Eh/α   predicted    -0.6846737E-05 ( -39.41%)
   displ. norm   :     0.1799947 α      lambda       -0.1819266E-04
   maximum displ.:     0.0972856 α      in ANC's #1, #4, #2, ...

........................................................................
.............................. CYCLE   28 ..............................
........................................................................
   1    -84.3493297 -0.843493E+02  0.464E-03    0.19       0.0  T
   2    -84.3493263  0.334318E-05  0.794E-03    0.21       1.9  T
   3    -84.3493323 -0.597600E-05  0.137E-03    0.20      11.3  T
   4    -84.3493323 -0.435700E-07  0.756E-04    0.20      20.4  T
   5    -84.3493324 -0.154651E-07  0.199E-04    0.20      77.6  T
   6    -84.3493324 -0.683599E-09  0.456E-05    0.20     338.7  T
     SCC iter.                  ...        0 min,  0.032 sec
     gradient                   ...        0 min,  0.056 sec
 * total energy  :   -83.6147250 Eh     change       -0.1660627E-04 Eh
   gradient norm :     0.0013073 Eh/α   predicted    -0.9227738E-05 ( -44.43%)
   displ. norm   :     0.0986035 α      lambda       -0.7138172E-05
   maximum displ.:     0.0584402 α      in ANC's #1, #4, #2, ...

........................................................................
.............................. CYCLE   29 ..............................
........................................................................
   1    -84.3494640 -0.843495E+02  0.159E-03    0.20       0.0  T
   2    -84.3494639  0.231205E-07  0.142E-03    0.20      10.8  T
   3    -84.3494641 -0.136193E-06  0.572E-04    0.20      27.0  T
   4    -84.3494641 -0.320264E-07  0.318E-04    0.20      48.6  T
   5    -84.3494641 -0.339899E-08  0.119E-04    0.20     129.7  T
   6    -84.3494641 -0.624738E-09  0.234E-05    0.20     658.3  T
     SCC iter.                  ...        0 min,  0.032 sec
     gradient                   ...        0 min,  0.058 sec
 * total energy  :   -83.6147339 Eh     change       -0.8921308E-05 Eh
   gradient norm :     0.0010402 Eh/α   predicted    -0.3588864E-05 ( -59.77%)
   displ. norm   :     0.1256708 α      lambda       -0.9772990E-05
   maximum displ.:     0.0766500 α      in ANC's #1, #4, #2, ...

........................................................................
.............................. CYCLE   30 ..............................
........................................................................
   1    -84.3496584 -0.843497E+02  0.263E-03    0.20       0.0  T
   2    -84.3496582  0.191928E-06  0.278E-03    0.20       5.6  T
   3    -84.3496588 -0.621172E-06  0.872E-04    0.20      17.7  T
   4    -84.3496589 -0.528480E-07  0.541E-04    0.20      28.5  T
   5    -84.3496589 -0.115254E-07  0.216E-04    0.20      71.4  T
   6    -84.3496589 -0.164724E-08  0.358E-05    0.20     430.9  T
   7    -84.3496589 -0.608935E-10  0.979E-06    0.20    1575.7  T
     SCC iter.                  ...        0 min,  0.038 sec
     gradient                   ...        0 min,  0.058 sec
 * total energy  :   -83.6147452 Eh     change       -0.1121411E-04 Eh
   gradient norm :     0.0006052 Eh/α   predicted    -0.4923015E-05 ( -56.10%)
   displ. norm   :     0.1320137 α      lambda       -0.7542768E-05
   maximum displ.:     0.0828050 α      in ANC's #1, #4, #2, ...

........................................................................
.............................. CYCLE   31 ..............................
........................................................................
   1    -84.3495242 -0.843495E+02  0.264E-03    0.20       0.0  T
   2    -84.3495241  0.259598E-07  0.259E-03    0.20       6.0  T
   3    -84.3495246 -0.492773E-06  0.910E-04    0.20      17.0  T
   4    -84.3495247 -0.540216E-07  0.604E-04    0.20      25.6  T
   5    -84.3495247 -0.176484E-07  0.216E-04    0.20      71.5  T
   6    -84.3495247 -0.144418E-08  0.341E-05    0.20     453.1  T
   7    -84.3495247 -0.557918E-10  0.908E-06    0.20    1700.2  T
     SCC iter.                  ...        0 min,  0.037 sec
     gradient                   ...        0 min,  0.058 sec
 * total energy  :   -83.6147535 Eh     change       -0.8349099E-05 Eh
   gradient norm :     0.0008513 Eh/α   predicted    -0.3801519E-05 ( -54.47%)
   displ. norm   :     0.0999702 α      lambda       -0.5481895E-05
   maximum displ.:     0.0666839 α      in ANC's #1, #4, #2, ...

........................................................................
.............................. CYCLE   32 ..............................
........................................................................
   1    -84.3496918 -0.843497E+02  0.187E-03    0.20       0.0  T
   2    -84.3496919 -0.773257E-07  0.136E-03    0.20      11.3  T
   3    -84.3496920 -0.822837E-07  0.669E-04    0.20      23.1  T
   4    -84.3496920 -0.219674E-07  0.358E-04    0.20      43.1  T
   5    -84.3496920 -0.715119E-08  0.134E-04    0.20     115.0  T
   6    -84.3496920 -0.630237E-09  0.209E-05    0.20     737.9  T
     SCC iter.                  ...        0 min,  0.031 sec
     gradient                   ...        0 min,  0.056 sec
 * total energy  :   -83.6147601 Eh     change       -0.6598517E-05 Eh
   gradient norm :     0.0009646 Eh/α   predicted    -0.2753744E-05 ( -58.27%)
   displ. norm   :     0.0981850 α      lambda       -0.6002292E-05
   maximum displ.:     0.0678423 α      in ANC's #1, #4, #2, ...

........................................................................
.............................. CYCLE   33 ..............................
........................................................................
   1    -84.3496602 -0.843497E+02  0.232E-03    0.20       0.0  T
   2    -84.3496597  0.444651E-06  0.303E-03    0.20       5.1  T
   3    -84.3496606 -0.840257E-06  0.626E-04    0.20      24.7  T
   4    -84.3496606 -0.243465E-07  0.256E-04    0.20      60.2  T
   5    -84.3496606 -0.708553E-09  0.103E-04    0.20     149.4  T
   6    -84.3496606 -0.191960E-09  0.173E-05    0.20     889.7  T
     SCC iter.                  ...        0 min,  0.031 sec
     gradient                   ...        0 min,  0.058 sec
 * total energy  :   -83.6147679 Eh     change       -0.7832398E-05 Eh
   gradient norm :     0.0007858 Eh/α   predicted    -0.3018466E-05 ( -61.46%)
   displ. norm   :     0.1171758 α      lambda       -0.8160493E-05
   maximum displ.:     0.0832338 α      in ANC's #1, #4, #2, ...

........................................................................
.............................. CYCLE   34 ..............................
........................................................................
   1    -84.3495813 -0.843496E+02  0.306E-03    0.20       0.0  T
   2    -84.3495798  0.150632E-05  0.485E-03    0.20       3.2  T
   3    -84.3495822 -0.236320E-05  0.429E-04    0.20      36.0  T
   4    -84.3495822 -0.351625E-08  0.260E-04    0.20      59.3  T
   5    -84.3495822 -0.154449E-08  0.864E-05    0.20     178.6  T
   6    -84.3495822 -0.126960E-09  0.158E-05    0.20     975.0  T
     SCC iter.                  ...        0 min,  0.032 sec
     gradient                   ...        0 min,  0.056 sec
 * total energy  :   -83.6147782 Eh     change       -0.1025555E-04 Eh
   gradient norm :     0.0005721 Eh/α   predicted    -0.4106302E-05 ( -59.96%)
   displ. norm   :     0.1372185 α      lambda       -0.8838412E-05
   maximum displ.:     0.0988597 α      in ANC's #1, #3, #4, ...

........................................................................
.............................. CYCLE   35 ..............................
........................................................................
   1    -84.3495067 -0.843495E+02  0.270E-03    0.19       0.0  T
   2    -84.3495056  0.105610E-05  0.407E-03    0.20       3.8  T
   3    -84.3495072 -0.163875E-05  0.480E-04    0.20      32.1  T
   4    -84.3495072 -0.100002E-07  0.260E-04    0.20      59.3  T
   5    -84.3495073 -0.162387E-08  0.735E-05    0.20     210.0  T
   6    -84.3495073 -0.970743E-10  0.168E-05    0.20     921.1  T
     SCC iter.                  ...        0 min,  0.031 sec
     gradient                   ...        0 min,  0.056 sec
 * total energy  :   -83.6147888 Eh     change       -0.1056915E-04 Eh
   gradient norm :     0.0006395 Eh/α   predicted    -0.4457319E-05 ( -57.83%)
   displ. norm   :     0.1030637 α      lambda       -0.5999069E-05
   maximum displ.:     0.0757176 α      in ANC's #1, #3, #8, ...

........................................................................
.............................. CYCLE   36 ..............................
........................................................................
   1    -84.3493916 -0.843494E+02  0.125E-03    0.20       0.0  T
   2    -84.3493914  0.152080E-06  0.169E-03    0.20       9.1  T
   3    -84.3493917 -0.252550E-06  0.359E-04    0.20      43.0  T
   4    -84.3493917 -0.280147E-08  0.244E-04    0.20      63.2  T
   5    -84.3493917 -0.245699E-08  0.405E-05    0.20     380.9  T
   6    -84.3493917 -0.548965E-10  0.154E-05    0.20    1002.2  T
     SCC iter.                  ...        0 min,  0.031 sec
     gradient                   ...        0 min,  0.057 sec
 * total energy  :   -83.6147956 Eh     change       -0.6822506E-05 Eh
   gradient norm :     0.0007662 Eh/α   predicted    -0.3017068E-05 ( -55.78%)
   displ. norm   :     0.0551077 α      lambda       -0.3873632E-05
   maximum displ.:     0.0411474 α      in ANC's #1, #3, #8, ...

........................................................................
.............................. CYCLE   37 ..............................
........................................................................
   1    -84.3495745 -0.843496E+02  0.153E-03    0.20       0.0  T
   2    -84.3495741  0.424929E-06  0.245E-03    0.20       6.3  T
   3    -84.3495747 -0.632462E-06  0.324E-04    0.20      47.6  T
   4    -84.3495747 -0.263304E-08  0.153E-04    0.20     100.6  T
   5    -84.3495747 -0.336797E-10  0.295E-05    0.20     522.3  T
     SCC iter.                  ...        0 min,  0.027 sec
     gradient                   ...        0 min,  0.058 sec
 * total energy  :   -83.6148006 Eh     change       -0.4989543E-05 Eh
   gradient norm :     0.0006247 Eh/α   predicted    -0.1942384E-05 ( -61.07%)
   displ. norm   :     0.0639163 α      lambda       -0.5491376E-05
   maximum displ.:     0.0459480 α      in ANC's #1, #3, #18, ...

   *** GEOMETRY OPTIMIZATION CONVERGED AFTER 37 ITERATIONS ***

------------------------------------------------------------------------
 total energy gain   :        -0.0275394 Eh      -17.2812 kcal/mol
 total RMSD          :         0.7133781 a0        0.3775 Å
 total power (kW/mol):        -1.9541783 (step)  -15.5958 (real)
------------------------------------------------------------------------

 ANCopt (total)                0 d,  0 h,  0 min,  4.636 sec
 optimizer setup                ...        0 min,  0.001 sec (  0.014%)
 model hessian                  ...        0 min,  0.042 sec (  0.903%)
 ANC generation                 ...        0 min,  0.005 sec (  0.111%)
 coordinate transformation      ...        0 min,  0.001 sec (  0.017%)
 single point calculation       ...        0 min,  4.574 sec ( 98.652%)
 optimization log               ...        0 min,  0.007 sec (  0.161%)
 hessian update                 ...        0 min,  0.001 sec (  0.017%)
 rational function              ...        0 min,  0.003 sec (  0.075%)

================
 final structure:
================
42
 xtb: 6.5.1 (579679a)
C           -3.19070091718487        0.58476857733911        3.84525032620754
O           -3.31285853443547        0.39125574670621        2.45449829003609
C           -2.09430906491171        0.22689881876728        1.76633266808783
O           -1.04006588446179        0.28348048497410        2.43979478796169
C           -2.20179679350818       -0.01913807498648        0.39085443932803
N           -0.97748064098255       -0.07987091405482       -0.24191439326300
C           -0.85563051090638       -0.33989180601614       -1.49106826171171
C            0.51333866224669       -0.32410762065655       -2.14992631247316
C            0.87296883128028       -1.70044302393898       -2.73275327230759
C            0.57327496224031        0.75227087847537       -3.24574344525150
N            1.45007822569753        0.00791995719943       -1.07674511572955
C            2.77395732861951        0.11965571681517       -1.20819207706163
O            3.40913336511774        0.00011871706053       -2.25226947787176
C            3.42290593133967        0.42312740765377        0.09671373918628
N            2.81853511091189        0.62868656013311        1.22909589665152
N            3.79027085943568        0.86692457409534        2.15794245065366
C            4.92315493516570        0.79127864005045        1.53503944226947
C            6.27762260873799        0.96558987738219        2.10515715313157
O            4.76466439402812        0.51593067528047        0.22997918473057
N           -1.95649494721528       -0.67233431741648       -2.30200072813656
C           -3.20355284302015       -0.82972072327312       -1.75255269424147
O           -4.04075396200619       -1.49878092896566       -2.37131319535515
C           -3.49822757275473        0.03809549730394       -0.47924684210639
C           -4.68446693559718       -0.67970005349250        0.25688187292424
O           -3.81193438316291        1.27005787043183       -0.91173849411312
H           -2.70493014811804       -0.27239958912074        4.33006331718837
H           -2.60779242837705        1.48549133752851        4.08037690873234
H           -4.19743699743016        0.69806642006556        4.25198775493598
H            0.17120163129608       -1.96441712959749       -3.52141423229697
H            1.87549129439325       -1.68305104318764       -3.15665308201259
H            0.83114990918880       -2.45949816566634       -1.95256369211524
H           -0.19101858952966        0.55046095954779       -3.99421734430781
H            0.39481569501063        1.73699225199042       -2.81361845633599
H            1.54758907334611        0.74962005538330       -3.73132765490677
H            1.01557967926414        0.11022296207702       -0.15246138742211
H            6.20251833697641        1.15572691538265        3.17265740759913
H            6.78405962970205        1.80051122449479        1.62237421482111
H            6.87227827302165        0.06867095492757        1.93652444722758
H           -1.78213762286071       -1.16795660622516       -3.15979050036475
H           -4.34464690368780       -1.56529132981665        0.79575140301789
H           -5.15396699954795        0.01274492398752        0.95310875176414
H           -5.43438405732612       -0.97796667863903       -0.47791879707225
 
 Bond Distances (Angstroems)
 ---------------------------
C1-O2=1.4095         C1-H26=1.0981        C1-H27=1.0983        C1-H28=1.0917        O2-C1=1.4095         O2-C3=1.4091         
C3-O2=1.4091         C3-O4=1.2523         C3-C5=1.4014         O4-C3=1.2523         C5-C3=1.4014         C5-N6=1.3795         
C5-C23=1.5624        N6-C5=1.3795         N6-C7=1.2817         C7-N6=1.2817         C7-C8=1.5193         C7-N20=1.4071        
C8-C7=1.5193         C8-C9=1.5373         C8-C10=1.5372        C8-N11=1.4627        C9-C8=1.5373         C9-H29=1.0882        
C9-H30=1.0886        C9-H31=1.0893        C10-C8=1.5372        C10-H32=1.0886       C10-H33=1.0901       C10-H34=1.0886       
N11-C8=1.4627        N11-C12=1.3351       N11-H35=1.0264       C12-N11=1.3351       C12-O13=1.2279       C12-C14=1.4886       
O13-C12=1.2279       C14-C12=1.4886       C14-N15=1.2999       C14-O19=1.3516       N15-C14=1.2999       N15-N16=1.3652       
N16-N15=1.3652       N16-C17=1.2951       C17-N16=1.2951       C17-C18=1.4799       C17-O19=1.3432       C18-C17=1.4799       
C18-H36=1.0869       C18-H37=1.0893       C18-H38=1.0893       O19-C14=1.3516       O19-C17=1.3432       N20-C7=1.4071        
N20-C21=1.3718       N20-H39=1.0059       C21-N20=1.3718       C21-O22=1.2375       C21-C23=1.5688       O22-C21=1.2375       
C23-C5=1.5624        C23-C21=1.5688       C23-C24=1.5698       C23-O25=1.3428       C24-C23=1.5698       C24-H40=1.0909       
C24-H41=1.0884       C24-H42=1.0915       O25-C23=1.3428       H26-C1=1.0981        H27-C1=1.0983        H28-C1=1.0917        
H29-C9=1.0882        H30-C9=1.0886        H31-C9=1.0893        H32-C10=1.0886       H33-C10=1.0901       H34-C10=1.0886       
H35-N11=1.0264       H36-C18=1.0869       H37-C18=1.0893       H38-C18=1.0893       H39-N20=1.0059       H40-C24=1.0909       
H41-C24=1.0884       H42-C24=1.0915       
 C  H  Rav=1.0905 sigma=0.0033  Rmin=1.0869  Rmax=1.0983    15
 C  C  Rav=1.5183 sigma=0.0515  Rmin=1.4014  Rmax=1.5698     9
 N  H  Rav=1.0162 sigma=0.0103  Rmin=1.0059  Rmax=1.0264     2
 N  C  Rav=1.3541 sigma=0.0587  Rmin=1.2817  Rmax=1.4627     8
 N  N  Rav=1.3652 sigma=0.0000  Rmin=1.3652  Rmax=1.3652     1
 O  C  Rav=1.3217 sigma=0.0688  Rmin=1.2279  Rmax=1.4095     8
 
 selected bond angles (degree)
 --------------------
H26-C1-O2=111.52               H27-C1-O2=111.70               H27-C1-H26=108.11              H28-C1-O2=107.58               
H28-C1-H26=108.93              H28-C1-H27=108.94              C3-O2-C1=115.02                O4-C3-O2=117.39                
C5-C3-O2=115.69                C5-C3-O4=126.89                N6-C5-C3=112.95                C23-C5-C3=127.14               
C23-C5-N6=118.85               C7-N6-C5=122.71                C8-C7-N6=120.41                N20-C7-N6=122.36               
N20-C7-C8=117.22               C9-C8-C7=111.46                C10-C8-C7=110.58               C10-C8-C9=110.34               
N11-C8-C7=105.14               N11-C8-C9=109.36               N11-C8-C10=109.82              H29-C9-C8=109.94               
H30-C9-C8=110.41               H30-C9-H29=108.39              H31-C9-C8=110.08               H31-C9-H29=108.98              
H31-C9-H30=108.99              H32-C10-C8=109.45              H33-C10-C8=110.09              H33-C10-H32=108.97             
H34-C10-C8=110.56              H34-C10-H32=108.74             H34-C10-H33=109.00             
 
 selected dihedral angles (degree)
 ---------------------------------
C3-O2-C1-H26=299.35           C3-O2-C1-H27= 60.45           C3-O2-C1-H28=179.96           O4-C3-O2-C1=359.17            
C5-C3-O2-C1=177.58            N6-C5-C3-O2=175.84            N6-C5-C3-O4=354.07            C23-C5-C3-O2=  7.85           
C23-C5-C3-O4=186.09           C7-N6-C5-C3=177.61            C7-N6-C5-C23=346.69           C8-C7-N6-C5=176.87            
N20-C7-N6-C5=355.69           C9-C8-C7-N6=118.92            C9-C8-C7-N20=300.05           C10-C8-C7-N6=242.05           
C10-C8-C7-N20= 63.17          N11-C8-C7-N6=  0.53           N11-C8-C7-N20=181.65          H29-C9-C8-C7= 63.23           
H29-C9-C8-C10=299.96          H29-C9-C8-N11=179.06          H30-C9-C8-C7=182.78           H30-C9-C8-C10= 59.51          
H30-C9-C8-N11=298.61          H31-C9-C8-C7=303.15           H31-C9-C8-C10=179.89          H31-C9-C8-N11= 58.98          
H32-C10-C8-C7=300.91          H32-C10-C8-C9= 64.68          H32-C10-C8-N11=185.31         H33-C10-C8-C7= 60.66          
H33-C10-C8-C9=184.44          H33-C10-C8-N11=305.07         H34-C10-C8-C7=181.15          H34-C10-C8-C9=304.93          
H34-C10-C8-N11= 65.56         
           -------------------------------------------------
          |                Final Singlepoint                |
           -------------------------------------------------

          ...................................................
          :                      SETUP                      :
          :.................................................:
          :  # basis functions                 134          :
          :  # atomic orbitals                 134          :
          :  # shells                           84          :
          :  # electrons                       136          :
          :  # halogen bonds                     0          :
          :  max. iterations                   250          :
          :  Hamiltonian                  GFN1-xTB          :
          :  restarted?                      false          :
          :  GBSA solvation                   true          :
          :  PC potential                    false          :
          :  electronic temp.          300.0000000     K    :
          :  accuracy                    1.0000000          :
          :  -> integral cutoff          0.2500000E+02      :
          :  -> integral neglect         0.1000000E-07      :
          :  -> SCF convergence          0.1000000E-05 Eh   :
          :  -> wf. convergence          0.2000000E-04 e    :
          :  Broyden damping             0.4000000          :
          ...................................................

 iter      E             dE          RMSdq      gap      omega  full diag
   1    -84.3495747 -0.843496E+02  0.941E-06    0.20       0.0  T
   2    -84.3495747  0.369482E-12  0.711E-06    0.20    2169.8  T
   3    -84.3495747 -0.203215E-11  0.463E-06    0.20    3336.1  T

   *** convergence criteria satisfied after 3 iterations ***

         #    Occupation            Energy/Eh            Energy/eV
      -------------------------------------------------------------
         1        2.0000           -0.8479646             -23.0743
       ...           ...                  ...                  ...
        62        2.0000           -0.3996181             -10.8742
        63        2.0000           -0.3925712             -10.6824
        64        2.0000           -0.3832480             -10.4287
        65        2.0000           -0.3725071             -10.1364
        66        2.0000           -0.3066906              -8.3455
        67        1.9961           -0.2992666              -8.1435
        68        1.9588           -0.2970147              -8.0822 (HOMO)
        69        0.0451           -0.2897647              -7.8849 (LUMO)
        70                         -0.2435029              -6.6261
        71                         -0.2125607              -5.7841
        72                         -0.1776982              -4.8354
        73                         -0.1719311              -4.6785
       ...                                ...                  ...
       134                          0.7266538              19.7733
      -------------------------------------------------------------
                  HL-Gap            0.0072500 Eh            0.1973 eV
             Fermi-level           -0.2933455 Eh           -7.9823 eV

 SCC (total)                   0 d,  0 h,  0 min,  0.103 sec
 SCC setup                      ...        0 min,  0.002 sec (  1.614%)
 Dispersion                     ...        0 min,  0.000 sec (  0.242%)
 classical contributions        ...        0 min,  0.000 sec (  0.092%)
 integral evaluation            ...        0 min,  0.025 sec ( 24.300%)
 iterations                     ...        0 min,  0.016 sec ( 15.983%)
 molecular gradient             ...        0 min,  0.058 sec ( 56.560%)
 printout                       ...        0 min,  0.001 sec (  1.183%)

         :::::::::::::::::::::::::::::::::::::::::::::::::::::
         ::                     SUMMARY                     ::
         :::::::::::::::::::::::::::::::::::::::::::::::::::::
         :: total energy             -83.614800569299 Eh    ::
         :: total w/o Gsasa/hb       -83.595956282520 Eh    ::
         :: gradient norm              0.000626604853 Eh/a0 ::
         :: HOMO-LUMO gap              0.197281626596 eV    ::
         ::.................................................::
         :: SCC energy               -84.349574710960 Eh    ::
         :: -> electrostatic           0.761569100256 Eh    ::
         :: -> Gsolv                  -0.303097982299 Eh    ::
         ::    -> Gelec               -0.284253695521 Eh    ::
         ::    -> Gsasa               -0.023933983122 Eh    ::
         ::    -> Ghb                 -0.002534582661 Eh    ::
         ::    -> Gshift               0.007624279005 Eh    ::
         :: repulsion energy           0.760666595770 Eh    ::
         :: dispersion energy         -0.025892454109 Eh    ::
         :: halogen bond corr.         0.000000000000 Eh    ::
         :: add. restraining           0.000000000000 Eh    ::
         :: total charge              -2.000000000000 e     ::
         :::::::::::::::::::::::::::::::::::::::::::::::::::::

           -------------------------------------------------
          |                Property Printout                |
           -------------------------------------------------

    * Orbital Energies and Occupations

         #    Occupation            Energy/Eh            Energy/eV
      -------------------------------------------------------------
         1        2.0000           -0.8479646             -23.0743
       ...           ...                  ...                  ...
        56        2.0000           -0.4427052             -12.0466
        57        2.0000           -0.4365025             -11.8778
        58        2.0000           -0.4315726             -11.7437
        59        2.0000           -0.4247884             -11.5591
        60        2.0000           -0.4202320             -11.4351
        61        2.0000           -0.4150284             -11.2935
        62        2.0000           -0.3996181             -10.8742
        63        2.0000           -0.3925712             -10.6824
        64        2.0000           -0.3832480             -10.4287
        65        2.0000           -0.3725071             -10.1364
        66        2.0000           -0.3066906              -8.3455
        67        1.9961           -0.2992666              -8.1435
        68        1.9588           -0.2970147              -8.0822 (HOMO)
        69        0.0451           -0.2897647              -7.8849 (LUMO)
        70                         -0.2435029              -6.6261
        71                         -0.2125607              -5.7841
        72                         -0.1776982              -4.8354
        73                         -0.1719311              -4.6785
        74                         -0.1378665              -3.7515
        75                         -0.1137819              -3.0962
        76                         -0.1103748              -3.0035
        77                         -0.1048273              -2.8525
        78                         -0.1016107              -2.7650
        79                         -0.0749515              -2.0395
       ...                                ...                  ...
       134                          0.7266538              19.7733
      -------------------------------------------------------------
                  HL-Gap            0.0072500 Eh            0.1973 eV
             Fermi-level           -0.2933455 Eh           -7.9823 eV

  Mulliken/CM5 charges         n(s)   n(p)   n(d)
     1C     0.18722  0.06939   0.960  2.852  0.000
     2O    -0.47854 -0.56577   1.700  4.779  0.000
     3C     0.48130  0.54063   0.980  2.539  0.000
     4O    -0.71077 -0.75275   1.750  4.961  0.000
     5C    -0.07152  0.00258   1.055  3.017  0.000
     6N    -0.39110 -0.58383   1.532  3.859  0.000
     7C     0.19214  0.33854   0.990  2.818  0.000
     8C     0.15129  0.19157   1.064  2.784  0.000
     9C    -0.10376 -0.24366   1.017  3.087  0.000
    10C    -0.09765 -0.23706   1.015  3.083  0.000
    11N    -0.32155 -0.66659   1.433  3.889  0.000
    12C     0.45239  0.56323   0.972  2.576  0.000
    13O    -0.60545 -0.64943   1.731  4.875  0.000
    14C     0.32555  0.45081   1.013  2.661  0.000
    15N    -0.24635 -0.35609   1.568  3.678  0.000
    16N    -0.27598 -0.38417   1.566  3.710  0.000
    17C     0.38140  0.49051   1.003  2.615  0.000
    18C    -0.11059 -0.24811   1.010  3.100  0.000
    19O    -0.35160 -0.40260   1.695  4.657  0.000
    20N    -0.34631 -0.68848   1.435  3.911  0.000
    21C     0.42606  0.52693   1.042  2.532  0.000
    22O    -0.65383 -0.69662   1.747  4.907  0.000
    23C     0.25870  0.28583   1.029  2.713  0.000
    24C    -0.10943 -0.24918   1.016  3.093  0.000
    25O    -0.86356 -0.90015   1.777  5.087  0.000
    26H     0.01023  0.07155   0.990  0.000  0.000
    27H     0.01042  0.07173   0.990  0.000  0.000
    28H     0.01002  0.06999   0.990  0.000  0.000
    29H     0.03243  0.08842   0.968  0.000  0.000
    30H     0.04421  0.10411   0.956  0.000  0.000
    31H     0.03057  0.08710   0.969  0.000  0.000
    32H     0.03113  0.08740   0.969  0.000  0.000
    33H     0.03009  0.08662   0.970  0.000  0.000
    34H     0.03992  0.09905   0.960  0.000  0.000
    35H     0.23282  0.44661   0.767  0.000  0.000
    36H     0.06344  0.11934   0.937  0.000  0.000
    37H     0.07209  0.12657   0.928  0.000  0.000
    38H     0.07218  0.12676   0.928  0.000  0.000
    39H     0.21733  0.41959   0.783  0.000  0.000
    40H    -0.01783  0.03814   1.018  0.000  0.000
    41H     0.00301  0.06276   0.997  0.000  0.000
    42H    -0.00011  0.05871   1.000  0.000  0.000

Wiberg/Mayer (AO) data.
largest (>0.10) Wiberg bond orders for each atom

 ---------------------------------------------------------------------------
     #   Z sym  total        # sym  WBO       # sym  WBO       # sym  WBO
 ---------------------------------------------------------------------------
     1   6 C    3.923 --    28 H    0.987    26 H    0.980    27 H    0.980
                             2 O    0.955
     2   8 O    2.080 --     1 C    0.955     3 C    0.928
     3   6 C    3.850 --     4 O    1.438     5 C    1.344     2 O    0.928
     4   8 O    1.742 --     3 C    1.438     5 C    0.111
     5   6 C    3.834 --     3 C    1.344     6 N    1.175    23 C    0.919
                             4 O    0.111
     6   7 N    3.086 --     7 C    1.616     5 C    1.175
     7   6 C    3.901 --     6 N    1.616    20 N    1.013     8 C    0.974
     8   6 C    3.929 --     9 C    0.984    10 C    0.983     7 C    0.974
                            11 N    0.923
     9   6 C    3.990 --    31 H    0.987     8 C    0.984    29 H    0.984
                            30 H    0.982
    10   6 C    3.991 --    33 H    0.986    32 H    0.986     8 C    0.983
                            34 H    0.983
    11   7 N    3.380 --    12 C    1.301     8 C    0.923    35 H    0.868
                            13 O    0.185
    12   6 C    3.912 --    13 O    1.543    11 N    1.301    14 C    0.989
    13   8 O    1.859 --    12 C    1.543    11 N    0.185
    14   6 C    3.847 --    15 N    1.605    19 O    1.050    12 C    0.989
    15   7 N    2.987 --    14 C    1.605    16 N    1.189
    16   7 N    2.981 --    17 C    1.619    15 N    1.189
    17   6 C    3.870 --    16 N    1.619    19 O    1.077    18 C    1.029
    18   6 C    3.989 --    17 C    1.029    36 H    0.984    38 H    0.966
                            37 H    0.965
    19   8 O    2.307 --    17 C    1.077    14 C    1.050
    20   7 N    3.347 --    21 C    1.167     7 C    1.013    39 H    0.913
                            22 O    0.115
    21   6 C    3.814 --    22 O    1.562    20 N    1.167    23 C    0.881
    22   8 O    1.832 --    21 C    1.562    20 N    0.115
    23   6 C    3.964 --    25 O    1.123    24 C    0.945     5 C    0.919
                            21 C    0.881
    24   6 C    3.988 --    40 H    0.991    41 H    0.987    42 H    0.985
                            23 C    0.945
    25   8 O    1.424 --    23 C    1.123
    26   1 H    1.022 --     1 C    0.980
    27   1 H    1.023 --     1 C    0.980
    28   1 H    1.020 --     1 C    0.987
    29   1 H    1.005 --     9 C    0.984
    30   1 H    1.012 --     9 C    0.982
    31   1 H    1.008 --     9 C    0.987
    32   1 H    1.006 --    10 C    0.986
    33   1 H    1.008 --    10 C    0.986
    34   1 H    1.012 --    10 C    0.983
    35   1 H    0.992 --    11 N    0.868
    36   1 H    1.000 --    18 C    0.984
    37   1 H    0.998 --    18 C    0.965
    38   1 H    0.998 --    18 C    0.966
    39   1 H    0.968 --    20 N    0.913
    40   1 H    1.018 --    24 C    0.991
    41   1 H    1.034 --    24 C    0.987
    42   1 H    1.026 --    24 C    0.985
 ---------------------------------------------------------------------------

Topologies differ in total number of bonds
Writing topology from bond orders to xtbtopo.mol

 dipole moment from electron density (au)
     X       Y       Z   
   9.4894  -1.5200   1.0301  total (Debye):   24.567

           -------------------------------------------------
          |                Geometry Summary                 |
           -------------------------------------------------

      molecular mass/u    :      351.3152409
   center of mass at/Å    :        0.0059421       0.0691248      -0.1379738
  moments of inertia/u·Å² :        0.1508765E+04   0.3847683E+04   0.5121111E+04
rotational constants/cm⁻¹ :        0.1117314E-01   0.4381243E-02   0.3291792E-02

 * 33 selected distances

     #   Z          #   Z                                           value/Å
     1   6 C        2   8 O                                       1.4094543
     3   6 C        5   6 C                                       1.4014380
     6   7 N        7   6 C                                       1.2817348
     8   6 C        9   6 C                                       1.5373096 (max)
     8   6 C       10   6 C                                       1.5372048
     8   6 C       11   7 N                                       1.4626830
    11   7 N       12   6 C                                       1.3350728
    12   6 C       13   8 O                                       1.2279396
    14   6 C       15   7 N                                       1.2999263
    16   7 N       17   6 C                                       1.2950510
    17   6 C       18   6 C                                       1.4798654
    14   6 C       19   8 O                                       1.3515503
    17   6 C       19   8 O                                       1.3431747
     7   6 C       20   7 N                                       1.4071362
    20   7 N       21   6 C                                       1.3717935
    21   6 C       22   8 O                                       1.2375024
     1   6 C       26   1 H                                       1.0980685
     1   6 C       27   1 H                                       1.0983481
     1   6 C       28   1 H                                       1.0916911
     9   6 C       29   1 H                                       1.0881847
     9   6 C       30   1 H                                       1.0885977
     9   6 C       31   1 H                                       1.0893161
    10   6 C       32   1 H                                       1.0886162
    10   6 C       33   1 H                                       1.0900716
    10   6 C       34   1 H                                       1.0886171
    11   7 N       35   1 H                                       1.0264285
    18   6 C       36   1 H                                       1.0868991
    18   6 C       37   1 H                                       1.0893354
    18   6 C       38   1 H                                       1.0892732
    20   7 N       39   1 H                                       1.0059053 (min)
    24   6 C       40   1 H                                       1.0909309
    24   6 C       41   1 H                                       1.0884128
    24   6 C       42   1 H                                       1.0914536

 * 5 distinct bonds (by element types)

   Z      Z             #   av. dist./Å        max./Å        min./Å
   1 H    6 C          15     1.0905211     1.0983481     1.0868991
   6 C    6 C           4     1.4889545     1.5373096     1.4014380
   1 H    7 N           2     1.0161669     1.0264285     1.0059053
   6 C    7 N           7     1.3504854     1.4626830     1.2817348
   6 C    8 O           5     1.3139242     1.4094543     1.2279396


optimized geometry written to: xtbopt.xyz


           -------------------------------------------------
          | TOTAL ENERGY              -83.614800569299 Eh   |
          | GRADIENT NORM               0.000626604853 Eh/α |
          | HOMO-LUMO GAP               0.197281626596 eV   |
           -------------------------------------------------

------------------------------------------------------------------------
 * finished run on 2023/06/21 at 17:16:12.307     
------------------------------------------------------------------------
 total:
 * wall-time:     0 d,  0 h,  0 min,  5.103 sec
 *  cpu-time:     0 d,  0 h,  0 min,  4.970 sec
 * ratio c/w:     0.974 speedup
 SCF:
 * wall-time:     0 d,  0 h,  0 min,  0.242 sec
 *  cpu-time:     0 d,  0 h,  0 min,  0.199 sec
 * ratio c/w:     0.820 speedup
 ANC optimizer:
 * wall-time:     0 d,  0 h,  0 min,  4.744 sec
 *  cpu-time:     0 d,  0 h,  0 min,  4.732 sec
 * ratio c/w:     0.997 speedup

