42
 energy: -83.614800569299 gnorm: 0.000626604853 xtb: 6.5.1 (579679a)
C           -3.19070091718487        0.58476857733911        3.84525032620754
O           -3.31285853443547        0.39125574670621        2.45449829003609
C           -2.09430906491171        0.22689881876728        1.76633266808783
O           -1.04006588446179        0.28348048497410        2.43979478796169
C           -2.20179679350818       -0.01913807498648        0.39085443932803
N           -0.97748064098255       -0.07987091405482       -0.24191439326300
C           -0.85563051090638       -0.33989180601614       -1.49106826171171
C            0.51333866224669       -0.32410762065655       -2.14992631247316
C            0.87296883128028       -1.70044302393898       -2.73275327230759
C            0.57327496224031        0.75227087847537       -3.24574344525150
N            1.45007822569753        0.00791995719943       -1.07674511572955
C            2.77395732861951        0.11965571681517       -1.20819207706163
O            3.40913336511774        0.00011871706053       -2.25226947787176
C            3.42290593133967        0.42312740765377        0.09671373918628
N            2.81853511091189        0.62868656013311        1.22909589665152
N            3.79027085943568        0.86692457409534        2.15794245065366
C            4.92315493516570        0.79127864005045        1.53503944226947
C            6.27762260873799        0.96558987738219        2.10515715313157
O            4.76466439402812        0.51593067528047        0.22997918473057
N           -1.95649494721528       -0.67233431741648       -2.30200072813656
C           -3.20355284302015       -0.82972072327312       -1.75255269424147
O           -4.04075396200619       -1.49878092896566       -2.37131319535515
C           -3.49822757275473        0.03809549730394       -0.47924684210639
C           -4.68446693559718       -0.67970005349250        0.25688187292424
O           -3.81193438316291        1.27005787043183       -0.91173849411312
H           -2.70493014811804       -0.27239958912074        4.33006331718837
H           -2.60779242837705        1.48549133752851        4.08037690873234
H           -4.19743699743016        0.69806642006556        4.25198775493598
H            0.17120163129608       -1.96441712959749       -3.52141423229697
H            1.87549129439325       -1.68305104318764       -3.15665308201259
H            0.83114990918880       -2.45949816566634       -1.95256369211524
H           -0.19101858952966        0.55046095954779       -3.99421734430781
H            0.39481569501063        1.73699225199042       -2.81361845633599
H            1.54758907334611        0.74962005538330       -3.73132765490677
H            1.01557967926414        0.11022296207702       -0.15246138742211
H            6.20251833697641        1.15572691538265        3.17265740759913
H            6.78405962970205        1.80051122449479        1.62237421482111
H            6.87227827302165        0.06867095492757        1.93652444722758
H           -1.78213762286071       -1.16795660622516       -3.15979050036475
H           -4.34464690368780       -1.56529132981665        0.79575140301789
H           -5.15396699954795        0.01274492398752        0.95310875176414
H           -5.43438405732612       -0.97796667863903       -0.47791879707225
