      -----------------------------------------------------------      
     |                   =====================                   |     
     |                           x T B                           |     
     |                   =====================                   |     
     |                         S. Grimme                         |     
     |          Mulliken Center for Theoretical Chemistry        |     
     |                    University of Bonn                     |     
      -----------------------------------------------------------      

   * xtb version 6.5.1 (579679a) compiled by 'ehlert@majestix' on 2022-07-11

   xtb is free software: you can redistribute it and/or modify it under
   the terms of the GNU Lesser General Public License as published by
   the Free Software Foundation, either version 3 of the License, or
   (at your option) any later version.
   
   xtb is distributed in the hope that it will be useful,
   but WITHOUT ANY WARRANTY; without even the implied warranty of
   MERCHANTABILITY or FITNESS FOR A PARTICULAR PURPOSE.  See the
   GNU Lesser General Public License for more details.
   
   Cite this work as:
   * C. Bannwarth, E. Caldeweyher, S. Ehlert, A. Hansen, P. Pracht,
     J. Seibert, S. Spicher, S. Grimme, WIREs Comput. Mol. Sci., 2020, 11,
     e01493. DOI: 10.1002/wcms.1493
   
   for GFN2-xTB:
   * C. Bannwarth, S. Ehlert and S. Grimme., J. Chem. Theory Comput., 2019,
     15, 1652-1671. DOI: 10.1021/acs.jctc.8b01176
   for GFN1-xTB:
   * S. Grimme, C. Bannwarth, P. Shushkov, J. Chem. Theory Comput., 2017,
     13, 1989-2009. DOI: 10.1021/acs.jctc.7b00118
   for GFN0-xTB:
   * P. Pracht, E. Caldeweyher, S. Ehlert, S. Grimme, ChemRxiv, 2019, preprint.
     DOI: 10.26434/chemrxiv.8326202.v1
   for GFN-FF:
   * S. Spicher and S. Grimme, Angew. Chem. Int. Ed., 2020, 59, 15665-15673.
     DOI: 10.1002/anie.202004239
   
   for ALPB and GBSA implicit solvation:
   * S. Ehlert, M. Stahn, S. Spicher, S. Grimme, J. Chem. Theory Comput.,
     2021, 17, 4250-4261. DOI: 10.1021/acs.jctc.1c00471
   
   for DFT-D4:
   * E. Caldeweyher, C. Bannwarth and S. Grimme, J. Chem. Phys., 2017,
     147, 034112. DOI: 10.1063/1.4993215
   * E. Caldeweyher, S. Ehlert, A. Hansen, H. Neugebauer, S. Spicher,
     C. Bannwarth and S. Grimme, J. Chem. Phys., 2019, 150, 154122.
     DOI: 10.1063/1.5090222
   * E. Caldeweyher, J.-M. Mewes, S. Ehlert and S. Grimme, Phys. Chem. Chem. Phys.
     2020, 22, 8499-8512. DOI: 10.1039/D0CP00502A
   
   for sTDA-xTB:
   * S. Grimme and C. Bannwarth, J. Chem. Phys., 2016, 145, 054103.
     DOI: 10.1063/1.4959605
   
   in the mass-spec context:
   * V. Asgeirsson, C. Bauer and S. Grimme, Chem. Sci., 2017, 8, 4879.
     DOI: 10.1039/c7sc00601b
   * J. Koopman and S. Grimme, ACS Omega 2019, 4, 12, 15120-15133.
     DOI: 10.1021/acsomega.9b02011
   
   for metadynamics refer to:
   * S. Grimme, J. Chem. Theory Comput., 2019, 155, 2847-2862
     DOI: 10.1021/acs.jctc.9b00143
   
   for SPH calculations refer to:
   * S. Spicher and S. Grimme, J. Chem. Theory Comput., 2021, 17, 1701-1714
     DOI: 10.1021/acs.jctc.0c01306
   
   with help from (in alphabetical order)
   P. Atkinson, C. Bannwarth, F. Bohle, G. Brandenburg, E. Caldeweyher
   M. Checinski, S. Dohm, S. Ehlert, S. Ehrlich, I. Gerasimov, C. Hölzer
   A. Katbashev, J. Koopman, C. Lavigne, S. Lehtola, F. März, M. Müller,
   F. Musil, H. Neugebauer, J. Pisarek, C. Plett, P. Pracht, F. Pultar,
   J. Seibert, P. Shushkov, S. Spicher, M. Stahn, M. Steiner, T. Strunk,
   J. Stückrath, T. Rose, and J. Unsleber
   
 * started run on 2023/06/21 at 17:17:03.374     

           -------------------------------------------------
          |                Calculation Setup                |
           -------------------------------------------------

          program call               : /lustre/hpc/kemi/ree/PhD/git/ReactivityQM/dep/xtb-6.5.1/bin/xtb --gfn 1 /lustre/hpc/kemi/ree/PhD/git/ReactivityQM/calculations/R02oxygendeprot/reac01prodN01/conf07/R02oxygendeprot_reac01prodN01_conf07_gfn1.xyz --opt --vfukui --chrg 0 --uhf 0 --alpb DMSO
          hostname                   : node070
          coordinate file            : /lustre/hpc/kemi/ree/PhD/git/ReactivityQM/calculations/R02oxygendeprot/reac01prodN01/conf07/R02oxygendeprot_reac01prodN01_conf07_gfn1.xyz
          omp threads                :                     1

   ID    Z sym.   atoms
    1    6 C      1, 3, 5, 7-10, 12, 14, 17, 18, 20, 22, 24
    2    8 O      2, 4, 13, 19, 23, 25
    3    7 N      6, 11, 15, 16, 21
    4    1 H      26-42

           -------------------------------------------------
          |                 G F N 1 - x T B                 |
           -------------------------------------------------

        Reference                      10.1021/acs.jctc.7b00118
      * Hamiltonian:
        H0-scaling (s, p, d)           1.850000    2.250000    2.000000
        zeta-weighting                 0.000000
      * Dispersion:
        s8                             2.400000
        a1                             0.630000
        a2                             5.000000
        s9                             0.000000
      * Repulsion:
        kExp                           1.500000
        rExp                           1.000000
      * Coulomb:
        alpha                          2.000000
        third order                    atomic
        anisotropic                    false
      * Halogen bond correction:
        rad-scale                      1.300000
        damping                        0.440000

      * Solvation model:               ALPB
        Solvent                        DMSO
        Parameter file                 internal GFN1-xTB/ALPB
        Dielectric constant                4.6680E+01
        Reference state                gsolv [1 M gas/solution]
        Free energy shift                  7.6243E-03 Eh       4.7843E+00 kcal/mol
        Temperature                        2.9815E+02 K
        Density                            1.1000E+00 kg/L
        Solvent mass                       7.8130E+01 g/mol
        Interaction kernel             P16
        Born radius scaling (c1)           1.7672E+00
        Born radii integrator          GBOBC
        Born offset                        0.0000E+00 a0       0.0000E+00 AA
        H-bond correction              true
        Ion screening                  false
        Surface tension                    1.0000E-05 Eh       1.5569E+01 dyn/cm
        Grid points                               230 per atom

          ...................................................
          :                      SETUP                      :
          :.................................................:
          :  # basis functions                 134          :
          :  # atomic orbitals                 134          :
          :  # shells                           84          :
          :  # electrons                       134          :
          :  # halogen bonds                     0          :
          :  max. iterations                   250          :
          :  Hamiltonian                  GFN1-xTB          :
          :  restarted?                      false          :
          :  GBSA solvation                   true          :
          :  PC potential                    false          :
          :  electronic temp.          300.0000000     K    :
          :  accuracy                    1.0000000          :
          :  -> integral cutoff          0.2500000E+02      :
          :  -> integral neglect         0.1000000E-07      :
          :  -> SCF convergence          0.1000000E-05 Eh   :
          :  -> wf. convergence          0.2000000E-04 e    :
          :  Broyden damping             0.4000000          :
          ...................................................

 iter      E             dE          RMSdq      gap      omega  full diag
   1    -83.2359325 -0.832359E+02  0.852E+00    2.64       0.0  T
   2    -83.6129015 -0.376969E+00  0.510E+00    0.64       1.0  T
   3    -83.2634694  0.349432E+00  0.244E+00    0.46       1.0  T
   4    -83.5529276 -0.289458E+00  0.135E+00    2.38       1.0  T
   5    -83.6255307 -0.726030E-01  0.596E-01    1.71       1.0  T
   6    -83.6345337 -0.900301E-02  0.415E-01    0.94       1.0  T
   7    -83.6409579 -0.642420E-02  0.237E-01    0.25       1.0  T
   8    -83.3051264  0.335831E+00  0.164E+00    0.36       1.0  T
   9    -83.6394999 -0.334373E+00  0.270E-01    0.33       1.0  T
  10    -83.6390559  0.444007E-03  0.277E-01    0.38       1.0  T
  11    -83.6396469 -0.590997E-03  0.258E-01    0.31       1.0  T
  12    -83.6417997 -0.215284E-02  0.207E-01    0.21       1.0  T
  13    -83.6445003 -0.270062E-02  0.140E-01    0.16       1.0  T
  14    -83.6457734 -0.127303E-02  0.963E-02    0.13       1.0  T
  15    -83.6469130 -0.113965E-02  0.158E-02    0.10       1.0  T
  16    -83.6462126  0.700439E-03  0.756E-02    0.13       1.0  T
  17    -83.6465059 -0.293276E-03  0.580E-02    0.09       1.0  T
  18    -83.6467624 -0.256501E-03  0.377E-02    0.11       1.0  T
  19    -83.6468991 -0.136728E-03  0.190E-02    0.10       1.0  T
  20    -83.6469401 -0.409958E-04  0.698E-03    0.11       2.2  T
  21    -83.6469453 -0.520250E-05  0.291E-03    0.10       5.3  T
  22    -83.6469464 -0.108626E-05  0.391E-04    0.10      39.4  T
  23    -83.6469464 -0.151267E-07  0.196E-04    0.10      78.8  T
  24    -83.6469464 -0.497000E-08  0.126E-05    0.10    1222.7  T

   *** convergence criteria satisfied after 24 iterations ***

         #    Occupation            Energy/Eh            Energy/eV
      -------------------------------------------------------------
         1        2.0000           -0.9304834             -25.3197
       ...           ...                  ...                  ...
        61        2.0000           -0.4718895             -12.8408
        62        2.0000           -0.4626224             -12.5886
        63        2.0000           -0.4594527             -12.5023
        64        2.0000           -0.4521386             -12.3033
        65        2.0000           -0.4388748             -11.9424
        66        2.0000           -0.3935753             -10.7097
        67        1.7606           -0.3776203             -10.2756 (HOMO)
        68        0.2394           -0.3738291             -10.1724 (LUMO)
        69                         -0.3054731              -8.3123
        70                         -0.2875009              -7.8233
        71                         -0.2611086              -7.1051
        72                         -0.2362327              -6.4282
       ...                                ...                  ...
       134                          0.7974428              21.6995
      -------------------------------------------------------------
                  HL-Gap            0.0037912 Eh            0.1032 eV
             Fermi-level           -0.3757247 Eh          -10.2240 eV

 SCC (total)                   0 d,  0 h,  0 min,  0.342 sec
 SCC setup                      ...        0 min,  0.002 sec (  0.575%)
 Dispersion                     ...        0 min,  0.000 sec (  0.095%)
 classical contributions        ...        0 min,  0.000 sec (  0.034%)
 integral evaluation            ...        0 min,  0.028 sec (  8.086%)
 iterations                     ...        0 min,  0.220 sec ( 64.343%)
 molecular gradient             ...        0 min,  0.090 sec ( 26.410%)
 printout                       ...        0 min,  0.002 sec (  0.449%)

         :::::::::::::::::::::::::::::::::::::::::::::::::::::
         ::                     SUMMARY                     ::
         :::::::::::::::::::::::::::::::::::::::::::::::::::::
         :: total energy             -82.880816022193 Eh    ::
         :: total w/o Gsasa/hb       -82.859092530989 Eh    ::
         :: gradient norm              0.140039880645 Eh/a0 ::
         :: HOMO-LUMO gap              0.103165041042 eV    ::
         ::.................................................::
         :: SCC energy               -83.646946395930 Eh    ::
         :: -> electrostatic           0.443617613563 Eh    ::
         :: -> Gsolv                  -0.109836721917 Eh    ::
         ::    -> Gelec               -0.088113230714 Eh    ::
         ::    -> Gsasa               -0.024754169068 Eh    ::
         ::    -> Ghb                 -0.004593601140 Eh    ::
         ::    -> Gshift               0.007624279005 Eh    ::
         :: repulsion energy           0.791868996579 Eh    ::
         :: dispersion energy         -0.025738622842 Eh    ::
         :: halogen bond corr.         0.000000000000 Eh    ::
         :: add. restraining           0.000000000000 Eh    ::
         :: total charge              -0.000000000002 e     ::
         :::::::::::::::::::::::::::::::::::::::::::::::::::::

      ----------------------------------------------------------- 
     |                   =====================                   |
     |                        A N C O P T                        |
     |                   =====================                   |
     |               Approximate Normal Coordinate               |
     |                Rational Function Optimizer                |
      ----------------------------------------------------------- 

          ...................................................
          :                      SETUP                      :
          :.................................................:
          :   optimization level            normal          :
          :   max. optcycles                   200          :
          :   ANC micro-cycles                  20          :
          :   degrees of freedom               120          :
          :.................................................:
          :   RF solver                   davidson          :
          :   write xtbopt.log                true          :
          :   linear?                        false          :
          :   energy convergence         0.5000000E-05 Eh   :
          :   grad. convergence          0.1000000E-02 Eh/α :
          :   maximium RF displ.         1.0000000          :
          :   Hlow (freq-cutoff)         0.1000000E-01      :
          :   Hmax (freq-cutoff)         5.0000000          :
          :   S6 in model hess.         20.0000000          :
          ...................................................

generating ANC from model Hessian ...
Using Lindh-Hessian (1995)
 Shifting diagonal of input Hessian by   9.839473987725762E-003
 Lowest  eigenvalues of input Hessian
    0.000000    0.000000    0.000000    0.000000    0.000000    0.000000
    0.010000    0.010246    0.010378    0.010729    0.011930    0.012481
    0.012623    0.013856    0.014060    0.014653    0.016263    0.017194
 Highest eigenvalues
    2.066313    2.096829    2.235427    2.341924    2.359144    2.456879
 

........................................................................
.............................. CYCLE    1 ..............................
........................................................................
   1    -83.6469464 -0.836469E+02  0.525E-06    0.10       0.0  T
   2    -83.6469464  0.273715E-09  0.462E-05    0.10     333.6  T
   3    -83.6469464 -0.277552E-09  0.143E-07    0.10  100000.0  T
     SCC iter.                  ...        0 min,  0.018 sec
     gradient                   ...        0 min,  0.063 sec
 * total energy  :   -82.8808160 Eh     change       -0.2049205E-10 Eh
   gradient norm :     0.1400413 Eh/α   predicted     0.0000000E+00 (-100.00%)
   displ. norm   :     0.3529497 α      lambda       -0.2213018E-01
   maximum displ.:     0.1403603 α      in ANC's #27, #23, #25, ...

........................................................................
.............................. CYCLE    2 ..............................
........................................................................
   1    -83.6579676 -0.836580E+02  0.223E-01    0.39       0.0  T
   2    -83.3125380  0.345430E+00  0.166E+00    0.18       1.0  T
   3    -83.6590740 -0.346536E+00  0.188E-01    0.30       1.0  T
   4    -83.6597070 -0.632915E-03  0.168E-01    0.25       1.0  T
   5    -83.6620097 -0.230277E-02  0.910E-02    0.16       1.0  T
   6    -83.6629288 -0.919069E-03  0.267E-02    0.11       1.0  T
   7    -83.6629558 -0.269866E-04  0.236E-02    0.13       1.0  T
   8    -83.6630247 -0.688816E-04  0.229E-03    0.12       6.7  T
   9    -83.6630249 -0.281735E-06  0.146E-03    0.12      10.6  T
  10    -83.6630249  0.901164E-08  0.143E-03    0.12      10.8  T
  11    -83.6630252 -0.234123E-06  0.385E-04    0.12      40.0  T
  12    -83.6630252 -0.174267E-07  0.447E-05    0.12     345.0  T
  13    -83.6630252 -0.262588E-09  0.655E-06    0.12    2356.0  T
     SCC iter.                  ...        0 min,  0.079 sec
     gradient                   ...        0 min,  0.064 sec
 * total energy  :   -82.8972964 Eh     change       -0.1648040E-01 Eh
   gradient norm :     0.0748909 Eh/α   predicted    -0.1246819E-01 ( -24.35%)
   displ. norm   :     0.4054467 α      lambda       -0.1211996E-01
   maximum displ.:     0.2009129 α      in ANC's #27, #25, #17, ...

........................................................................
.............................. CYCLE    3 ..............................
........................................................................
   1    -83.6780610 -0.836781E+02  0.180E-01    0.47       0.0  T
   2    -83.6456035  0.324575E-01  0.532E-01    0.04       1.0  T
   3    -83.6789963 -0.333928E-01  0.134E-01    0.37       1.0  T
   4    -83.6792598 -0.263488E-03  0.116E-01    0.31       1.0  T
   5    -83.6803371 -0.107726E-02  0.500E-02    0.19       1.0  T
   6    -83.6803964 -0.593593E-04  0.412E-02    0.14       1.0  T
   7    -83.6805533 -0.156830E-03  0.230E-02    0.17       1.0  T
   8    -83.6806141 -0.608712E-04  0.139E-03    0.16      11.1  T
   9    -83.6806140  0.160853E-06  0.167E-03    0.16       9.2  T
  10    -83.6806142 -0.226192E-06  0.883E-04    0.16      17.5  T
  11    -83.6806143 -0.856037E-07  0.176E-04    0.15      87.5  T
  12    -83.6806143 -0.334005E-08  0.208E-05    0.15     740.9  T
     SCC iter.                  ...        0 min,  0.070 sec
     gradient                   ...        0 min,  0.063 sec
 * total energy  :   -82.9049722 Eh     change       -0.7675777E-02 Eh
   gradient norm :     0.0250475 Eh/α   predicted    -0.7058824E-02 (  -8.04%)
   displ. norm   :     0.3397245 α      lambda       -0.3142650E-02
   maximum displ.:     0.1631748 α      in ANC's #27, #14, #5, ...

........................................................................
.............................. CYCLE    4 ..............................
........................................................................
   1    -83.6836489 -0.836836E+02  0.905E-02    0.32       0.0  T
   2    -83.6786395  0.500949E-02  0.219E-01    0.10       1.0  T
   3    -83.6840580 -0.541851E-02  0.597E-02    0.26       1.0  T
   4    -83.6841788 -0.120888E-03  0.468E-02    0.23       1.0  T
   5    -83.6843806 -0.201774E-03  0.130E-02    0.17       1.2  T
   6    -83.6843990 -0.184204E-04  0.383E-03    0.18       4.0  T
   7    -83.6844006 -0.154834E-05  0.170E-03    0.18       9.1  T
   8    -83.6844009 -0.285263E-06  0.193E-04    0.18      80.1  T
   9    -83.6844009 -0.382563E-08  0.107E-04    0.18     144.2  T
     SCC iter.                  ...        0 min,  0.053 sec
     gradient                   ...        0 min,  0.060 sec
 * total energy  :   -82.9073663 Eh     change       -0.2394134E-02 Eh
   gradient norm :     0.0190402 Eh/α   predicted    -0.1753171E-02 ( -26.77%)
   displ. norm   :     0.4401054 α      lambda       -0.2674039E-02
   maximum displ.:     0.1826445 α      in ANC's #27, #5, #9, ...

........................................................................
.............................. CYCLE    5 ..............................
........................................................................
   1    -83.6855241 -0.836855E+02  0.591E-02    0.32       0.0  T
   2    -83.6856918 -0.167675E-03  0.448E-02    0.19       1.0  T
   3    -83.6858102 -0.118446E-03  0.157E-02    0.23       1.0  T
   4    -83.6858157 -0.544092E-05  0.867E-03    0.21       1.8  T
   5    -83.6858211 -0.541877E-05  0.302E-03    0.22       5.1  T
   6    -83.6858211 -0.550268E-07  0.968E-04    0.22      15.9  T
   7    -83.6858212 -0.507974E-07  0.217E-04    0.22      71.1  T
   8    -83.6858212 -0.135002E-08  0.854E-05    0.22     180.8  T
   9    -83.6858212 -0.803340E-10  0.218E-05    0.22     707.8  T
     SCC iter.                  ...        0 min,  0.048 sec
     gradient                   ...        0 min,  0.056 sec
 * total energy  :   -82.9092699 Eh     change       -0.1903606E-02 Eh
   gradient norm :     0.0166128 Eh/α   predicted    -0.1596464E-02 ( -16.13%)
   displ. norm   :     0.3691110 α      lambda       -0.1428755E-02
   maximum displ.:     0.1538092 α      in ANC's #9, #5, #27, ...

........................................................................
.............................. CYCLE    6 ..............................
........................................................................
   1    -83.6887133 -0.836887E+02  0.285E-02    0.30       0.0  T
   2    -83.6887679 -0.545761E-04  0.177E-02    0.25       1.0  T
   3    -83.6887801 -0.122428E-04  0.552E-03    0.26       2.8  T
   4    -83.6887802 -0.115763E-06  0.244E-03    0.25       6.3  T
   5    -83.6887803 -0.691873E-07  0.800E-04    0.25      19.3  T
   6    -83.6887803 -0.173872E-07  0.163E-04    0.25      94.9  T
   7    -83.6887803 -0.486764E-09  0.716E-05    0.25     215.6  T
     SCC iter.                  ...        0 min,  0.037 sec
     gradient                   ...        0 min,  0.056 sec
 * total energy  :   -82.9103066 Eh     change       -0.1036699E-02 Eh
   gradient norm :     0.0157674 Eh/α   predicted    -0.8118444E-03 ( -21.69%)
   displ. norm   :     0.3295535 α      lambda       -0.9512453E-03
   maximum displ.:     0.1688570 α      in ANC's #9, #5, #4, ...

........................................................................
.............................. CYCLE    7 ..............................
........................................................................
   1    -83.6925708 -0.836926E+02  0.148E-02    0.30       0.0  T
   2    -83.6925798 -0.897231E-05  0.754E-03    0.28       2.0  T
   3    -83.6925809 -0.117642E-05  0.427E-03    0.28       3.6  T
   4    -83.6925810 -0.575299E-07  0.125E-03    0.28      12.3  T
   5    -83.6925810 -0.217891E-08  0.180E-04    0.28      85.8  T
   6    -83.6925810 -0.852324E-09  0.718E-05    0.28     215.1  T
     SCC iter.                  ...        0 min,  0.032 sec
     gradient                   ...        0 min,  0.056 sec
 * total energy  :   -82.9109951 Eh     change       -0.6884820E-03 Eh
   gradient norm :     0.0125617 Eh/α   predicted    -0.5273840E-03 ( -23.40%)
   displ. norm   :     0.3000024 α      lambda       -0.6042956E-03
   maximum displ.:     0.1684822 α      in ANC's #9, #5, #4, ...

........................................................................
.............................. CYCLE    8 ..............................
........................................................................
   1    -83.6950106 -0.836950E+02  0.131E-02    0.30       0.0  T
   2    -83.6950157 -0.516224E-05  0.708E-03    0.29       2.2  T
   3    -83.6950161 -0.426747E-06  0.412E-03    0.29       3.7  T
   4    -83.6950162 -0.515108E-07  0.897E-04    0.29      17.2  T
   5    -83.6950162 -0.118108E-07  0.136E-04    0.29     113.4  T
   6    -83.6950162 -0.414303E-09  0.507E-05    0.29     304.2  T
     SCC iter.                  ...        0 min,  0.029 sec
     gradient                   ...        0 min,  0.044 sec
 * total energy  :   -82.9114292 Eh     change       -0.4340741E-03 Eh
   gradient norm :     0.0084362 Eh/α   predicted    -0.3293693E-03 ( -24.12%)
   displ. norm   :     0.2654932 α      lambda       -0.3847891E-03
   maximum displ.:     0.1547776 α      in ANC's #9, #5, #4, ...

........................................................................
.............................. CYCLE    9 ..............................
........................................................................
   1    -83.6964445 -0.836964E+02  0.123E-02    0.29       0.0  T
   2    -83.6964501 -0.560043E-05  0.675E-03    0.29       2.3  T
   3    -83.6964507 -0.640583E-06  0.375E-03    0.29       4.1  T
   4    -83.6964507 -0.134285E-07  0.961E-04    0.29      16.1  T
   5    -83.6964508 -0.136476E-07  0.145E-04    0.29     106.3  T
   6    -83.6964508 -0.667583E-09  0.479E-05    0.29     322.2  T
     SCC iter.                  ...        0 min,  0.029 sec
     gradient                   ...        0 min,  0.048 sec
 * total energy  :   -82.9117051 Eh     change       -0.2759404E-03 Eh
   gradient norm :     0.0062401 Eh/α   predicted    -0.2059678E-03 ( -25.36%)
   displ. norm   :     0.2487225 α      lambda       -0.2585781E-03
   maximum displ.:     0.1351256 α      in ANC's #9, #4, #5, ...

........................................................................
.............................. CYCLE   10 ..............................
........................................................................
   1    -83.6961532 -0.836962E+02  0.842E-03    0.29       0.0  T
   2    -83.6961565 -0.334645E-05  0.406E-03    0.29       3.8  T
   3    -83.6961569 -0.351607E-06  0.204E-03    0.29       7.6  T
   4    -83.6961569 -0.417124E-08  0.745E-04    0.29      20.7  T
   5    -83.6961569 -0.558855E-08  0.146E-04    0.29     105.4  T
   6    -83.6961569 -0.516849E-09  0.417E-05    0.29     369.9  T
     SCC iter.                  ...        0 min,  0.032 sec
     gradient                   ...        0 min,  0.050 sec
 * total energy  :   -82.9118914 Eh     change       -0.1862244E-03 Eh
   gradient norm :     0.0063179 Eh/α   predicted    -0.1372964E-03 ( -26.27%)
   displ. norm   :     0.2305902 α      lambda       -0.2015644E-03
   maximum displ.:     0.1066361 α      in ANC's #9, #4, #15, ...

........................................................................
.............................. CYCLE   11 ..............................
........................................................................
   1    -83.6965758 -0.836966E+02  0.683E-03    0.30       0.0  T
   2    -83.6965776 -0.179231E-05  0.324E-03    0.29       4.8  T
   3    -83.6965777 -0.147793E-06  0.163E-03    0.29       9.5  T
   4    -83.6965777 -0.249456E-08  0.504E-04    0.29      30.6  T
   5    -83.6965777 -0.187227E-08  0.116E-04    0.29     132.5  T
   6    -83.6965777 -0.299863E-09  0.292E-05    0.29     528.6  T
     SCC iter.                  ...        0 min,  0.030 sec
     gradient                   ...        0 min,  0.054 sec
 * total energy  :   -82.9120291 Eh     change       -0.1377811E-03 Eh
   gradient norm :     0.0065744 Eh/α   predicted    -0.1061724E-03 ( -22.94%)
   displ. norm   :     0.2374231 α      lambda       -0.1573573E-03
   maximum displ.:     0.1011832 α      in ANC's #4, #9, #15, ...

........................................................................
.............................. CYCLE   12 ..............................
........................................................................
   1    -83.6940518 -0.836941E+02  0.765E-03    0.29       0.0  T
   2    -83.6940530 -0.119974E-05  0.455E-03    0.29       3.4  T
   3    -83.6940530 -0.671798E-07  0.231E-03    0.29       6.7  T
   4    -83.6940530 -0.105606E-07  0.606E-04    0.29      25.5  T
   5    -83.6940530 -0.489700E-08  0.101E-04    0.29     153.5  T
   6    -83.6940530 -0.170971E-09  0.385E-05    0.29     401.0  T
     SCC iter.                  ...        0 min,  0.031 sec
     gradient                   ...        0 min,  0.054 sec
 * total energy  :   -82.9121212 Eh     change       -0.9208704E-04 Eh
   gradient norm :     0.0058105 Eh/α   predicted    -0.8314049E-04 (  -9.72%)
   displ. norm   :     0.1654176 α      lambda       -0.1401346E-03
   maximum displ.:     0.0745601 α      in ANC's #15, #4, #3, ...

........................................................................
.............................. CYCLE   13 ..............................
........................................................................
   1    -83.6961953 -0.836962E+02  0.988E-03    0.31       0.0  T
   2    -83.6961998 -0.446751E-05  0.512E-03    0.30       3.0  T
   3    -83.6962007 -0.897298E-06  0.156E-03    0.30       9.9  T
   4    -83.6962007 -0.275607E-08  0.539E-04    0.30      28.6  T
   5    -83.6962007 -0.791346E-09  0.875E-05    0.30     176.3  T
   6    -83.6962007 -0.140801E-09  0.247E-05    0.30     623.5  T
     SCC iter.                  ...        0 min,  0.032 sec
     gradient                   ...        0 min,  0.056 sec
 * total energy  :   -82.9121998 Eh     change       -0.7853072E-04 Eh
   gradient norm :     0.0066807 Eh/α   predicted    -0.7198707E-04 (  -8.33%)
   displ. norm   :     0.1216686 α      lambda       -0.1082323E-03
   maximum displ.:     0.0605316 α      in ANC's #15, #4, #2, ...

........................................................................
.............................. CYCLE   14 ..............................
........................................................................
   1    -83.6962334 -0.836962E+02  0.678E-03    0.30       0.0  T
   2    -83.6962348 -0.139707E-05  0.377E-03    0.30       4.1  T
   3    -83.6962350 -0.120756E-06  0.224E-03    0.30       6.9  T
   4    -83.6962350 -0.105492E-07  0.384E-04    0.30      40.2  T
   5    -83.6962350 -0.326584E-08  0.652E-05    0.30     236.6  T
   6    -83.6962350 -0.115719E-09  0.250E-05    0.30     616.2  T
     SCC iter.                  ...        0 min,  0.032 sec
     gradient                   ...        0 min,  0.056 sec
 * total energy  :   -82.9122692 Eh     change       -0.6939303E-04 Eh
   gradient norm :     0.0049710 Eh/α   predicted    -0.5493130E-04 ( -20.84%)
   displ. norm   :     0.1811601 α      lambda       -0.1156492E-03
   maximum displ.:     0.0896491 α      in ANC's #4, #15, #2, ...

........................................................................
.............................. CYCLE   15 ..............................
........................................................................
   1    -83.6960891 -0.836961E+02  0.623E-03    0.32       0.0  T
   2    -83.6960900 -0.969250E-06  0.300E-03    0.31       5.1  T
   3    -83.6960902 -0.143662E-06  0.153E-03    0.32      10.1  T
   4    -83.6960902 -0.113126E-07  0.372E-04    0.32      41.5  T
   5    -83.6960902 -0.675925E-09  0.812E-05    0.32     190.0  T
   6    -83.6960902 -0.103057E-09  0.302E-05    0.32     511.0  T
     SCC iter.                  ...        0 min,  0.032 sec
     gradient                   ...        0 min,  0.056 sec
 * total energy  :   -82.9123446 Eh     change       -0.7548704E-04 Eh
   gradient norm :     0.0057929 Eh/α   predicted    -0.5972785E-04 ( -20.88%)
   displ. norm   :     0.1735534 α      lambda       -0.9222876E-04
   maximum displ.:     0.0864465 α      in ANC's #4, #15, #2, ...

........................................................................
.............................. CYCLE   16 ..............................
........................................................................
   1    -83.6963384 -0.836963E+02  0.473E-03    0.32       0.0  T
   2    -83.6963392 -0.780090E-06  0.243E-03    0.32       6.4  T
   3    -83.6963393 -0.720983E-07  0.112E-03    0.32      13.7  T
   4    -83.6963393 -0.189105E-08  0.470E-04    0.32      32.8  T
   5    -83.6963393 -0.226137E-08  0.906E-05    0.32     170.3  T
   6    -83.6963393 -0.780460E-10  0.256E-05    0.32     603.7  T
     SCC iter.                  ...        0 min,  0.032 sec
     gradient                   ...        0 min,  0.055 sec
 * total energy  :   -82.9124138 Eh     change       -0.6919785E-04 Eh
   gradient norm :     0.0049116 Eh/α   predicted    -0.4750404E-04 ( -31.35%)
   displ. norm   :     0.2596561 α      lambda       -0.1130308E-03
   maximum displ.:     0.1343983 α      in ANC's #4, #2, #6, ...

........................................................................
.............................. CYCLE   17 ..............................
........................................................................
   1    -83.6958878 -0.836959E+02  0.634E-03    0.32       0.0  T
   2    -83.6958891 -0.133706E-05  0.361E-03    0.32       4.3  T
   3    -83.6958892 -0.128925E-06  0.181E-03    0.32       8.5  T
   4    -83.6958892 -0.214918E-08  0.662E-04    0.32      23.3  T
   5    -83.6958892 -0.446575E-08  0.106E-04    0.32     146.1  T
   6    -83.6958892 -0.181785E-09  0.321E-05    0.32     480.0  T
     SCC iter.                  ...        0 min,  0.032 sec
     gradient                   ...        0 min,  0.055 sec
 * total energy  :   -82.9124974 Eh     change       -0.8359222E-04 Eh
   gradient norm :     0.0049492 Eh/α   predicted    -0.6032698E-04 ( -27.83%)
   displ. norm   :     0.2876871 α      lambda       -0.1189595E-03
   maximum displ.:     0.1429226 α      in ANC's #4, #6, #2, ...

........................................................................
.............................. CYCLE   18 ..............................
........................................................................
   1    -83.6962389 -0.836962E+02  0.575E-03    0.32       0.0  T
   2    -83.6962398 -0.914057E-06  0.359E-03    0.32       4.3  T
   3    -83.6962399 -0.115922E-06  0.179E-03    0.32       8.6  T
   4    -83.6962399 -0.320361E-08  0.533E-04    0.32      29.0  T
   5    -83.6962399 -0.223044E-08  0.883E-05    0.32     174.7  T
   6    -83.6962399 -0.638209E-10  0.248E-05    0.32     623.2  T
     SCC iter.                  ...        0 min,  0.033 sec
     gradient                   ...        0 min,  0.057 sec
 * total energy  :   -82.9125832 Eh     change       -0.8581916E-04 Eh
   gradient norm :     0.0058462 Eh/α   predicted    -0.6440652E-04 ( -24.95%)
   displ. norm   :     0.3745764 α      lambda       -0.1245942E-03
   maximum displ.:     0.1948665 α      in ANC's #4, #6, #2, ...

........................................................................
.............................. CYCLE   19 ..............................
........................................................................
   1    -83.6939332 -0.836939E+02  0.739E-03    0.31       0.0  T
   2    -83.6939343 -0.113150E-05  0.333E-03    0.32       4.6  T
   3    -83.6939344 -0.754223E-07  0.175E-03    0.32       8.8  T
   4    -83.6939344 -0.127595E-07  0.556E-04    0.32      27.8  T
   5    -83.6939344 -0.178102E-08  0.113E-04    0.32     136.1  T
   6    -83.6939344 -0.260812E-09  0.375E-05    0.32     411.8  T
     SCC iter.                  ...        0 min,  0.033 sec
     gradient                   ...        0 min,  0.058 sec
 * total energy  :   -82.9126665 Eh     change       -0.8326326E-04 Eh
   gradient norm :     0.0068756 Eh/α   predicted    -0.7104134E-04 ( -14.68%)
   displ. norm   :     0.3231701 α      lambda       -0.2087271E-03
   maximum displ.:     0.1560186 α      in ANC's #6, #4, #8, ...

........................................................................
.............................. CYCLE   20 ..............................
........................................................................
   1    -83.6973085 -0.836973E+02  0.974E-03    0.31       0.0  T
   2    -83.6973106 -0.206117E-05  0.432E-03    0.31       3.6  T
   3    -83.6973108 -0.194371E-06  0.242E-03    0.31       6.4  T
   4    -83.6973108 -0.250468E-07  0.664E-04    0.31      23.2  T
   5    -83.6973108 -0.318610E-08  0.962E-05    0.31     160.3  T
   6    -83.6973108 -0.154216E-09  0.311E-05    0.31     495.6  T
     SCC iter.                  ...        0 min,  0.032 sec
     gradient                   ...        0 min,  0.058 sec
 * total energy  :   -82.9127536 Eh     change       -0.8711028E-04 Eh
   gradient norm :     0.0102185 Eh/α   predicted    -0.1152747E-03 (  32.33%)
   displ. norm   :     0.2767364 α      lambda       -0.1428676E-03
   maximum displ.:     0.1362336 α      in ANC's #4, #6, #3, ...
 * RMSD in coord.:     0.6189373 α      energy gain  -0.3193760E-01 Eh

generating ANC from model Hessian ...
Using Lindh-Hessian (1995)
 Shifting diagonal of input Hessian by   9.828594930939894E-003
 Lowest  eigenvalues of input Hessian
    0.000000    0.000000    0.000000    0.000000    0.000000    0.000000
    0.010000    0.010297    0.010422    0.010695    0.011878    0.012361
    0.012874    0.013980    0.014122    0.015000    0.017432    0.017841
 Highest eigenvalues
    2.093681    2.190352    2.216147    2.342078    2.350375    2.455172
 

........................................................................
.............................. CYCLE   21 ..............................
........................................................................
   1    -83.6951882 -0.836952E+02  0.881E-03    0.31       0.0  T
   2    -83.6951894 -0.119460E-05  0.457E-03    0.31       3.4  T
   3    -83.6951895 -0.108369E-06  0.224E-03    0.31       6.9  T
   4    -83.6951896 -0.314496E-07  0.611E-04    0.31      25.2  T
   5    -83.6951896 -0.310784E-08  0.103E-04    0.31     150.3  T
   6    -83.6951896 -0.126420E-09  0.365E-05    0.31     422.4  T
     SCC iter.                  ...        0 min,  0.033 sec
     gradient                   ...        0 min,  0.059 sec
 * total energy  :   -82.9128430 Eh     change       -0.8934794E-04 Eh
   gradient norm :     0.0075624 Eh/α   predicted     0.0000000E+00 (-100.00%)
   displ. norm   :     0.0534659 α      lambda       -0.1328203E-03
   maximum displ.:     0.0217442 α      in ANC's #11, #5, #13, ...

........................................................................
.............................. CYCLE   22 ..............................
........................................................................
   1    -83.6966539 -0.836967E+02  0.452E-03    0.31       0.0  T
   2    -83.6966544 -0.481682E-06  0.251E-03    0.31       6.2  T
   3    -83.6966544 -0.460182E-07  0.133E-03    0.31      11.6  T
   4    -83.6966544 -0.418039E-08  0.316E-04    0.31      48.8  T
   5    -83.6966544 -0.872390E-09  0.521E-05    0.31     296.2  T
   6    -83.6966544 -0.312639E-10  0.190E-05    0.31     810.3  T
     SCC iter.                  ...        0 min,  0.033 sec
     gradient                   ...        0 min,  0.058 sec
 * total energy  :   -82.9129455 Eh     change       -0.1025522E-03 Eh
   gradient norm :     0.0035123 Eh/α   predicted    -0.6855691E-04 ( -33.15%)
   displ. norm   :     0.1143869 α      lambda       -0.1348240E-03
   maximum displ.:     0.0544116 α      in ANC's #11, #5, #13, ...

........................................................................
.............................. CYCLE   23 ..............................
........................................................................
   1    -83.6978621 -0.836979E+02  0.579E-03    0.32       0.0  T
   2    -83.6978635 -0.135147E-05  0.326E-03    0.32       4.7  T
   3    -83.6978636 -0.139020E-06  0.158E-03    0.32       9.8  T
   4    -83.6978636 -0.739476E-09  0.571E-04    0.32      27.0  T
   5    -83.6978636 -0.209540E-08  0.740E-05    0.32     208.5  T
   6    -83.6978636 -0.598988E-10  0.290E-05    0.32     532.1  T
     SCC iter.                  ...        0 min,  0.032 sec
     gradient                   ...        0 min,  0.056 sec
 * total energy  :   -82.9130400 Eh     change       -0.9452605E-04 Eh
   gradient norm :     0.0028551 Eh/α   predicted    -0.6829505E-04 ( -27.75%)
   displ. norm   :     0.1570366 α      lambda       -0.1059851E-03
   maximum displ.:     0.0804768 α      in ANC's #11, #13, #3, ...

........................................................................
.............................. CYCLE   24 ..............................
........................................................................
   1    -83.6979767 -0.836980E+02  0.500E-03    0.33       0.0  T
   2    -83.6979778 -0.103939E-05  0.286E-03    0.32       5.4  T
   3    -83.6979779 -0.106338E-06  0.133E-03    0.33      11.6  T
   4    -83.6979779 -0.875445E-09  0.494E-04    0.32      31.3  T
   5    -83.6979779 -0.163303E-08  0.753E-05    0.32     205.0  T
   6    -83.6979779 -0.455032E-10  0.298E-05    0.32     518.2  T
     SCC iter.                  ...        0 min,  0.031 sec
     gradient                   ...        0 min,  0.055 sec
 * total energy  :   -82.9131218 Eh     change       -0.8173159E-04 Eh
   gradient norm :     0.0051098 Eh/α   predicted    -0.5433946E-04 ( -33.51%)
   displ. norm   :     0.2631349 α      lambda       -0.1437544E-03
   maximum displ.:     0.1437858 α      in ANC's #11, #13, #3, ...

........................................................................
.............................. CYCLE   25 ..............................
........................................................................
   1    -83.6967931 -0.836968E+02  0.706E-03    0.33       0.0  T
   2    -83.6967940 -0.968551E-06  0.391E-03    0.33       3.9  T
   3    -83.6967941 -0.858565E-07  0.190E-03    0.33       8.1  T
   4    -83.6967941 -0.143834E-07  0.454E-04    0.33      34.0  T
   5    -83.6967942 -0.158856E-08  0.975E-05    0.33     158.2  T
   6    -83.6967942 -0.738822E-10  0.353E-05    0.33     437.5  T
     SCC iter.                  ...        0 min,  0.031 sec
     gradient                   ...        0 min,  0.055 sec
 * total energy  :   -82.9132095 Eh     change       -0.8772514E-04 Eh
   gradient norm :     0.0073731 Eh/α   predicted    -0.7685586E-04 ( -12.39%)
   displ. norm   :     0.1020643 α      lambda       -0.7532264E-04
   maximum displ.:     0.0551811 α      in ANC's #11, #3, #13, ...

........................................................................
.............................. CYCLE   26 ..............................
........................................................................
   1    -83.6969329 -0.836969E+02  0.309E-03    0.33       0.0  T
   2    -83.6969331 -0.161058E-06  0.141E-03    0.33      10.9  T
   3    -83.6969331 -0.138299E-07  0.773E-04    0.33      20.0  T
   4    -83.6969331 -0.375351E-08  0.183E-04    0.33      84.2  T
   5    -83.6969331 -0.217611E-09  0.387E-05    0.33     399.2  T
     SCC iter.                  ...        0 min,  0.026 sec
     gradient                   ...        0 min,  0.057 sec
 * total energy  :   -82.9132693 Eh     change       -0.5978635E-04 Eh
   gradient norm :     0.0051520 Eh/α   predicted    -0.3806332E-04 ( -36.33%)
   displ. norm   :     0.1595775 α      lambda       -0.1122655E-03
   maximum displ.:     0.0844672 α      in ANC's #11, #3, #13, ...

........................................................................
.............................. CYCLE   27 ..............................
........................................................................
   1    -83.6974799 -0.836975E+02  0.577E-03    0.32       0.0  T
   2    -83.6974809 -0.105942E-05  0.302E-03    0.32       5.1  T
   3    -83.6974810 -0.110933E-06  0.147E-03    0.32      10.5  T
   4    -83.6974810 -0.412939E-08  0.489E-04    0.32      31.5  T
   5    -83.6974810 -0.129756E-08  0.727E-05    0.32     212.3  T
   6    -83.6974810 -0.577245E-10  0.260E-05    0.32     593.2  T
     SCC iter.                  ...        0 min,  0.032 sec
     gradient                   ...        0 min,  0.057 sec
 * total energy  :   -82.9133392 Eh     change       -0.6994691E-04 Eh
   gradient norm :     0.0036522 Eh/α   predicted    -0.5756390E-04 ( -17.70%)
   displ. norm   :     0.1378630 α      lambda       -0.4373101E-04
   maximum displ.:     0.0748715 α      in ANC's #11, #3, #13, ...

........................................................................
.............................. CYCLE   28 ..............................
........................................................................
   1    -83.6970294 -0.836970E+02  0.311E-03    0.32       0.0  T
   2    -83.6970296 -0.215278E-06  0.176E-03    0.32       8.7  T
   3    -83.6970296 -0.263427E-07  0.871E-04    0.32      17.7  T
   4    -83.6970296 -0.358709E-08  0.187E-04    0.32      82.5  T
   5    -83.6970296 -0.163055E-09  0.468E-05    0.32     329.9  T
     SCC iter.                  ...        0 min,  0.026 sec
     gradient                   ...        0 min,  0.055 sec
 * total energy  :   -82.9133693 Eh     change       -0.3003306E-04 Eh
   gradient norm :     0.0042554 Eh/α   predicted    -0.2228202E-04 ( -25.81%)
   displ. norm   :     0.1274850 α      lambda       -0.7277518E-04
   maximum displ.:     0.0790158 α      in ANC's #3, #11, #9, ...

........................................................................
.............................. CYCLE   29 ..............................
........................................................................
   1    -83.6983605 -0.836984E+02  0.487E-03    0.31       0.0  T
   2    -83.6983610 -0.581745E-06  0.309E-03    0.31       5.0  T
   3    -83.6983611 -0.657357E-07  0.161E-03    0.31       9.6  T
   4    -83.6983611 -0.453778E-08  0.328E-04    0.31      47.0  T
   5    -83.6983611 -0.777462E-09  0.518E-05    0.31     297.6  T
   6    -83.6983611 -0.321450E-10  0.169E-05    0.31     911.1  T
     SCC iter.                  ...        0 min,  0.031 sec
     gradient                   ...        0 min,  0.057 sec
 * total energy  :   -82.9134060 Eh     change       -0.3675313E-04 Eh
   gradient norm :     0.0043167 Eh/α   predicted    -0.3699261E-04 (   0.65%)
   displ. norm   :     0.1462895 α      lambda       -0.4873065E-04
   maximum displ.:     0.0864748 α      in ANC's #3, #11, #13, ...

........................................................................
.............................. CYCLE   30 ..............................
........................................................................
   1    -83.6974790 -0.836975E+02  0.410E-03    0.31       0.0  T
   2    -83.6974792 -0.244266E-06  0.198E-03    0.31       7.8  T
   3    -83.6974792 -0.215839E-07  0.103E-03    0.31      14.9  T
   4    -83.6974792 -0.747528E-08  0.204E-04    0.31      75.6  T
   5    -83.6974792 -0.588372E-09  0.604E-05    0.31     255.7  T
   6    -83.6974792 -0.317755E-10  0.191E-05    0.31     808.3  T
     SCC iter.                  ...        0 min,  0.032 sec
     gradient                   ...        0 min,  0.057 sec
 * total energy  :   -82.9134343 Eh     change       -0.2831860E-04 Eh
   gradient norm :     0.0034629 Eh/α   predicted    -0.2489882E-04 ( -12.08%)
   displ. norm   :     0.0587179 α      lambda       -0.3418596E-04
   maximum displ.:     0.0322843 α      in ANC's #3, #5, #2, ...

........................................................................
.............................. CYCLE   31 ..............................
........................................................................
   1    -83.6980189 -0.836980E+02  0.306E-03    0.32       0.0  T
   2    -83.6980193 -0.419933E-06  0.179E-03    0.31       8.6  T
   3    -83.6980194 -0.581329E-07  0.796E-04    0.31      19.4  T
   4    -83.6980194  0.284075E-10  0.282E-04    0.31      54.8  T
   5    -83.6980194 -0.359890E-09  0.302E-05    0.31     511.5  T
   6    -83.6980194 -0.131877E-10  0.118E-05    0.31    1312.3  T
     SCC iter.                  ...        0 min,  0.031 sec
     gradient                   ...        0 min,  0.057 sec
 * total energy  :   -82.9134585 Eh     change       -0.2416476E-04 Eh
   gradient norm :     0.0019107 Eh/α   predicted    -0.1715783E-04 ( -29.00%)
   displ. norm   :     0.1363061 α      lambda       -0.2193846E-04
   maximum displ.:     0.0904034 α      in ANC's #3, #5, #11, ...

........................................................................
.............................. CYCLE   32 ..............................
........................................................................
   1    -83.6980578 -0.836981E+02  0.343E-03    0.32       0.0  T
   2    -83.6980584 -0.543922E-06  0.226E-03    0.32       6.8  T
   3    -83.6980585 -0.824207E-07  0.108E-03    0.32      14.3  T
   4    -83.6980585 -0.450626E-09  0.289E-04    0.32      53.4  T
   5    -83.6980585 -0.520771E-09  0.482E-05    0.32     320.1  T
   6    -83.6980585 -0.196110E-10  0.188E-05    0.32     820.9  T
     SCC iter.                  ...        0 min,  0.031 sec
     gradient                   ...        0 min,  0.056 sec
 * total energy  :   -82.9134762 Eh     change       -0.1768128E-04 Eh
   gradient norm :     0.0019084 Eh/α   predicted    -0.1106255E-04 ( -37.43%)
   displ. norm   :     0.0538961 α      lambda       -0.7419373E-05
   maximum displ.:     0.0389517 α      in ANC's #3, #5, #2, ...

........................................................................
.............................. CYCLE   33 ..............................
........................................................................
   1    -83.6981731 -0.836982E+02  0.182E-03    0.32       0.0  T
   2    -83.6981732 -0.124712E-06  0.796E-04    0.32      19.4  T
   3    -83.6981732 -0.143467E-07  0.382E-04    0.32      40.4  T
   4    -83.6981732 -0.338289E-09  0.127E-04    0.32     121.2  T
   5    -83.6981732 -0.152070E-09  0.241E-05    0.32     639.5  T
     SCC iter.                  ...        0 min,  0.026 sec
     gradient                   ...        0 min,  0.058 sec
 * total energy  :   -82.9134841 Eh     change       -0.7899496E-05 Eh
   gradient norm :     0.0008493 Eh/α   predicted    -0.3717700E-05 ( -52.94%)
   displ. norm   :     0.0826639 α      lambda       -0.5923732E-05
   maximum displ.:     0.0593550 α      in ANC's #3, #11, #2, ...

........................................................................
.............................. CYCLE   34 ..............................
........................................................................
   1    -83.6978340 -0.836978E+02  0.218E-03    0.32       0.0  T
   2    -83.6978341 -0.123764E-06  0.110E-03    0.32      14.0  T
   3    -83.6978341 -0.115583E-07  0.579E-04    0.32      26.7  T
   4    -83.6978341 -0.865995E-09  0.144E-04    0.32     107.4  T
   5    -83.6978341 -0.235332E-09  0.289E-05    0.32     534.8  T
     SCC iter.                  ...        0 min,  0.026 sec
     gradient                   ...        0 min,  0.056 sec
 * total energy  :   -82.9134888 Eh     change       -0.4693633E-05 Eh
   gradient norm :     0.0009005 Eh/α   predicted    -0.2971467E-05 ( -36.69%)
   displ. norm   :     0.0402005 α      lambda       -0.3680893E-05
   maximum displ.:     0.0258957 α      in ANC's #3, #9, #1, ...

   *** GEOMETRY OPTIMIZATION CONVERGED AFTER 34 ITERATIONS ***

------------------------------------------------------------------------
 total energy gain   :        -0.0326728 Eh      -20.5025 kcal/mol
 total RMSD          :         0.6949376 a0        0.3677 Å
 total power (kW/mol):        -2.5230093 (step)  -20.9998 (real)
------------------------------------------------------------------------

 ANCopt (total)                0 d,  0 h,  0 min,  4.085 sec
 optimizer setup                ...        0 min,  0.001 sec (  0.018%)
 model hessian                  ...        0 min,  0.043 sec (  1.043%)
 ANC generation                 ...        0 min,  0.005 sec (  0.134%)
 coordinate transformation      ...        0 min,  0.001 sec (  0.018%)
 single point calculation       ...        0 min,  4.022 sec ( 98.456%)
 optimization log               ...        0 min,  0.007 sec (  0.171%)
 hessian update                 ...        0 min,  0.001 sec (  0.017%)
 rational function              ...        0 min,  0.004 sec (  0.090%)

================
 final structure:
================
42
 xtb: 6.5.1 (579679a)
C            6.14560218903091        1.01844565576515        1.73846763938578
O            4.97445392224623        0.61989463697787        1.03749132723387
C            5.03993700886664        0.71188760748453       -0.32509823857390
O            6.05641803629936        1.11157396646301       -0.86845858941778
C            3.80614396133472        0.29109970454682       -0.97139176697175
N            2.79439154248444       -0.10021965872895       -0.11533580124894
C            1.66886491632111       -0.49489161122372       -0.57671984054837
C            0.56187364871081       -0.93686503005736        0.35395106575622
C            0.90818723442235       -0.56415327473108        1.79617820664244
C            0.32378609260769       -2.44533406165024        0.20716576741619
N           -0.66085708680694       -0.20982590064456       -0.06104535703488
C           -1.85219755982238       -0.38349007384146        0.50641656131622
O           -2.13569635170397       -1.11762497840035        1.43602739081373
C           -2.89278759802779        0.46512287865470       -0.15936669744636
N           -2.76914965636579        1.29195753219409       -1.12703264678431
N           -3.99808780526790        1.81850757273401       -1.41798144648766
C           -4.86540077930069        1.31090277112496       -0.62969297196359
C           -6.31510941014859        1.54837947515718       -0.55893623118370
O           -4.22981628720196        0.41116610552780        0.23596129436705
C           -4.78749121636217       -0.39960585760493        1.31998071517250
N            1.41193452798539       -0.56135204307617       -1.93423563166951
C            2.32041381934691       -0.19350009793613       -2.89877861329601
O            2.01200817855080       -0.27299973877396       -4.08337108665458
C            3.66071570512856        0.28963656603003       -2.38552261924735
O            4.52136228322434        0.63921451388906       -3.20948522098897
H            6.37385542271929        2.07157464950329        1.54419201767530
H            7.00409200857236        0.40833456722732        1.43883922799060
H            5.94407990545153        0.87529149640436        2.79912800642724
H            1.02279960403460        0.51539604853747        1.88333407901931
H            1.84957207586670       -1.04006669495199        2.06863330268288
H            0.12642270530179       -0.89907247028012        2.47373924549301
H            1.25211923063149       -2.97544942082562        0.41705751271002
H           -0.44049371637137       -2.78115916309788        0.90422029661695
H            0.00238941798686       -2.67695696683765       -0.80650270506848
H           -0.58846456713471        0.45418160421825       -0.81862830484496
H           -6.86084222743100        0.61982838123968       -0.72925742032310
H           -6.59325158911206        1.93299826594348        0.42246914073359
H           -6.58611372566118        2.27486867786465       -1.32338904710660
H           -4.61160303185230       -1.44398149624561        1.06899270756802
H           -4.26920255505232       -0.11860236226380        2.23485145513727
H           -5.84646531506657       -0.16790920661269        1.36939639702947
H            0.52160904156798       -0.89720356970280       -2.25626412032500
 
 Bond Distances (Angstroems)
 ---------------------------
C1-O2=1.4219         C1-H26=1.0950        C1-H27=1.0950        C1-H28=1.0891        O2-C1=1.4219         O2-C3=1.3673         
C3-O2=1.3673         C3-O4=1.2199         C3-C5=1.4550         O4-C3=1.2199         C5-C3=1.4550         C5-N6=1.3819         
C5-C24=1.4216        N6-C5=1.3819         N6-C7=1.2788         C7-N6=1.2788         C7-C8=1.5123         C7-N21=1.3832        
C8-C7=1.5123         C8-C9=1.5293         C8-C10=1.5342        C8-N11=1.4818        C9-C8=1.5293         C9-H29=1.0891        
C9-H30=1.0895        C9-H31=1.0874        C10-C8=1.5342        C10-H32=1.0894       C10-H33=1.0876       C10-H34=1.0883       
N11-C8=1.4818        N11-C12=1.3310       N11-H35=1.0100       C12-N11=1.3310       C12-O13=1.2180       C12-C14=1.4987       
O13-C12=1.2180       C14-C12=1.4987       C14-N15=1.2788       C14-O19=1.3953       N15-C14=1.2788       N15-N16=1.3683       
N16-N15=1.3683       N16-C17=1.2772       C17-N16=1.2772       C17-C18=1.4707       C17-O19=1.4010       C18-C17=1.4707       
C18-H36=1.0904       C18-H37=1.0902       C18-H38=1.0889       O19-C14=1.3953       O19-C17=1.4010       O19-C20=1.4641       
C20-O19=1.4641       C20-H39=1.0884       C20-H40=1.0884       C20-H41=1.0852       N21-C7=1.3832        N21-C22=1.3751       
N21-H42=1.0046       C22-N21=1.3751       C22-O23=1.2267       C22-C24=1.5144       O23-C22=1.2267       C24-C5=1.4216        
C24-C22=1.5144       C24-O25=1.2417       O25-C24=1.2417       H26-C1=1.0950        H27-C1=1.0950        H28-C1=1.0891        
H29-C9=1.0891        H30-C9=1.0895        H31-C9=1.0874        H32-C10=1.0894       H33-C10=1.0876       H34-C10=1.0883       
H35-N11=1.0100       H36-C18=1.0904       H37-C18=1.0902       H38-C18=1.0889       H39-C20=1.0884       H40-C20=1.0884       
H41-C20=1.0852       H42-N21=1.0046       
 C  H  Rav=1.0894 sigma=0.0025  Rmin=1.0852  Rmax=1.0950    15
 C  C  Rav=1.4920 sigma=0.0369  Rmin=1.4216  Rmax=1.5342     8
 N  H  Rav=1.0073 sigma=0.0027  Rmin=1.0046  Rmax=1.0100     2
 N  C  Rav=1.3485 sigma=0.0670  Rmin=1.2772  Rmax=1.4818     8
 N  N  Rav=1.3683 sigma=0.0000  Rmin=1.3683  Rmax=1.3683     1
 O  C  Rav=1.3284 sigma=0.0944  Rmin=1.2180  Rmax=1.4641     9
 
 selected bond angles (degree)
 --------------------
H26-C1-O2=110.72               H27-C1-O2=110.77               H27-C1-H26=108.90              H28-C1-O2=106.91               
H28-C1-H26=109.74              H28-C1-H27=109.77              C3-O2-C1=115.66                O4-C3-O2=120.39                
C5-C3-O2=112.49                C5-C3-O4=127.12                N6-C5-C3=115.31                C24-C5-C3=121.93               
C24-C5-N6=122.75               C7-N6-C5=120.55                C8-C7-N6=120.82                N21-C7-N6=122.17               
N21-C7-C8=117.00               C9-C8-C7=110.08                C10-C8-C7=110.00               C10-C8-C9=111.41               
N11-C8-C7=106.75               N11-C8-C9=109.35               N11-C8-C10=109.12              H29-C9-C8=109.93               
H30-C9-C8=108.97               H30-C9-H29=108.79              H31-C9-C8=110.47               H31-C9-H29=109.34              
H31-C9-H30=109.32              H32-C10-C8=109.13              H33-C10-C8=110.57              H33-C10-H32=108.97             
H34-C10-C8=110.13              H34-C10-H32=109.12             H34-C10-H33=108.89             
 
 selected dihedral angles (degree)
 ---------------------------------
C3-O2-C1-H26= 61.31           C3-O2-C1-H27=300.39           C3-O2-C1-H28=180.82           O4-C3-O2-C1=  0.18            
C5-C3-O2-C1=180.15            N6-C5-C3-O2=  0.98            N6-C5-C3-O4=180.95            C24-C5-C3-O2=180.83           
C24-C5-C3-O4=  0.79           C7-N6-C5-C3=180.32            C7-N6-C5-C24=  0.48           C8-C7-N6-C5=179.42            
N21-C7-N6-C5=  0.57           C9-C8-C7-N6= 11.37            C9-C8-C7-N21=190.28           C10-C8-C7-N6=248.23           
C10-C8-C7-N21= 67.14          N11-C8-C7-N6=129.96           N11-C8-C7-N21=308.87          H29-C9-C8-C7= 60.52           
H29-C9-C8-C10=182.83          H29-C9-C8-N11=303.54          H30-C9-C8-C7=301.38           H30-C9-C8-C10= 63.70          
H30-C9-C8-N11=184.40          H31-C9-C8-C7=181.27           H31-C9-C8-C10=303.58          H31-C9-C8-N11= 64.29          
H32-C10-C8-C7= 57.64          H32-C10-C8-C9=295.29          H32-C10-C8-N11=174.45         H33-C10-C8-C7=177.49          
H33-C10-C8-C9= 55.13          H33-C10-C8-N11=294.30         H34-C10-C8-C7=297.88          H34-C10-C8-C9=175.52          
H34-C10-C8-N11= 54.68         
           -------------------------------------------------
          |                Final Singlepoint                |
           -------------------------------------------------

          ...................................................
          :                      SETUP                      :
          :.................................................:
          :  # basis functions                 134          :
          :  # atomic orbitals                 134          :
          :  # shells                           84          :
          :  # electrons                       134          :
          :  # halogen bonds                     0          :
          :  max. iterations                   250          :
          :  Hamiltonian                  GFN1-xTB          :
          :  restarted?                      false          :
          :  GBSA solvation                   true          :
          :  PC potential                    false          :
          :  electronic temp.          300.0000000     K    :
          :  accuracy                    1.0000000          :
          :  -> integral cutoff          0.2500000E+02      :
          :  -> integral neglect         0.1000000E-07      :
          :  -> SCF convergence          0.1000000E-05 Eh   :
          :  -> wf. convergence          0.2000000E-04 e    :
          :  Broyden damping             0.4000000          :
          ...................................................

 iter      E             dE          RMSdq      gap      omega  full diag
   1    -83.6978341 -0.836978E+02  0.919E-06    0.32       0.0  T
   2    -83.6978341 -0.753175E-12  0.451E-06    0.32    3421.8  T
   3    -83.6978341 -0.156319E-12  0.195E-06    0.32    7894.0  T

   *** convergence criteria satisfied after 3 iterations ***

         #    Occupation            Energy/Eh            Energy/eV
      -------------------------------------------------------------
         1        2.0000           -0.9651314             -26.2626
       ...           ...                  ...                  ...
        61        2.0000           -0.4683931             -12.7456
        62        2.0000           -0.4625623             -12.5870
        63        2.0000           -0.4474262             -12.1751
        64        2.0000           -0.4418285             -12.0228
        65        2.0000           -0.4250723             -11.5668
        66        2.0000           -0.3838768             -10.4458
        67        1.9960           -0.3724426             -10.1347 (HOMO)
        68        0.0040           -0.3606498              -9.8138 (LUMO)
        69                         -0.3109116              -8.4603
        70                         -0.2759153              -7.5080
        71                         -0.2486595              -6.7664
        72                         -0.2398739              -6.5273
       ...                                ...                  ...
       134                          0.7642648              20.7967
      -------------------------------------------------------------
                  HL-Gap            0.0117928 Eh            0.3209 eV
             Fermi-level           -0.3665462 Eh           -9.9742 eV

 SCC (total)                   0 d,  0 h,  0 min,  0.102 sec
 SCC setup                      ...        0 min,  0.002 sec (  1.643%)
 Dispersion                     ...        0 min,  0.000 sec (  0.241%)
 classical contributions        ...        0 min,  0.000 sec (  0.091%)
 integral evaluation            ...        0 min,  0.025 sec ( 24.119%)
 iterations                     ...        0 min,  0.016 sec ( 15.912%)
 molecular gradient             ...        0 min,  0.058 sec ( 56.727%)
 printout                       ...        0 min,  0.001 sec (  1.246%)

         :::::::::::::::::::::::::::::::::::::::::::::::::::::
         ::                     SUMMARY                     ::
         :::::::::::::::::::::::::::::::::::::::::::::::::::::
         :: total energy             -82.913488781376 Eh    ::
         :: total w/o Gsasa/hb       -82.891548644227 Eh    ::
         :: gradient norm              0.000901128773 Eh/a0 ::
         :: HOMO-LUMO gap              0.320897632009 eV    ::
         ::.................................................::
         :: SCC energy               -83.697834092661 Eh    ::
         :: -> electrostatic           0.490069658933 Eh    ::
         :: -> Gsolv                  -0.135203508635 Eh    ::
         ::    -> Gelec               -0.113263371485 Eh    ::
         ::    -> Gsasa               -0.024946142414 Eh    ::
         ::    -> Ghb                 -0.004618273740 Eh    ::
         ::    -> Gshift               0.007624279005 Eh    ::
         :: repulsion energy           0.810072206893 Eh    ::
         :: dispersion energy         -0.025726895609 Eh    ::
         :: halogen bond corr.         0.000000000000 Eh    ::
         :: add. restraining           0.000000000000 Eh    ::
         :: total charge              -0.000000000000 e     ::
         :::::::::::::::::::::::::::::::::::::::::::::::::::::

           -------------------------------------------------
          |                Property Printout                |
           -------------------------------------------------

    * Orbital Energies and Occupations

         #    Occupation            Energy/Eh            Energy/eV
      -------------------------------------------------------------
         1        2.0000           -0.9651314             -26.2626
       ...           ...                  ...                  ...
        55        2.0000           -0.5065282             -13.7833
        56        2.0000           -0.5037219             -13.7070
        57        2.0000           -0.4991608             -13.5829
        58        2.0000           -0.4902386             -13.3401
        59        2.0000           -0.4832377             -13.1496
        60        2.0000           -0.4699740             -12.7886
        61        2.0000           -0.4683931             -12.7456
        62        2.0000           -0.4625623             -12.5870
        63        2.0000           -0.4474262             -12.1751
        64        2.0000           -0.4418285             -12.0228
        65        2.0000           -0.4250723             -11.5668
        66        2.0000           -0.3838768             -10.4458
        67        1.9960           -0.3724426             -10.1347 (HOMO)
        68        0.0040           -0.3606498              -9.8138 (LUMO)
        69                         -0.3109116              -8.4603
        70                         -0.2759153              -7.5080
        71                         -0.2486595              -6.7664
        72                         -0.2398739              -6.5273
        73                         -0.2019867              -5.4963
        74                         -0.1877902              -5.1100
        75                         -0.1738037              -4.7294
        76                         -0.1282316              -3.4894
        77                         -0.1253558              -3.4111
        78                         -0.1240866              -3.3766
       ...                                ...                  ...
       134                          0.7642648              20.7967
      -------------------------------------------------------------
                  HL-Gap            0.0117928 Eh            0.3209 eV
             Fermi-level           -0.3665462 Eh           -9.9742 eV

  Mulliken/CM5 charges         n(s)   n(p)   n(d)
     1C     0.17141  0.05201   0.972  2.857  0.000
     2O    -0.44707 -0.52727   1.693  4.754  0.000
     3C     0.54790  0.61216   0.977  2.475  0.000
     4O    -0.60567 -0.65068   1.732  4.874  0.000
     5C    -0.01852  0.05742   1.037  2.981  0.000
     6N    -0.37720 -0.56259   1.532  3.846  0.000
     7C     0.23212  0.38259   0.999  2.769  0.000
     8C     0.14935  0.18737   1.071  2.780  0.000
     9C    -0.09601 -0.23406   1.015  3.081  0.000
    10C    -0.10836 -0.24803   1.021  3.088  0.000
    11N    -0.31970 -0.67328   1.437  3.883  0.000
    12C     0.47730  0.58788   0.963  2.559  0.000
    13O    -0.55661 -0.61008   1.722  4.834  0.000
    14C     0.33634  0.46146   1.034  2.629  0.000
    15N    -0.17153 -0.28513   1.550  3.622  0.000
    16N    -0.18898 -0.30129   1.545  3.644  0.000
    17C     0.38746  0.49465   1.028  2.585  0.000
    18C    -0.11509 -0.25351   1.019  3.096  0.000
    19O    -0.19627 -0.29218   1.647  4.549  0.000
    20C     0.14919  0.02507   1.021  2.830  0.000
    21N    -0.32606 -0.67285   1.436  3.890  0.000
    22C     0.42912  0.53206   1.012  2.559  0.000
    23O    -0.60304 -0.64069   1.734  4.869  0.000
    24C     0.29237  0.33781   1.033  2.675  0.000
    25O    -0.62329 -0.66149   1.742  4.882  0.000
    26H     0.03457  0.09606   0.965  0.000  0.000
    27H     0.03539  0.09706   0.965  0.000  0.000
    28H     0.03437  0.09466   0.966  0.000  0.000
    29H     0.04332  0.10181   0.957  0.000  0.000
    30H     0.04934  0.10724   0.951  0.000  0.000
    31H     0.05208  0.11157   0.948  0.000  0.000
    32H     0.05149  0.10618   0.949  0.000  0.000
    33H     0.06104  0.12102   0.939  0.000  0.000
    34H     0.04615  0.10460   0.954  0.000  0.000
    35H     0.26441  0.47309   0.736  0.000  0.000
    36H     0.10534  0.15988   0.895  0.000  0.000
    37H     0.10474  0.15926   0.895  0.000  0.000
    38H     0.10595  0.16180   0.894  0.000  0.000
    39H     0.11732  0.18110   0.883  0.000  0.000
    40H     0.11712  0.18132   0.883  0.000  0.000
    41H     0.10265  0.16464   0.897  0.000  0.000
    42H     0.25557  0.46136   0.744  0.000  0.000

Wiberg/Mayer (AO) data.
largest (>0.10) Wiberg bond orders for each atom

 ---------------------------------------------------------------------------
     #   Z sym  total        # sym  WBO       # sym  WBO       # sym  WBO
 ---------------------------------------------------------------------------
     1   6 C    3.897 --    28 H    0.987    26 H    0.981    27 H    0.980
                             2 O    0.924
     2   8 O    2.139 --     3 C    1.030     1 C    0.924     4 O    0.110
     3   6 C    3.850 --     4 O    1.598     5 C    1.112     2 O    1.030
     4   8 O    1.873 --     3 C    1.598     2 O    0.110
     5   6 C    3.912 --    24 C    1.262     6 N    1.159     3 C    1.112
                            25 O    0.129
     6   7 N    3.033 --     7 C    1.635     5 C    1.159
     7   6 C    3.933 --     6 N    1.635    21 N    1.086     8 C    0.979
     8   6 C    3.911 --     9 C    0.993    10 C    0.982     7 C    0.979
                            11 N    0.889
     9   6 C    3.990 --     8 C    0.993    29 H    0.985    31 H    0.983
                            30 H    0.982
    10   6 C    3.987 --    34 H    0.984    32 H    0.984     8 C    0.982
                            33 H    0.980
    11   7 N    3.396 --    12 C    1.318    35 H    0.890     8 C    0.889
                            13 O    0.197
    12   6 C    3.928 --    13 O    1.572    11 N    1.318    14 C    0.965
    13   8 O    1.934 --    12 C    1.572    11 N    0.197
    14   6 C    3.795 --    15 N    1.704    12 C    0.965    19 O    0.885
    15   7 N    3.041 --    14 C    1.704    16 N    1.145
    16   7 N    3.024 --    17 C    1.699    15 N    1.145
    17   6 C    3.802 --    16 N    1.699    18 C    1.043    19 O    0.875
    18   6 C    3.970 --    17 C    1.043    38 H    0.970    37 H    0.951
                            36 H    0.951
    19   8 O    2.654 --    14 C    0.885    17 C    0.875    20 C    0.747
    20   6 C    3.724 --    41 H    0.975    40 H    0.968    39 H    0.968
                            19 O    0.747
    21   7 N    3.416 --    22 C    1.150     7 C    1.086    42 H    0.898
                            23 O    0.134
    22   6 C    3.874 --    23 O    1.589    21 N    1.150    24 C    0.964
    23   8 O    1.866 --    22 C    1.589    21 N    0.134
    24   6 C    3.941 --    25 O    1.533     5 C    1.262    22 C    0.964
    25   8 O    1.836 --    24 C    1.533     5 C    0.129
    26   1 H    1.013 --     1 C    0.981
    27   1 H    1.014 --     1 C    0.980
    28   1 H    1.016 --     1 C    0.987
    29   1 H    1.007 --     9 C    0.985
    30   1 H    1.012 --     9 C    0.982
    31   1 H    1.007 --     9 C    0.983
    32   1 H    1.001 --    10 C    0.984
    33   1 H    1.006 --    10 C    0.980
    34   1 H    1.001 --    10 C    0.984
    35   1 H    0.942 --    11 N    0.890
    36   1 H    0.988 --    18 C    0.951
    37   1 H    0.988 --    18 C    0.951
    38   1 H    0.989 --    18 C    0.970
    39   1 H    0.999 --    20 C    0.968
    40   1 H    1.000 --    20 C    0.968
    41   1 H    0.991 --    20 C    0.975
    42   1 H    0.944 --    21 N    0.898
 ---------------------------------------------------------------------------

Topologies differ in total number of bonds
Writing topology from bond orders to xtbtopo.mol

 dipole moment from electron density (au)
     X       Y       Z   
 -16.8503  -0.7422   6.0798  total (Debye):   45.571

           -------------------------------------------------
          |                Geometry Summary                 |
           -------------------------------------------------

      molecular mass/u    :      351.3152409
   center of mass at/Å    :        0.4752561       0.1490291      -0.4858101
  moments of inertia/u·Å² :        0.1152817E+04   0.5201517E+04   0.5730204E+04
rotational constants/cm⁻¹ :        0.1462299E-01   0.3240907E-02   0.2941890E-02

 * 36 selected distances

     #   Z          #   Z                                           value/Å
     1   6 C        2   8 O                                       1.4218999
     2   8 O        3   6 C                                       1.3672606
     3   6 C        4   8 O                                       1.2199277
     6   7 N        7   6 C                                       1.2788478
     8   6 C        9   6 C                                       1.5293354
     8   6 C       10   6 C                                       1.5341808 (max)
    11   7 N       12   6 C                                       1.3309638
    12   6 C       13   8 O                                       1.2179910
    14   6 C       15   7 N                                       1.2787961
    16   7 N       17   6 C                                       1.2772210
    17   6 C       18   6 C                                       1.4707336
    14   6 C       19   8 O                                       1.3952927
    17   6 C       19   8 O                                       1.4010180
    19   8 O       20   6 C                                       1.4640529
     7   6 C       21   7 N                                       1.3832135
    21   7 N       22   6 C                                       1.3751339
    22   6 C       23   8 O                                       1.2266596
     5   6 C       24   6 C                                       1.4215899
    24   6 C       25   8 O                                       1.2417053
     1   6 C       26   1 H                                       1.0949536
     1   6 C       27   1 H                                       1.0949967
     1   6 C       28   1 H                                       1.0890845
     9   6 C       29   1 H                                       1.0891093
     9   6 C       30   1 H                                       1.0894636
     9   6 C       31   1 H                                       1.0873895
    10   6 C       32   1 H                                       1.0894400
    10   6 C       33   1 H                                       1.0875603
    10   6 C       34   1 H                                       1.0883331
    11   7 N       35   1 H                                       1.0099895
    18   6 C       36   1 H                                       1.0904316
    18   6 C       37   1 H                                       1.0901612
    18   6 C       38   1 H                                       1.0888610
    20   6 C       39   1 H                                       1.0884174
    20   6 C       40   1 H                                       1.0883817
    20   6 C       41   1 H                                       1.0851505
    21   7 N       42   1 H                                       1.0045786 (min)

 * 5 distinct bonds (by element types)

   Z      Z             #   av. dist./Å        max./Å        min./Å
   1 H    6 C          15     1.0894489     1.0949967     1.0851505
   6 C    6 C           4     1.4889599     1.5341808     1.4215899
   1 H    7 N           2     1.0072841     1.0099895     1.0045786
   6 C    7 N           6     1.3206960     1.3832135     1.2772210
   6 C    8 O           9     1.3284231     1.4640529     1.2179910


optimized geometry written to: xtbopt.xyz


           -------------------------------------------------
          | TOTAL ENERGY              -82.913488781376 Eh   |
          | GRADIENT NORM               0.000901128773 Eh/α |
          | HOMO-LUMO GAP               0.320897632009 eV   |
           -------------------------------------------------

------------------------------------------------------------------------
 * finished run on 2023/06/21 at 17:17:08.003     
------------------------------------------------------------------------
 total:
 * wall-time:     0 d,  0 h,  0 min,  4.629 sec
 *  cpu-time:     0 d,  0 h,  0 min,  4.459 sec
 * ratio c/w:     0.963 speedup
 SCF:
 * wall-time:     0 d,  0 h,  0 min,  0.343 sec
 *  cpu-time:     0 d,  0 h,  0 min,  0.236 sec
 * ratio c/w:     0.687 speedup
 ANC optimizer:
 * wall-time:     0 d,  0 h,  0 min,  4.193 sec
 *  cpu-time:     0 d,  0 h,  0 min,  4.184 sec
 * ratio c/w:     0.998 speedup

