16
 energy: -33.440404225636 gnorm: 0.000652421574 xtb: 6.5.1 (579679a)
C           -1.91183616693036       -1.08949670745782        0.01075864322114
C           -0.54484910655615       -0.55154751197336        0.05253742572981
O            0.51948769700002       -1.30167933218835        0.22857732139821
C            1.57461800855924       -0.46474932610632        0.23044844938697
C            2.96132972603807       -0.99251531732514        0.41388470236400
O            3.18907101831167       -2.15059373286035        0.56919058051061
Cl           4.14947941550458        0.22752831540984        0.37256872508890
N            1.19224686974102        0.76619281045479        0.06078258425998
N           -0.14260648511030        0.70287671498326       -0.04941432246926
C           -0.91602702277277        1.91250218485708       -0.24777552590097
H           -2.50454224033994       -0.56006100565150       -0.73392349466570
H           -1.88008862914432       -2.15537820688158       -0.21080341113967
H           -2.38633231381556       -0.94574304805539        0.98476517204927
H           -1.61372324892567        2.02375544370184        0.58045124073718
H           -0.22255935072981        2.74873722626963       -0.28088558847161
H           -1.46367017082973        1.83017249282338       -1.18522350209883
