42
 energy: -83.610257864855 gnorm: 0.000792084671 xtb: 6.5.1 (579679a)
C           -5.98122686700072        1.17005017702361        0.92256449366160
O           -4.74278595347598        0.55695569831143        1.20319778912433
C           -3.79124426429942        0.64098615148428        0.16963453963850
O           -4.12601827779901        1.24639254344886       -0.87300054907343
C           -2.56708672453949       -0.00193232912216        0.41274642698237
N           -1.65009116009400        0.18835142390802       -0.59788834712253
C           -0.50403233904484       -0.38462395810671       -0.60295193066647
C            0.48694743282126       -0.13099580617113       -1.72070945716680
C            0.09478498264901        1.15334604168811       -2.46005514780671
C            0.51506386186866       -1.32613212420390       -2.68994776803643
N            1.82343677962445        0.02286588204547       -1.11475996942492
C            2.93692279192581        0.29719823449351       -1.81489416585694
O            2.98790620467729        0.51473804295796       -3.02403498446766
C            4.16093075927205        0.33917861439979       -0.98108608812960
N            5.36841571915807        0.64259900157553       -1.36976157516196
N            6.17013154518183        0.55479372219382       -0.26756582699225
C            5.40992966028082        0.20394095435893        0.72154352882050
C            5.81072288288436       -0.03224908266069        2.12683146916879
O            4.12798862816268        0.05183529588258        0.34386272180412
N           -0.13853111356579       -1.34930926738273        0.36156356198780
C           -1.03294220700165       -1.73432851555771        1.32708094088804
O           -0.87761607371717       -2.83025307623610        1.87860370360990
C           -2.07461058242407       -0.64046479105369        1.75179820952410
C           -3.23210280359893       -1.41967332530937        2.46650677428996
O           -1.44593389678650        0.22466574010501        2.56387140082551
H           -5.86460298285733        2.24315862078709        0.72071784867612
H           -6.61932094555980        1.04086411418655        1.79877947850440
H           -6.47005541537098        0.70951583125561        0.05397186594797
H            0.72514325718228        1.31230236930597       -3.33226236207201
H           -0.94385735944986        1.07078903082504       -2.78151262009007
H            0.18497793769256        2.01033251040405       -1.79240256681059
H            1.18994730833839       -1.13326231712436       -3.52233816931272
H           -0.48735680838052       -1.49700841994510       -3.08023684194353
H            0.84873684542487       -2.22205338444085       -2.16890662499996
H            1.91883172998612       -0.19267196048557       -0.13238643037243
H            5.69811655147565       -1.08747934375929        2.37499769549001
H            5.17846992743929        0.54364161572658        2.80134137601407
H            6.84984766027684        0.25776146264051        2.26160952905869
H            0.56011938261497       -2.02751248588948        0.10890115192554
H           -2.79694247749625       -2.11983338250044        3.18168259027684
H           -3.84467881556327       -1.97507836815636        1.75507878170439
H           -3.85633478091695       -0.72070914089727        3.01981654758614
