42
 energy: -83.671690075956 gnorm: 0.000913711898 xtb: 6.5.1 (579679a)
C           -6.88693054695478       -0.25430326837378       -0.90873042061709
O           -5.76192651450819       -0.27856006723925       -0.04746587918562
C           -4.58119892934274        0.12276673200093       -0.60301332547755
O           -4.54373589293018        0.45759782212671       -1.78509139067364
C           -3.44889698176442        0.11608156987360        0.30207178505238
N           -2.27615271778151        0.54984200363705       -0.29859088711669
C           -1.18253681559633        0.62807056096701        0.37134892315070
C            0.09091867262852        1.13841528706802       -0.29111039838316
C           -0.20817301227704        1.39560385204681       -1.77812534413150
C            0.50618669282211        2.47178020720029        0.36328025205806
N            1.15698192991162        0.13515045591102       -0.26867631936612
C            1.82050528254574       -0.11143781038283        0.82029173256865
O            1.68645829157421        0.32550453133517        1.99378249495989
C            2.96326271597233       -1.16609902548222        0.58665702707733
C            3.07143347130058       -2.13047782834698        1.76835967414274
N            2.77378364669393       -1.90956461319800       -0.67153309705248
N            3.92163058221694       -1.63306849402794       -1.47893438236605
C            4.67399326448453       -0.86208355603526       -0.80457368522438
C            5.99268145579496       -0.34035976113907       -1.25493022768597
O            4.23135021062898       -0.49839126215102        0.41609361439098
N           -1.13350763177026        0.28100833928893        1.70316754954646
C           -2.19916891478262       -0.17895327357640        2.41470286320689
O           -2.06946966048115       -0.48449165682738        3.60451052922212
C           -3.50793040437246       -0.27570037983630        1.66370993692918
O           -4.52029543922724       -0.68191343267075        2.27499191508060
H           -7.08011417987684        0.76101535343212       -1.27093983815923
H           -6.73425434481084       -0.90958054164430       -1.77287955865411
H           -7.74226432173332       -0.60428652478297       -0.33140370390873
H           -0.99882291064183        2.13711865380202       -1.89394507337206
H            0.69398080494501        1.75413405751585       -2.27208707625382
H           -0.52341026068934        0.46852564972308       -2.25762270222481
H            0.64480785315111        2.36313943458836        1.43760911424686
H           -0.26551792057592        3.22220483835667        0.18691139091886
H            1.44006713384794        2.82249661877734       -0.07536294795388
H            1.98109948275101       -1.48116616515345       -1.17914937507188
H            3.93379809691493       -2.78228519417518        1.64032535738712
H            3.18035333665666       -1.56318420560615        2.69180518827137
H            2.16951124544818       -2.73803817445814        1.82204174996491
H            6.21133908596049       -0.70607671594794       -2.25497428950074
H            6.77593096442337       -0.66549743184264       -0.57112660867657
H            5.98195432100932        0.74917184343778       -1.26044982410300
H           -0.23772114154029        0.35589157179612        2.18556725698822
