      -----------------------------------------------------------      
     |                   =====================                   |     
     |                           x T B                           |     
     |                   =====================                   |     
     |                         S. Grimme                         |     
     |          Mulliken Center for Theoretical Chemistry        |     
     |                    University of Bonn                     |     
      -----------------------------------------------------------      

   * xtb version 6.5.1 (579679a) compiled by 'ehlert@majestix' on 2022-07-11

   xtb is free software: you can redistribute it and/or modify it under
   the terms of the GNU Lesser General Public License as published by
   the Free Software Foundation, either version 3 of the License, or
   (at your option) any later version.
   
   xtb is distributed in the hope that it will be useful,
   but WITHOUT ANY WARRANTY; without even the implied warranty of
   MERCHANTABILITY or FITNESS FOR A PARTICULAR PURPOSE.  See the
   GNU Lesser General Public License for more details.
   
   Cite this work as:
   * C. Bannwarth, E. Caldeweyher, S. Ehlert, A. Hansen, P. Pracht,
     J. Seibert, S. Spicher, S. Grimme, WIREs Comput. Mol. Sci., 2020, 11,
     e01493. DOI: 10.1002/wcms.1493
   
   for GFN2-xTB:
   * C. Bannwarth, S. Ehlert and S. Grimme., J. Chem. Theory Comput., 2019,
     15, 1652-1671. DOI: 10.1021/acs.jctc.8b01176
   for GFN1-xTB:
   * S. Grimme, C. Bannwarth, P. Shushkov, J. Chem. Theory Comput., 2017,
     13, 1989-2009. DOI: 10.1021/acs.jctc.7b00118
   for GFN0-xTB:
   * P. Pracht, E. Caldeweyher, S. Ehlert, S. Grimme, ChemRxiv, 2019, preprint.
     DOI: 10.26434/chemrxiv.8326202.v1
   for GFN-FF:
   * S. Spicher and S. Grimme, Angew. Chem. Int. Ed., 2020, 59, 15665-15673.
     DOI: 10.1002/anie.202004239
   
   for ALPB and GBSA implicit solvation:
   * S. Ehlert, M. Stahn, S. Spicher, S. Grimme, J. Chem. Theory Comput.,
     2021, 17, 4250-4261. DOI: 10.1021/acs.jctc.1c00471
   
   for DFT-D4:
   * E. Caldeweyher, C. Bannwarth and S. Grimme, J. Chem. Phys., 2017,
     147, 034112. DOI: 10.1063/1.4993215
   * E. Caldeweyher, S. Ehlert, A. Hansen, H. Neugebauer, S. Spicher,
     C. Bannwarth and S. Grimme, J. Chem. Phys., 2019, 150, 154122.
     DOI: 10.1063/1.5090222
   * E. Caldeweyher, J.-M. Mewes, S. Ehlert and S. Grimme, Phys. Chem. Chem. Phys.
     2020, 22, 8499-8512. DOI: 10.1039/D0CP00502A
   
   for sTDA-xTB:
   * S. Grimme and C. Bannwarth, J. Chem. Phys., 2016, 145, 054103.
     DOI: 10.1063/1.4959605
   
   in the mass-spec context:
   * V. Asgeirsson, C. Bauer and S. Grimme, Chem. Sci., 2017, 8, 4879.
     DOI: 10.1039/c7sc00601b
   * J. Koopman and S. Grimme, ACS Omega 2019, 4, 12, 15120-15133.
     DOI: 10.1021/acsomega.9b02011
   
   for metadynamics refer to:
   * S. Grimme, J. Chem. Theory Comput., 2019, 155, 2847-2862
     DOI: 10.1021/acs.jctc.9b00143
   
   for SPH calculations refer to:
   * S. Spicher and S. Grimme, J. Chem. Theory Comput., 2021, 17, 1701-1714
     DOI: 10.1021/acs.jctc.0c01306
   
   with help from (in alphabetical order)
   P. Atkinson, C. Bannwarth, F. Bohle, G. Brandenburg, E. Caldeweyher
   M. Checinski, S. Dohm, S. Ehlert, S. Ehrlich, I. Gerasimov, C. Hölzer
   A. Katbashev, J. Koopman, C. Lavigne, S. Lehtola, F. März, M. Müller,
   F. Musil, H. Neugebauer, J. Pisarek, C. Plett, P. Pracht, F. Pultar,
   J. Seibert, P. Shushkov, S. Spicher, M. Stahn, M. Steiner, T. Strunk,
   J. Stückrath, T. Rose, and J. Unsleber
   
 * started run on 2023/06/21 at 17:14:23.781     

           -------------------------------------------------
          |                Calculation Setup                |
           -------------------------------------------------

          program call               : /lustre/hpc/kemi/ree/PhD/git/ReactivityQM/dep/xtb-6.5.1/bin/xtb --gfn 1 /lustre/hpc/kemi/ree/PhD/git/ReactivityQM/calculations/R02oxygendeprot/reac01prodE12/conf04/R02oxygendeprot_reac01prodE12_conf04_gfn1.xyz --opt --vfukui --chrg -2 --uhf 0 --alpb DMSO
          hostname                   : node070
          coordinate file            : /lustre/hpc/kemi/ree/PhD/git/ReactivityQM/calculations/R02oxygendeprot/reac01prodE12/conf04/R02oxygendeprot_reac01prodE12_conf04_gfn1.xyz
          omp threads                :                     1

   ID    Z sym.   atoms
    1    6 C      1, 3, 5, 6, 8, 9, 12-15, 17, 19, 22, 23
    2    8 O      2, 4, 7, 10, 18, 24
    3    7 N      11, 16, 20, 21, 25
    4    1 H      26-42

           -------------------------------------------------
          |                 G F N 1 - x T B                 |
           -------------------------------------------------

        Reference                      10.1021/acs.jctc.7b00118
      * Hamiltonian:
        H0-scaling (s, p, d)           1.850000    2.250000    2.000000
        zeta-weighting                 0.000000
      * Dispersion:
        s8                             2.400000
        a1                             0.630000
        a2                             5.000000
        s9                             0.000000
      * Repulsion:
        kExp                           1.500000
        rExp                           1.000000
      * Coulomb:
        alpha                          2.000000
        third order                    atomic
        anisotropic                    false
      * Halogen bond correction:
        rad-scale                      1.300000
        damping                        0.440000

      * Solvation model:               ALPB
        Solvent                        DMSO
        Parameter file                 internal GFN1-xTB/ALPB
        Dielectric constant                4.6680E+01
        Reference state                gsolv [1 M gas/solution]
        Free energy shift                  7.6243E-03 Eh       4.7843E+00 kcal/mol
        Temperature                        2.9815E+02 K
        Density                            1.1000E+00 kg/L
        Solvent mass                       7.8130E+01 g/mol
        Interaction kernel             P16
        Born radius scaling (c1)           1.7672E+00
        Born radii integrator          GBOBC
        Born offset                        0.0000E+00 a0       0.0000E+00 AA
        H-bond correction              true
        Ion screening                  false
        Surface tension                    1.0000E-05 Eh       1.5569E+01 dyn/cm
        Grid points                               230 per atom

          ...................................................
          :                      SETUP                      :
          :.................................................:
          :  # basis functions                 134          :
          :  # atomic orbitals                 134          :
          :  # shells                           84          :
          :  # electrons                       136          :
          :  # halogen bonds                     0          :
          :  max. iterations                   250          :
          :  Hamiltonian                  GFN1-xTB          :
          :  restarted?                      false          :
          :  GBSA solvation                   true          :
          :  PC potential                    false          :
          :  electronic temp.          300.0000000     K    :
          :  accuracy                    1.0000000          :
          :  -> integral cutoff          0.2500000E+02      :
          :  -> integral neglect         0.1000000E-07      :
          :  -> SCF convergence          0.1000000E-05 Eh   :
          :  -> wf. convergence          0.2000000E-04 e    :
          :  Broyden damping             0.4000000          :
          ...................................................

 iter      E             dE          RMSdq      gap      omega  full diag
   1    -84.0014687 -0.840015E+02  0.868E+00    2.24       0.0  T
   2    -84.2965972 -0.295129E+00  0.518E+00    0.70       1.0  T
   3    -83.7192100  0.577387E+00  0.291E+00    0.21       1.0  T
   4    -84.2450471 -0.525837E+00  0.132E+00    2.05       1.0  T
   5    -84.3050600 -0.600130E-01  0.654E-01    1.13       1.0  T
   6    -84.3112659 -0.620583E-02  0.473E-01    0.75       1.0  T
   7    -84.3182919 -0.702600E-02  0.270E-01    0.27       1.0  T
   8    -84.1459506  0.172341E+00  0.112E+00    0.06       1.0  T
   9    -84.2334585 -0.875079E-01  0.804E-01    0.03       1.0  T
  10    -84.1755366  0.579218E-01  0.100E+00    0.05       1.0  T
  11    -84.3220032 -0.146467E+00  0.143E-01    0.16       1.0  T
  12    -84.3220026  0.563759E-06  0.122E-01    0.17       1.0  T
  13    -84.3227195 -0.716845E-03  0.864E-02    0.15       1.0  T
  14    -84.3233810 -0.661479E-03  0.328E-02    0.11       1.0  T
  15    -84.3235051 -0.124191E-03  0.152E-02    0.12       1.0  T
  16    -84.3235134 -0.826932E-05  0.793E-03    0.12       1.9  T
  17    -84.3235144 -0.103689E-05  0.675E-03    0.12       2.3  T
  18    -84.3235204 -0.590241E-05  0.262E-03    0.12       5.9  T
  19    -84.3235206 -0.222992E-06  0.167E-03    0.12       9.2  T
  20    -84.3235208 -0.207290E-06  0.978E-04    0.12      15.8  T
  21    -84.3235209 -0.964649E-07  0.450E-04    0.12      34.3  T
  22    -84.3235209 -0.240363E-07  0.198E-04    0.12      77.8  T
  23    -84.3235209 -0.355308E-08  0.107E-04    0.12     143.7  T

   *** convergence criteria satisfied after 23 iterations ***

         #    Occupation            Energy/Eh            Energy/eV
      -------------------------------------------------------------
         1        2.0000           -0.8361350             -22.7524
       ...           ...                  ...                  ...
        62        2.0000           -0.4031400             -10.9700
        63        2.0000           -0.3949803             -10.7480
        64        2.0000           -0.3774311             -10.2704
        65        2.0000           -0.3531443              -9.6095
        66        2.0000           -0.3234637              -8.8019
        67        1.9972           -0.3012518              -8.1975
        68        1.8334           -0.2972754              -8.0893 (HOMO)
        69        0.1694           -0.2927357              -7.9657 (LUMO)
        70                         -0.2408049              -6.5526
        71                         -0.1997959              -5.4367
        72                         -0.1951884              -5.3113
        73                         -0.1769505              -4.8151
       ...                                ...                  ...
       134                          0.7550665              20.5464
      -------------------------------------------------------------
                  HL-Gap            0.0045397 Eh            0.1235 eV
             Fermi-level           -0.2949970 Eh           -8.0273 eV

 SCC (total)                   0 d,  0 h,  0 min,  0.209 sec
 SCC setup                      ...        0 min,  0.002 sec (  0.904%)
 Dispersion                     ...        0 min,  0.000 sec (  0.132%)
 classical contributions        ...        0 min,  0.000 sec (  0.045%)
 integral evaluation            ...        0 min,  0.025 sec ( 12.011%)
 iterations                     ...        0 min,  0.123 sec ( 58.950%)
 molecular gradient             ...        0 min,  0.057 sec ( 27.308%)
 printout                       ...        0 min,  0.001 sec (  0.639%)

         :::::::::::::::::::::::::::::::::::::::::::::::::::::
         ::                     SUMMARY                     ::
         :::::::::::::::::::::::::::::::::::::::::::::::::::::
         :: total energy             -83.600885649327 Eh    ::
         :: total w/o Gsasa/hb       -83.581694835756 Eh    ::
         :: gradient norm              0.153978190019 Eh/a0 ::
         :: HOMO-LUMO gap              0.123531544289 eV    ::
         ::.................................................::
         :: SCC energy               -84.323520904790 Eh    ::
         :: -> electrostatic           0.740867422483 Eh    ::
         :: -> Gsolv                  -0.292486215360 Eh    ::
         ::    -> Gelec               -0.273295401789 Eh    ::
         ::    -> Gsasa               -0.024610512525 Eh    ::
         ::    -> Ghb                 -0.002204580050 Eh    ::
         ::    -> Gshift               0.007624279005 Eh    ::
         :: repulsion energy           0.748001394361 Eh    ::
         :: dispersion energy         -0.025366138897 Eh    ::
         :: halogen bond corr.         0.000000000000 Eh    ::
         :: add. restraining           0.000000000000 Eh    ::
         :: total charge              -2.000000000000 e     ::
         :::::::::::::::::::::::::::::::::::::::::::::::::::::

      ----------------------------------------------------------- 
     |                   =====================                   |
     |                        A N C O P T                        |
     |                   =====================                   |
     |               Approximate Normal Coordinate               |
     |                Rational Function Optimizer                |
      ----------------------------------------------------------- 

          ...................................................
          :                      SETUP                      :
          :.................................................:
          :   optimization level            normal          :
          :   max. optcycles                   200          :
          :   ANC micro-cycles                  20          :
          :   degrees of freedom               120          :
          :.................................................:
          :   RF solver                   davidson          :
          :   write xtbopt.log                true          :
          :   linear?                        false          :
          :   energy convergence         0.5000000E-05 Eh   :
          :   grad. convergence          0.1000000E-02 Eh/α :
          :   maximium RF displ.         1.0000000          :
          :   Hlow (freq-cutoff)         0.1000000E-01      :
          :   Hmax (freq-cutoff)         5.0000000          :
          :   S6 in model hess.         20.0000000          :
          ...................................................

generating ANC from model Hessian ...
Using Lindh-Hessian (1995)
 Shifting diagonal of input Hessian by   9.850114010952201E-003
 Lowest  eigenvalues of input Hessian
    0.000000    0.000000    0.000000    0.000000    0.000000    0.000000
    0.010000    0.010160    0.010755    0.011284    0.011646    0.012203
    0.012694    0.013671    0.014217    0.015129    0.016170    0.017189
 Highest eigenvalues
    1.974541    2.046805    2.094465    2.172295    2.261001    2.303616
 

........................................................................
.............................. CYCLE    1 ..............................
........................................................................
   1    -84.3235209 -0.843235E+02  0.399E-05    0.12       0.0  T
   2    -84.3235209  0.623044E-08  0.210E-04    0.12      73.4  T
   3    -84.3235209 -0.634468E-08  0.256E-05    0.12     601.7  T
   4    -84.3235209 -0.766676E-10  0.228E-06    0.12    6756.1  T
     SCC iter.                  ...        0 min,  0.021 sec
     gradient                   ...        0 min,  0.057 sec
 * total energy  :   -83.6008857 Eh     change       -0.1645674E-08 Eh
   gradient norm :     0.1539888 Eh/α   predicted     0.0000000E+00 (-100.00%)
   displ. norm   :     0.3028672 α      lambda       -0.2144301E-01
   maximum displ.:     0.0940398 α      in ANC's #20, #23, #64, ...

........................................................................
.............................. CYCLE    2 ..............................
........................................................................
   1    -84.3347817 -0.843348E+02  0.177E-01    0.32       0.0  T
   2    -84.0911832  0.243598E+00  0.135E+00    0.08       1.0  T
   3    -84.3362078 -0.245025E+00  0.114E-01    0.24       1.0  T
   4    -84.3368918 -0.684024E-03  0.850E-02    0.20       1.0  T
   5    -84.3373601 -0.468307E-03  0.599E-02    0.18       1.0  T
   6    -84.3377022 -0.342069E-03  0.292E-02    0.16       1.0  T
   7    -84.3378121 -0.109882E-03  0.190E-03    0.14       8.1  T
   8    -84.3378121 -0.411783E-07  0.980E-04    0.14      15.7  T
   9    -84.3378121  0.177934E-09  0.848E-04    0.14      18.2  T
  10    -84.3378122 -0.741869E-07  0.158E-04    0.14      97.9  T
  11    -84.3378122 -0.284965E-08  0.584E-05    0.14     264.1  T
     SCC iter.                  ...        0 min,  0.057 sec
     gradient                   ...        0 min,  0.058 sec
 * total energy  :   -83.6164682 Eh     change       -0.1558256E-01 Eh
   gradient norm :     0.0810668 Eh/α   predicted    -0.1171835E-01 ( -24.80%)
   displ. norm   :     0.3338027 α      lambda       -0.1130794E-01
   maximum displ.:     0.1346459 α      in ANC's #18, #23, #20, ...

........................................................................
.............................. CYCLE    3 ..............................
........................................................................
   1    -84.3548673 -0.843549E+02  0.144E-01    0.34       0.0  T
   2    -84.3365806  0.182867E-01  0.399E-01    0.07       1.0  T
   3    -84.3556270 -0.190464E-01  0.881E-02    0.30       1.0  T
   4    -84.3559466 -0.319586E-03  0.641E-02    0.25       1.0  T
   5    -84.3562987 -0.352099E-03  0.302E-02    0.20       1.0  T
   6    -84.3563945 -0.957661E-04  0.521E-03    0.17       3.0  T
   7    -84.3563956 -0.113326E-05  0.333E-03    0.17       4.6  T
   8    -84.3563953  0.309554E-06  0.333E-03    0.17       4.6  T
   9    -84.3563967 -0.142229E-05  0.100E-04    0.18     153.7  T
  10    -84.3563967  0.836806E-09  0.966E-05    0.18     159.7  T
  11    -84.3563967 -0.947637E-09  0.336E-05    0.18     458.8  T
     SCC iter.                  ...        0 min,  0.058 sec
     gradient                   ...        0 min,  0.057 sec
 * total energy  :   -83.6231961 Eh     change       -0.6727858E-02 Eh
   gradient norm :     0.0268868 Eh/α   predicted    -0.6283963E-02 (  -6.60%)
   displ. norm   :     0.2328579 α      lambda       -0.2075215E-02
   maximum displ.:     0.1265760 α      in ANC's #18, #23, #3, ...

........................................................................
.............................. CYCLE    4 ..............................
........................................................................
   1    -84.3608585 -0.843609E+02  0.507E-02    0.24       0.0  T
   2    -84.3593425  0.151608E-02  0.119E-01    0.13       1.0  T
   3    -84.3610352 -0.169272E-02  0.262E-02    0.22       1.0  T
   4    -84.3610872 -0.520637E-04  0.115E-02    0.20       1.3  T
   5    -84.3610940 -0.679609E-05  0.479E-03    0.19       3.2  T
   6    -84.3610946 -0.562928E-06  0.276E-03    0.19       5.6  T
   7    -84.3610955 -0.909562E-06  0.292E-04    0.19      52.9  T
   8    -84.3610955 -0.700001E-08  0.910E-05    0.19     169.5  T
   9    -84.3610955 -0.317257E-09  0.286E-05    0.19     538.9  T
     SCC iter.                  ...        0 min,  0.046 sec
     gradient                   ...        0 min,  0.055 sec
 * total energy  :   -83.6246695 Eh     change       -0.1473436E-02 Eh
   gradient norm :     0.0185676 Eh/α   predicted    -0.1094011E-02 ( -25.75%)
   displ. norm   :     0.3009560 α      lambda       -0.1574322E-02
   maximum displ.:     0.1550444 α      in ANC's #18, #23, #3, ...

........................................................................
.............................. CYCLE    5 ..............................
........................................................................
   1    -84.3624463 -0.843624E+02  0.463E-02    0.25       0.0  T
   2    -84.3623982  0.481418E-04  0.460E-02    0.18       1.0  T
   3    -84.3625698 -0.171592E-03  0.209E-02    0.23       1.0  T
   4    -84.3625961 -0.263263E-04  0.963E-03    0.21       1.6  T
   5    -84.3625949  0.122807E-05  0.416E-03    0.21       3.7  T
   6    -84.3625962 -0.135270E-05  0.690E-04    0.21      22.4  T
   7    -84.3625963 -0.288209E-07  0.321E-04    0.21      48.1  T
   8    -84.3625963 -0.774291E-08  0.692E-05    0.21     223.0  T
   9    -84.3625963  0.128466E-10  0.312E-05    0.21     494.4  T
     SCC iter.                  ...        0 min,  0.046 sec
     gradient                   ...        0 min,  0.056 sec
 * total energy  :   -83.6256892 Eh     change       -0.1019698E-02 Eh
   gradient norm :     0.0149246 Eh/α   predicted    -0.8584582E-03 ( -15.81%)
   displ. norm   :     0.2460196 α      lambda       -0.7306075E-03
   maximum displ.:     0.1329166 α      in ANC's #3, #18, #10, ...

........................................................................
.............................. CYCLE    6 ..............................
........................................................................
   1    -84.3634101 -0.843634E+02  0.298E-02    0.24       0.0  T
   2    -84.3634463 -0.362025E-04  0.200E-02    0.21       1.0  T
   3    -84.3634653 -0.189864E-04  0.894E-03    0.23       1.7  T
   4    -84.3634670 -0.167671E-05  0.612E-03    0.22       2.5  T
   5    -84.3634679 -0.919459E-06  0.150E-03    0.23      10.3  T
   6    -84.3634679 -0.271698E-07  0.228E-04    0.23      67.7  T
   7    -84.3634679 -0.153159E-08  0.866E-05    0.23     178.2  T
   8    -84.3634679 -0.273531E-09  0.278E-05    0.23     554.5  T
     SCC iter.                  ...        0 min,  0.041 sec
     gradient                   ...        0 min,  0.055 sec
 * total energy  :   -83.6262142 Eh     change       -0.5249862E-03 Eh
   gradient norm :     0.0119980 Eh/α   predicted    -0.3874220E-03 ( -26.20%)
   displ. norm   :     0.2818047 α      lambda       -0.6049689E-03
   maximum displ.:     0.1754168 α      in ANC's #3, #10, #6, ...

........................................................................
.............................. CYCLE    7 ..............................
........................................................................
   1    -84.3640208 -0.843640E+02  0.280E-02    0.25       0.0  T
   2    -84.3640631 -0.423064E-04  0.162E-02    0.23       1.0  T
   3    -84.3640712 -0.806963E-05  0.625E-03    0.24       2.5  T
   4    -84.3640709  0.260369E-06  0.442E-03    0.23       3.5  T
   5    -84.3640714 -0.467322E-06  0.150E-03    0.24      10.3  T
   6    -84.3640715 -0.880426E-07  0.152E-04    0.24     101.4  T
   7    -84.3640715 -0.676536E-09  0.465E-05    0.24     331.6  T
     SCC iter.                  ...        0 min,  0.036 sec
     gradient                   ...        0 min,  0.055 sec
 * total energy  :   -83.6266326 Eh     change       -0.4184306E-03 Eh
   gradient norm :     0.0089543 Eh/α   predicted    -0.3265202E-03 ( -21.97%)
   displ. norm   :     0.2150403 α      lambda       -0.3172003E-03
   maximum displ.:     0.1462210 α      in ANC's #3, #6, #8, ...

........................................................................
.............................. CYCLE    8 ..............................
........................................................................
   1    -84.3645989 -0.843646E+02  0.151E-02    0.24       0.0  T
   2    -84.3646118 -0.129198E-04  0.862E-03    0.24       1.8  T
   3    -84.3646132 -0.135843E-05  0.373E-03    0.24       4.1  T
   4    -84.3646131  0.301494E-07  0.200E-03    0.24       7.7  T
   5    -84.3646132 -0.225520E-07  0.507E-04    0.24      30.4  T
   6    -84.3646132 -0.225453E-07  0.878E-05    0.24     175.7  T
   7    -84.3646132 -0.421451E-09  0.263E-05    0.24     586.4  T
     SCC iter.                  ...        0 min,  0.036 sec
     gradient                   ...        0 min,  0.056 sec
 * total energy  :   -83.6268622 Eh     change       -0.2295671E-03 Eh
   gradient norm :     0.0072774 Eh/α   predicted    -0.1659393E-03 ( -27.72%)
   displ. norm   :     0.2053519 α      lambda       -0.2223635E-03
   maximum displ.:     0.1412447 α      in ANC's #3, #6, #5, ...

........................................................................
.............................. CYCLE    9 ..............................
........................................................................
   1    -84.3648348 -0.843648E+02  0.987E-03    0.24       0.0  T
   2    -84.3648400 -0.523646E-05  0.477E-03    0.24       3.2  T
   3    -84.3648405 -0.493072E-06  0.233E-03    0.24       6.6  T
   4    -84.3648405  0.238080E-07  0.158E-03    0.24       9.8  T
   5    -84.3648406 -0.888831E-07  0.436E-04    0.24      35.4  T
   6    -84.3648406 -0.655957E-08  0.674E-05    0.24     228.8  T
   7    -84.3648406 -0.131152E-09  0.257E-05    0.24     601.0  T
     SCC iter.                  ...        0 min,  0.038 sec
     gradient                   ...        0 min,  0.059 sec
 * total energy  :   -83.6270343 Eh     change       -0.1720746E-03 Eh
   gradient norm :     0.0066897 Eh/α   predicted    -0.1158796E-03 ( -32.66%)
   displ. norm   :     0.2584838 α      lambda       -0.2288779E-03
   maximum displ.:     0.1738970 α      in ANC's #3, #6, #5, ...

........................................................................
.............................. CYCLE   10 ..............................
........................................................................
   1    -84.3645599 -0.843646E+02  0.768E-03    0.23       0.0  T
   2    -84.3645628 -0.294096E-05  0.306E-03    0.24       5.0  T
   3    -84.3645630 -0.202554E-06  0.173E-03    0.23       8.9  T
   4    -84.3645630 -0.266459E-07  0.101E-03    0.24      15.2  T
   5    -84.3645631 -0.444518E-07  0.298E-04    0.24      51.7  T
   6    -84.3645631 -0.250201E-08  0.585E-05    0.24     263.7  T
   7    -84.3645631 -0.765112E-10  0.219E-05    0.24     703.3  T
     SCC iter.                  ...        0 min,  0.037 sec
     gradient                   ...        0 min,  0.058 sec
 * total energy  :   -83.6272185 Eh     change       -0.1842306E-03 Eh
   gradient norm :     0.0071373 Eh/α   predicted    -0.1220994E-03 ( -33.72%)
   displ. norm   :     0.3476784 α      lambda       -0.2715661E-03
   maximum displ.:     0.2295262 α      in ANC's #3, #5, #6, ...

........................................................................
.............................. CYCLE   11 ..............................
........................................................................
   1    -84.3637808 -0.843638E+02  0.648E-03    0.23       0.0  T
   2    -84.3637824 -0.157380E-05  0.281E-03    0.23       5.5  T
   3    -84.3637825 -0.794232E-07  0.134E-03    0.23      11.5  T
   4    -84.3637825 -0.482854E-08  0.492E-04    0.23      31.3  T
   5    -84.3637825 -0.145837E-08  0.188E-04    0.23      82.0  T
   6    -84.3637825 -0.118177E-08  0.785E-05    0.23     196.5  T
     SCC iter.                  ...        0 min,  0.032 sec
     gradient                   ...        0 min,  0.059 sec
 * total energy  :   -83.6274350 Eh     change       -0.2164846E-03 Eh
   gradient norm :     0.0076412 Eh/α   predicted    -0.1522017E-03 ( -29.69%)
   displ. norm   :     0.3973497 α      lambda       -0.2736910E-03
   maximum displ.:     0.2628761 α      in ANC's #3, #5, #6, ...

........................................................................
.............................. CYCLE   12 ..............................
........................................................................
   1    -84.3632356 -0.843632E+02  0.635E-03    0.24       0.0  T
   2    -84.3632364 -0.876725E-06  0.415E-03    0.23       3.7  T
   3    -84.3632368 -0.405702E-06  0.199E-03    0.24       7.8  T
   4    -84.3632369 -0.389543E-07  0.115E-03    0.23      13.5  T
   5    -84.3632370 -0.781736E-07  0.248E-04    0.23      62.1  T
   6    -84.3632370 -0.413593E-09  0.610E-05    0.23     252.8  T
   7    -84.3632370 -0.554081E-10  0.202E-05    0.23     763.1  T
     SCC iter.                  ...        0 min,  0.037 sec
     gradient                   ...        0 min,  0.058 sec
 * total energy  :   -83.6276510 Eh     change       -0.2159941E-03 Eh
   gradient norm :     0.0070743 Eh/α   predicted    -0.1584538E-03 ( -26.64%)
   displ. norm   :     0.4167756 α      lambda       -0.2540079E-03
   maximum displ.:     0.2798197 α      in ANC's #3, #5, #6, ...

........................................................................
.............................. CYCLE   13 ..............................
........................................................................
   1    -84.3635054 -0.843635E+02  0.790E-03    0.24       0.0  T
   2    -84.3635071 -0.172071E-05  0.492E-03    0.23       3.1  T
   3    -84.3635081 -0.969795E-06  0.227E-03    0.24       6.8  T
   4    -84.3635082 -0.894296E-07  0.122E-03    0.24      12.7  T
   5    -84.3635083 -0.657181E-07  0.265E-04    0.24      58.2  T
   6    -84.3635083 -0.787807E-09  0.680E-05    0.24     227.0  T
   7    -84.3635083 -0.631957E-10  0.260E-05    0.24     593.1  T
     SCC iter.                  ...        0 min,  0.037 sec
     gradient                   ...        0 min,  0.058 sec
 * total energy  :   -83.6278425 Eh     change       -0.1915080E-03 Eh
   gradient norm :     0.0058638 Eh/α   predicted    -0.1490672E-03 ( -22.16%)
   displ. norm   :     0.3458203 α      lambda       -0.1805273E-03
   maximum displ.:     0.2352381 α      in ANC's #3, #5, #6, ...

........................................................................
.............................. CYCLE   14 ..............................
........................................................................
   1    -84.3646363 -0.843646E+02  0.718E-03    0.24       0.0  T
   2    -84.3646381 -0.173261E-05  0.350E-03    0.24       4.4  T
   3    -84.3646385 -0.452826E-06  0.179E-03    0.24       8.6  T
   4    -84.3646386 -0.787867E-07  0.903E-04    0.24      17.1  T
   5    -84.3646386 -0.277186E-07  0.201E-04    0.24      76.8  T
   6    -84.3646386 -0.815746E-09  0.553E-05    0.24     279.1  T
   7    -84.3646386 -0.474216E-10  0.233E-05    0.24     662.7  T
     SCC iter.                  ...        0 min,  0.037 sec
     gradient                   ...        0 min,  0.059 sec
 * total energy  :   -83.6279743 Eh     change       -0.1318442E-03 Eh
   gradient norm :     0.0049286 Eh/α   predicted    -0.1010607E-03 ( -23.35%)
   displ. norm   :     0.2570903 α      lambda       -0.1235273E-03
   maximum displ.:     0.1735988 α      in ANC's #3, #5, #4, ...

........................................................................
.............................. CYCLE   15 ..............................
........................................................................
   1    -84.3660248 -0.843660E+02  0.526E-03    0.25       0.0  T
   2    -84.3660257 -0.906439E-06  0.208E-03    0.24       7.4  T
   3    -84.3660258 -0.689590E-07  0.112E-03    0.25      13.7  T
   4    -84.3660258 -0.190978E-08  0.491E-04    0.24      31.5  T
   5    -84.3660258 -0.883901E-08  0.217E-04    0.24      71.2  T
   6    -84.3660258 -0.240081E-08  0.407E-05    0.24     379.0  T
   7    -84.3660258 -0.246985E-10  0.164E-05    0.24     939.3  T
     SCC iter.                  ...        0 min,  0.038 sec
     gradient                   ...        0 min,  0.058 sec
 * total energy  :   -83.6280625 Eh     change       -0.8818660E-04 Eh
   gradient norm :     0.0043773 Eh/α   predicted    -0.6584761E-04 ( -25.33%)
   displ. norm   :     0.1928548 α      lambda       -0.8864009E-04
   maximum displ.:     0.1233617 α      in ANC's #3, #4, #5, ...

........................................................................
.............................. CYCLE   16 ..............................
........................................................................
   1    -84.3668733 -0.843669E+02  0.419E-03    0.25       0.0  T
   2    -84.3668739 -0.610840E-06  0.203E-03    0.25       7.6  T
   3    -84.3668740 -0.688321E-07  0.936E-04    0.25      16.5  T
   4    -84.3668740  0.172990E-08  0.605E-04    0.25      25.5  T
   5    -84.3668740 -0.118374E-07  0.166E-04    0.25      92.8  T
   6    -84.3668740 -0.594142E-09  0.366E-05    0.25     421.9  T
     SCC iter.                  ...        0 min,  0.033 sec
     gradient                   ...        0 min,  0.058 sec
 * total energy  :   -83.6281291 Eh     change       -0.6657750E-04 Eh
   gradient norm :     0.0041188 Eh/α   predicted    -0.4596907E-04 ( -30.95%)
   displ. norm   :     0.2140673 α      lambda       -0.8614111E-04
   maximum displ.:     0.1288484 α      in ANC's #3, #4, #1, ...

........................................................................
.............................. CYCLE   17 ..............................
........................................................................
   1    -84.3670916 -0.843671E+02  0.455E-03    0.25       0.0  T
   2    -84.3670924 -0.768177E-06  0.243E-03    0.25       6.4  T
   3    -84.3670926 -0.201400E-06  0.115E-03    0.25      13.4  T
   4    -84.3670926 -0.958241E-08  0.677E-04    0.25      22.8  T
   5    -84.3670926 -0.118412E-07  0.170E-04    0.25      90.9  T
   6    -84.3670926 -0.316106E-09  0.380E-05    0.25     406.2  T
     SCC iter.                  ...        0 min,  0.032 sec
     gradient                   ...        0 min,  0.060 sec
 * total energy  :   -83.6281929 Eh     change       -0.6384112E-04 Eh
   gradient norm :     0.0041184 Eh/α   predicted    -0.4504462E-04 ( -29.44%)
   displ. norm   :     0.2052792 α      lambda       -0.7682490E-04
   maximum displ.:     0.1079369 α      in ANC's #3, #4, #1, ...

........................................................................
.............................. CYCLE   18 ..............................
........................................................................
   1    -84.3672464 -0.843672E+02  0.414E-03    0.24       0.0  T
   2    -84.3672470 -0.543583E-06  0.216E-03    0.25       7.1  T
   3    -84.3672472 -0.200210E-06  0.115E-03    0.25      13.5  T
   4    -84.3672472 -0.275931E-07  0.510E-04    0.25      30.2  T
   5    -84.3672472 -0.422935E-08  0.112E-04    0.25     137.6  T
   6    -84.3672472 -0.169763E-09  0.325E-05    0.25     474.4  T
     SCC iter.                  ...        0 min,  0.033 sec
     gradient                   ...        0 min,  0.058 sec
 * total energy  :   -83.6282506 Eh     change       -0.5771071E-04 Eh
   gradient norm :     0.0040637 Eh/α   predicted    -0.4003218E-04 ( -30.63%)
   displ. norm   :     0.2456118 α      lambda       -0.7647755E-04
   maximum displ.:     0.1332942 α      in ANC's #3, #4, #1, ...

........................................................................
.............................. CYCLE   19 ..............................
........................................................................
   1    -84.3655616 -0.843656E+02  0.515E-03    0.25       0.0  T
   2    -84.3655622 -0.603387E-06  0.237E-03    0.25       6.5  T
   3    -84.3655622 -0.326885E-07  0.142E-03    0.25      10.9  T
   4    -84.3655622 -0.859231E-09  0.523E-04    0.25      29.5  T
   5    -84.3655623 -0.174763E-07  0.141E-04    0.25     109.4  T
   6    -84.3655623 -0.101680E-08  0.397E-05    0.25     389.0  T
     SCC iter.                  ...        0 min,  0.031 sec
     gradient                   ...        0 min,  0.057 sec
 * total energy  :   -83.6283024 Eh     change       -0.5172797E-04 Eh
   gradient norm :     0.0037330 Eh/α   predicted    -0.4054857E-04 ( -21.61%)
   displ. norm   :     0.2176550 α      lambda       -0.8029422E-04
   maximum displ.:     0.1067887 α      in ANC's #1, #15, #4, ...

........................................................................
.............................. CYCLE   20 ..............................
........................................................................
   1    -84.3675725 -0.843676E+02  0.809E-03    0.24       0.0  T
   2    -84.3675754 -0.295063E-05  0.599E-03    0.25       2.6  T
   3    -84.3675773 -0.186691E-05  0.242E-03    0.24       6.4  T
   4    -84.3675773  0.264633E-07  0.141E-03    0.24      10.9  T
   5    -84.3675773 -0.563812E-07  0.273E-04    0.24      56.5  T
   6    -84.3675773 -0.113700E-08  0.726E-05    0.24     212.5  T
   7    -84.3675773 -0.128338E-09  0.200E-05    0.24     772.9  T
     SCC iter.                  ...        0 min,  0.038 sec
     gradient                   ...        0 min,  0.057 sec
 * total energy  :   -83.6283293 Eh     change       -0.2697441E-04 Eh
   gradient norm :     0.0050264 Eh/α   predicted    -0.4205364E-04 (  55.90%)
   displ. norm   :     0.1033248 α      lambda       -0.5279434E-04
   maximum displ.:     0.0639250 α      in ANC's #3, #1, #4, ...
 * RMSD in coord.:     0.6199165 α      energy gain  -0.2744369E-01 Eh

generating ANC from model Hessian ...
Using Lindh-Hessian (1995)
 Shifting diagonal of input Hessian by   9.837317593869003E-003
 Lowest  eigenvalues of input Hessian
    0.000000    0.000000    0.000000    0.000000    0.000000    0.000000
    0.010000    0.010180    0.010800    0.011137    0.011794    0.012243
    0.012767    0.013404    0.014042    0.015293    0.015933    0.017220
 Highest eigenvalues
    2.017660    2.045350    2.134261    2.158523    2.252092    2.420436
 

........................................................................
.............................. CYCLE   21 ..............................
........................................................................
   1    -84.3660966 -0.843661E+02  0.639E-03    0.25       0.0  T
   2    -84.3660985 -0.190890E-05  0.493E-03    0.24       3.1  T
   3    -84.3660999 -0.145093E-05  0.177E-03    0.24       8.7  T
   4    -84.3660999  0.130086E-07  0.119E-03    0.24      13.0  T
   5    -84.3660999 -0.335597E-07  0.174E-04    0.24      88.5  T
   6    -84.3660999 -0.933881E-09  0.481E-05    0.24     320.7  T
     SCC iter.                  ...        0 min,  0.032 sec
     gradient                   ...        0 min,  0.058 sec
 * total energy  :   -83.6283630 Eh     change       -0.3366654E-04 Eh
   gradient norm :     0.0028093 Eh/α   predicted     0.0000000E+00 (-100.00%)
   displ. norm   :     0.0278962 α      lambda       -0.1800751E-04
   maximum displ.:     0.0187165 α      in ANC's #1, #9, #7, ...

........................................................................
.............................. CYCLE   22 ..............................
........................................................................
   1    -84.3663033 -0.843663E+02  0.194E-03    0.24       0.0  T
   2    -84.3663035 -0.120902E-06  0.857E-04    0.24      18.0  T
   3    -84.3663035 -0.851600E-08  0.426E-04    0.24      36.2  T
   4    -84.3663035 -0.191903E-09  0.241E-04    0.24      64.0  T
   5    -84.3663035 -0.152507E-08  0.723E-05    0.24     213.5  T
   6    -84.3663035 -0.324704E-09  0.189E-05    0.24     815.2  T
     SCC iter.                  ...        0 min,  0.032 sec
     gradient                   ...        0 min,  0.058 sec
 * total energy  :   -83.6283798 Eh     change       -0.1681831E-04 Eh
   gradient norm :     0.0014436 Eh/α   predicted    -0.1012664E-04 ( -39.79%)
   displ. norm   :     0.1204870 α      lambda       -0.3686604E-04
   maximum displ.:     0.0803091 α      in ANC's #1, #5, #9, ...

........................................................................
.............................. CYCLE   23 ..............................
........................................................................
   1    -84.3664496 -0.843664E+02  0.559E-03    0.24       0.0  T
   2    -84.3664505 -0.954100E-06  0.227E-03    0.24       6.8  T
   3    -84.3664506 -0.588553E-07  0.115E-03    0.24      13.4  T
   4    -84.3664506 -0.263574E-08  0.579E-04    0.24      26.7  T
   5    -84.3664506 -0.505155E-08  0.203E-04    0.24      76.2  T
   6    -84.3664506 -0.273664E-08  0.579E-05    0.24     266.3  T
   7    -84.3664506 -0.159844E-09  0.157E-05    0.24     983.6  T
     SCC iter.                  ...        0 min,  0.037 sec
     gradient                   ...        0 min,  0.057 sec
 * total energy  :   -83.6284076 Eh     change       -0.2780519E-04 Eh
   gradient norm :     0.0028456 Eh/α   predicted    -0.1855240E-04 ( -33.28%)
   displ. norm   :     0.0345773 α      lambda       -0.1243336E-04
   maximum displ.:     0.0256882 α      in ANC's #1, #7, #5, ...

........................................................................
.............................. CYCLE   24 ..............................
........................................................................
   1    -84.3663806 -0.843664E+02  0.813E-04    0.24       0.0  T
   2    -84.3663806 -0.256482E-07  0.466E-04    0.24      33.1  T
   3    -84.3663806 -0.826439E-08  0.218E-04    0.24      70.9  T
   4    -84.3663806 -0.137987E-09  0.122E-04    0.24     126.6  T
   5    -84.3663806 -0.612530E-09  0.228E-05    0.24     677.7  T
     SCC iter.                  ...        0 min,  0.027 sec
     gradient                   ...        0 min,  0.056 sec
 * total energy  :   -83.6284189 Eh     change       -0.1127704E-04 Eh
   gradient norm :     0.0023656 Eh/α   predicted    -0.6224582E-05 ( -44.80%)
   displ. norm   :     0.1102126 α      lambda       -0.3929576E-04
   maximum displ.:     0.0785551 α      in ANC's #1, #5, #7, ...

........................................................................
.............................. CYCLE   25 ..............................
........................................................................
   1    -84.3661407 -0.843661E+02  0.279E-03    0.24       0.0  T
   2    -84.3661410 -0.278664E-06  0.139E-03    0.24      11.1  T
   3    -84.3661410 -0.272489E-07  0.696E-04    0.24      22.2  T
   4    -84.3661410 -0.438462E-09  0.399E-04    0.24      38.7  T
   5    -84.3661410 -0.511402E-08  0.107E-04    0.24     144.7  T
   6    -84.3661410 -0.689667E-09  0.303E-05    0.24     508.7  T
     SCC iter.                  ...        0 min,  0.032 sec
     gradient                   ...        0 min,  0.057 sec
 * total energy  :   -83.6284486 Eh     change       -0.2968784E-04 Eh
   gradient norm :     0.0011070 Eh/α   predicted    -0.1996586E-04 ( -32.75%)
   displ. norm   :     0.2064456 α      lambda       -0.2868469E-04
   maximum displ.:     0.1483040 α      in ANC's #1, #7, #26, ...

........................................................................
.............................. CYCLE   26 ..............................
........................................................................
   1    -84.3656137 -0.843656E+02  0.349E-03    0.24       0.0  T
   2    -84.3656140 -0.313267E-06  0.160E-03    0.24       9.7  T
   3    -84.3656141 -0.994733E-07  0.902E-04    0.24      17.1  T
   4    -84.3656141 -0.199929E-07  0.379E-04    0.24      40.7  T
   5    -84.3656141 -0.557306E-08  0.123E-04    0.24     125.6  T
   6    -84.3656141 -0.353239E-09  0.306E-05    0.24     504.2  T
     SCC iter.                  ...        0 min,  0.033 sec
     gradient                   ...        0 min,  0.056 sec
 * total energy  :   -83.6284769 Eh     change       -0.2825730E-04 Eh
   gradient norm :     0.0024493 Eh/α   predicted    -0.1461417E-04 ( -48.28%)
   displ. norm   :     0.0753111 α      lambda       -0.1574304E-04
   maximum displ.:     0.0561834 α      in ANC's #1, #6, #26, ...

........................................................................
.............................. CYCLE   27 ..............................
........................................................................
   1    -84.3658574 -0.843659E+02  0.101E-03    0.24       0.0  T
   2    -84.3658574 -0.372463E-07  0.393E-04    0.24      39.3  T
   3    -84.3658574 -0.343158E-08  0.211E-04    0.24      73.0  T
   4    -84.3658574 -0.867999E-10  0.112E-04    0.24     138.4  T
   5    -84.3658574 -0.559581E-09  0.345E-05    0.24     447.0  T
     SCC iter.                  ...        0 min,  0.026 sec
     gradient                   ...        0 min,  0.056 sec
 * total energy  :   -83.6284913 Eh     change       -0.1447297E-04 Eh
   gradient norm :     0.0019610 Eh/α   predicted    -0.7916876E-05 ( -45.30%)
   displ. norm   :     0.1906634 α      lambda       -0.3245429E-04
   maximum displ.:     0.1396266 α      in ANC's #1, #6, #4, ...

........................................................................
.............................. CYCLE   28 ..............................
........................................................................
   1    -84.3665810 -0.843666E+02  0.310E-03    0.24       0.0  T
   2    -84.3665815 -0.450875E-06  0.125E-03    0.24      12.4  T
   3    -84.3665815 -0.300269E-07  0.628E-04    0.24      24.6  T
   4    -84.3665815 -0.125200E-08  0.242E-04    0.24      63.9  T
   5    -84.3665815 -0.125524E-09  0.661E-05    0.24     233.3  T
   6    -84.3665815 -0.184684E-09  0.327E-05    0.24     472.5  T
     SCC iter.                  ...        0 min,  0.032 sec
     gradient                   ...        0 min,  0.056 sec
 * total energy  :   -83.6285283 Eh     change       -0.3698745E-04 Eh
   gradient norm :     0.0010673 Eh/α   predicted    -0.1649317E-04 ( -55.41%)
   displ. norm   :     0.1984382 α      lambda       -0.2271904E-04
   maximum displ.:     0.1457280 α      in ANC's #1, #4, #6, ...

........................................................................
.............................. CYCLE   29 ..............................
........................................................................
   1    -84.3662577 -0.843663E+02  0.240E-03    0.24       0.0  T
   2    -84.3662579 -0.208594E-06  0.116E-03    0.24      13.3  T
   3    -84.3662580 -0.439770E-07  0.554E-04    0.24      27.9  T
   4    -84.3662580 -0.589138E-08  0.348E-04    0.24      44.4  T
   5    -84.3662580 -0.447703E-08  0.785E-05    0.24     196.6  T
   6    -84.3662580 -0.736406E-10  0.221E-05    0.24     697.0  T
     SCC iter.                  ...        0 min,  0.032 sec
     gradient                   ...        0 min,  0.057 sec
 * total energy  :   -83.6285535 Eh     change       -0.2519109E-04 Eh
   gradient norm :     0.0019293 Eh/α   predicted    -0.1156336E-04 ( -54.10%)
   displ. norm   :     0.1222028 α      lambda       -0.1500981E-04
   maximum displ.:     0.0925163 α      in ANC's #1, #4, #18, ...

........................................................................
.............................. CYCLE   30 ..............................
........................................................................
   1    -84.3668885 -0.843669E+02  0.333E-03    0.25       0.0  T
   2    -84.3668889 -0.319827E-06  0.239E-03    0.24       6.5  T
   3    -84.3668892 -0.380393E-06  0.679E-04    0.25      22.7  T
   4    -84.3668892 -0.655447E-09  0.410E-04    0.24      37.6  T
   5    -84.3668892 -0.480333E-08  0.444E-05    0.25     347.6  T
   6    -84.3668892 -0.349445E-10  0.118E-05    0.25    1306.6  T
     SCC iter.                  ...        0 min,  0.032 sec
     gradient                   ...        0 min,  0.057 sec
 * total energy  :   -83.6285692 Eh     change       -0.1571337E-04 Eh
   gradient norm :     0.0015493 Eh/α   predicted    -0.7555765E-05 ( -51.92%)
   displ. norm   :     0.1053815 α      lambda       -0.1047086E-04
   maximum displ.:     0.0816977 α      in ANC's #1, #4, #18, ...

........................................................................
.............................. CYCLE   31 ..............................
........................................................................
   1    -84.3666259 -0.843666E+02  0.159E-03    0.24       0.0  T
   2    -84.3666260 -0.677726E-07  0.815E-04    0.24      18.9  T
   3    -84.3666260 -0.481310E-08  0.473E-04    0.24      32.6  T
   4    -84.3666260 -0.123636E-08  0.224E-04    0.24      68.9  T
   5    -84.3666260 -0.174569E-08  0.693E-05    0.24     222.7  T
   6    -84.3666260 -0.345850E-09  0.122E-05    0.24    1262.6  T
     SCC iter.                  ...        0 min,  0.032 sec
     gradient                   ...        0 min,  0.057 sec
 * total energy  :   -83.6285818 Eh     change       -0.1254371E-04 Eh
   gradient norm :     0.0006397 Eh/α   predicted    -0.5265310E-05 ( -58.02%)
   displ. norm   :     0.0771773 α      lambda       -0.7648672E-05
   maximum displ.:     0.0610513 α      in ANC's #1, #4, #18, ...

........................................................................
.............................. CYCLE   32 ..............................
........................................................................
   1    -84.3666757 -0.843667E+02  0.174E-03    0.25       0.0  T
   2    -84.3666758 -0.133617E-06  0.774E-04    0.24      19.9  T
   3    -84.3666759 -0.297256E-07  0.323E-04    0.24      47.7  T
   4    -84.3666759 -0.320303E-08  0.198E-04    0.24      78.0  T
   5    -84.3666759 -0.944226E-09  0.687E-05    0.24     224.7  T
     SCC iter.                  ...        0 min,  0.026 sec
     gradient                   ...        0 min,  0.058 sec
 * total energy  :   -83.6285913 Eh     change       -0.9551084E-05 Eh
   gradient norm :     0.0006728 Eh/α   predicted    -0.3837228E-05 ( -59.82%)
   displ. norm   :     0.0716714 α      lambda       -0.7034902E-05
   maximum displ.:     0.0546508 α      in ANC's #1, #4, #6, ...

........................................................................
.............................. CYCLE   33 ..............................
........................................................................
   1    -84.3666557 -0.843667E+02  0.120E-03    0.24       0.0  T
   2    -84.3666558 -0.635247E-07  0.470E-04    0.24      32.9  T
   3    -84.3666558 -0.402103E-08  0.244E-04    0.24      63.2  T
   4    -84.3666558 -0.282299E-09  0.125E-04    0.24     123.7  T
   5    -84.3666558 -0.858336E-11  0.341E-05    0.24     452.0  T
     SCC iter.                  ...        0 min,  0.027 sec
     gradient                   ...        0 min,  0.059 sec
 * total energy  :   -83.6286004 Eh     change       -0.9055159E-05 Eh
   gradient norm :     0.0009495 Eh/α   predicted    -0.3526729E-05 ( -61.05%)
   displ. norm   :     0.0826794 α      lambda       -0.8075429E-05
   maximum displ.:     0.0592199 α      in ANC's #1, #4, #6, ...

........................................................................
.............................. CYCLE   34 ..............................
........................................................................
   1    -84.3666669 -0.843667E+02  0.123E-03    0.24       0.0  T
   2    -84.3666670 -0.654337E-07  0.524E-04    0.24      29.5  T
   3    -84.3666670 -0.472444E-08  0.274E-04    0.24      56.3  T
   4    -84.3666670 -0.237492E-09  0.107E-04    0.24     143.9  T
   5    -84.3666670 -0.134861E-10  0.388E-05    0.24     397.6  T
     SCC iter.                  ...        0 min,  0.027 sec
     gradient                   ...        0 min,  0.059 sec
 * total energy  :   -83.6286107 Eh     change       -0.1028788E-04 Eh
   gradient norm :     0.0011089 Eh/α   predicted    -0.4051288E-05 ( -60.62%)
   displ. norm   :     0.0953921 α      lambda       -0.8649879E-05
   maximum displ.:     0.0670481 α      in ANC's #1, #4, #6, ...

........................................................................
.............................. CYCLE   35 ..............................
........................................................................
   1    -84.3665567 -0.843666E+02  0.130E-03    0.24       0.0  T
   2    -84.3665567 -0.424044E-07  0.640E-04    0.24      24.1  T
   3    -84.3665567 -0.183801E-07  0.394E-04    0.24      39.1  T
   4    -84.3665567 -0.579294E-08  0.143E-04    0.24     107.9  T
   5    -84.3665567 -0.163055E-09  0.352E-05    0.24     438.1  T
     SCC iter.                  ...        0 min,  0.027 sec
     gradient                   ...        0 min,  0.057 sec
 * total energy  :   -83.6286216 Eh     change       -0.1093299E-04 Eh
   gradient norm :     0.0008943 Eh/α   predicted    -0.4344505E-05 ( -60.26%)
   displ. norm   :     0.0944148 α      lambda       -0.7534074E-05
   maximum displ.:     0.0673797 α      in ANC's #1, #4, #6, ...

........................................................................
.............................. CYCLE   36 ..............................
........................................................................
   1    -84.3665778 -0.843666E+02  0.171E-03    0.24       0.0  T
   2    -84.3665779 -0.851328E-07  0.774E-04    0.24      19.9  T
   3    -84.3665779 -0.239310E-07  0.437E-04    0.24      35.3  T
   4    -84.3665779 -0.727421E-08  0.221E-04    0.24      69.8  T
   5    -84.3665779 -0.796362E-09  0.369E-05    0.24     417.9  T
   6    -84.3665779 -0.259064E-10  0.131E-05    0.24    1174.5  T
     SCC iter.                  ...        0 min,  0.032 sec
     gradient                   ...        0 min,  0.057 sec
 * total energy  :   -83.6286311 Eh     change       -0.9485549E-05 Eh
   gradient norm :     0.0006582 Eh/α   predicted    -0.3785040E-05 ( -60.10%)
   displ. norm   :     0.0703398 α      lambda       -0.5248454E-05
   maximum displ.:     0.0531153 α      in ANC's #1, #4, #3, ...

........................................................................
.............................. CYCLE   37 ..............................
........................................................................
   1    -84.3665772 -0.843666E+02  0.167E-03    0.24       0.0  T
   2    -84.3665773 -0.108826E-06  0.591E-04    0.24      26.1  T
   3    -84.3665773 -0.634320E-08  0.337E-04    0.24      45.8  T
   4    -84.3665773 -0.400590E-09  0.202E-04    0.24      76.4  T
   5    -84.3665773 -0.131212E-08  0.568E-05    0.24     271.4  T
   6    -84.3665773 -0.143643E-09  0.167E-05    0.24     924.1  T
     SCC iter.                  ...        0 min,  0.032 sec
     gradient                   ...        0 min,  0.058 sec
 * total energy  :   -83.6286378 Eh     change       -0.6683495E-05 Eh
   gradient norm :     0.0004566 Eh/α   predicted    -0.2630662E-05 ( -60.64%)
   displ. norm   :     0.0507225 α      lambda       -0.4029900E-05
   maximum displ.:     0.0404733 α      in ANC's #1, #3, #5, ...

........................................................................
.............................. CYCLE   38 ..............................
........................................................................
   1    -84.3666301 -0.843666E+02  0.134E-03    0.24       0.0  T
   2    -84.3666302 -0.761054E-07  0.586E-04    0.24      26.3  T
   3    -84.3666302 -0.823863E-08  0.298E-04    0.24      51.7  T
   4    -84.3666302 -0.594198E-09  0.212E-04    0.24      72.7  T
   5    -84.3666302 -0.129704E-08  0.498E-05    0.24     309.7  T
   6    -84.3666302 -0.535891E-10  0.145E-05    0.24    1064.0  T
     SCC iter.                  ...        0 min,  0.033 sec
     gradient                   ...        0 min,  0.059 sec
 * total energy  :   -83.6286431 Eh     change       -0.5322234E-05 Eh
   gradient norm :     0.0004232 Eh/α   predicted    -0.2018635E-05 ( -62.07%)
   displ. norm   :     0.0460333 α      lambda       -0.4001608E-05
   maximum displ.:     0.0371713 α      in ANC's #1, #3, #18, ...

........................................................................
.............................. CYCLE   39 ..............................
........................................................................
   1    -84.3666571 -0.843667E+02  0.119E-03    0.24       0.0  T
   2    -84.3666572 -0.709183E-07  0.500E-04    0.24      30.9  T
   3    -84.3666572 -0.450112E-08  0.245E-04    0.24      63.0  T
   4    -84.3666572 -0.733849E-10  0.135E-04    0.24     113.9  T
   5    -84.3666572 -0.898979E-10  0.412E-05    0.24     374.6  T
     SCC iter.                  ...        0 min,  0.029 sec
     gradient                   ...        0 min,  0.058 sec
 * total energy  :   -83.6286485 Eh     change       -0.5402727E-05 Eh
   gradient norm :     0.0004479 Eh/α   predicted    -0.2004776E-05 ( -62.89%)
   displ. norm   :     0.0541324 α      lambda       -0.4640874E-05
   maximum displ.:     0.0418334 α      in ANC's #1, #3, #18, ...

........................................................................
.............................. CYCLE   40 ..............................
........................................................................
   1    -84.3666559 -0.843667E+02  0.892E-04    0.25       0.0  T
   2    -84.3666559 -0.357450E-07  0.437E-04    0.24      35.3  T
   3    -84.3666559 -0.402139E-08  0.218E-04    0.25      70.8  T
   4    -84.3666559  0.482743E-10  0.123E-04    0.24     125.5  T
   5    -84.3666559 -0.307210E-09  0.465E-05    0.25     332.1  T
     SCC iter.                  ...        0 min,  0.028 sec
     gradient                   ...        0 min,  0.058 sec
 * total energy  :   -83.6286548 Eh     change       -0.6307742E-05 Eh
   gradient norm :     0.0005192 Eh/α   predicted    -0.2324548E-05 ( -63.15%)
   displ. norm   :     0.0656287 α      lambda       -0.5335687E-05
   maximum displ.:     0.0494727 α      in ANC's #1, #3, #16, ...

........................................................................
.............................. CYCLE   41 ..............................
........................................................................
   1    -84.3666446 -0.843666E+02  0.688E-04    0.25       0.0  T
   2    -84.3666447 -0.194280E-07  0.346E-04    0.25      44.6  T
   3    -84.3666447 -0.232870E-08  0.168E-04    0.25      91.8  T
   4    -84.3666447 -0.788702E-11  0.604E-05    0.25     255.5  T
     SCC iter.                  ...        0 min,  0.022 sec
     gradient                   ...        0 min,  0.058 sec
 * total energy  :   -83.6286620 Eh     change       -0.7171987E-05 Eh
   gradient norm :     0.0005444 Eh/α   predicted    -0.2673579E-05 ( -62.72%)
   displ. norm   :     0.0742018 α      lambda       -0.5550656E-05
   maximum displ.:     0.0553925 α      in ANC's #1, #3, #4, ...

........................................................................
.............................. CYCLE   42 ..............................
........................................................................
   1    -84.3666281 -0.843666E+02  0.735E-04    0.25       0.0  T
   2    -84.3666281 -0.125974E-07  0.369E-04    0.24      41.8  T
   3    -84.3666281 -0.433467E-08  0.205E-04    0.25      75.4  T
   4    -84.3666281 -0.939437E-09  0.101E-04    0.24     152.2  T
   5    -84.3666281 -0.294335E-09  0.263E-05    0.24     586.4  T
     SCC iter.                  ...        0 min,  0.027 sec
     gradient                   ...        0 min,  0.058 sec
 * total energy  :   -83.6286693 Eh     change       -0.7381256E-05 Eh
   gradient norm :     0.0005109 Eh/α   predicted    -0.2783325E-05 ( -62.29%)
   displ. norm   :     0.0725863 α      lambda       -0.5043032E-05
   maximum displ.:     0.0551838 α      in ANC's #1, #4, #3, ...
 * RMSD in coord.:     0.2585427 α      energy gain  -0.3400029E-03 Eh

generating ANC from model Hessian ...
Using Lindh-Hessian (1995)
 Shifting diagonal of input Hessian by   9.836412741376666E-003
 Lowest  eigenvalues of input Hessian
    0.000000    0.000000    0.000000    0.000000    0.000000    0.000000
    0.010000    0.010193    0.010811    0.011164    0.011752    0.012240
    0.012860    0.013355    0.014040    0.015294    0.015978    0.017305
 Highest eigenvalues
    2.018115    2.043932    2.132250    2.156895    2.253935    2.421332
 

........................................................................
.............................. CYCLE   43 ..............................
........................................................................
   1    -84.3666069 -0.843666E+02  0.912E-04    0.24       0.0  T
   2    -84.3666070 -0.290835E-07  0.371E-04    0.24      41.6  T
   3    -84.3666070 -0.116604E-08  0.211E-04    0.24      73.2  T
   4    -84.3666070  0.580798E-10  0.100E-04    0.24     153.9  T
   5    -84.3666070 -0.189374E-09  0.368E-05    0.24     419.8  T
     SCC iter.                  ...        0 min,  0.027 sec
     gradient                   ...        0 min,  0.058 sec
 * total energy  :   -83.6286761 Eh     change       -0.6743518E-05 Eh
   gradient norm :     0.0004155 Eh/α   predicted     0.0000000E+00 (-100.00%)
   displ. norm   :     0.0192172 α      lambda       -0.1530380E-06
   maximum displ.:     0.0172295 α      in ANC's #1, #3, #16, ...

........................................................................
.............................. CYCLE   44 ..............................
........................................................................
   1    -84.3666730 -0.843667E+02  0.490E-04    0.24       0.0  T
   2    -84.3666730 -0.856269E-08  0.260E-04    0.24      59.3  T
   3    -84.3666730 -0.176318E-08  0.131E-04    0.24     117.8  T
   4    -84.3666730 -0.518696E-11  0.795E-05    0.24     194.1  T
     SCC iter.                  ...        0 min,  0.021 sec
     gradient                   ...        0 min,  0.059 sec
 * total energy  :   -83.6286789 Eh     change       -0.2848325E-05 Eh
   gradient norm :     0.0002728 Eh/α   predicted    -0.1034373E-05 ( -63.68%)
   displ. norm   :     0.0368340 α      lambda       -0.3335603E-05
   maximum displ.:     0.0297013 α      in ANC's #1, #3, #16, ...

   *** GEOMETRY OPTIMIZATION CONVERGED AFTER 44 ITERATIONS ***

------------------------------------------------------------------------
 total energy gain   :        -0.0277933 Eh      -17.4406 kcal/mol
 total RMSD          :         0.7473064 a0        0.3955 Å
 total power (kW/mol):        -1.6584378 (step)  -13.7109 (real)
------------------------------------------------------------------------

 ANCopt (total)                0 d,  0 h,  0 min,  5.322 sec
 optimizer setup                ...        0 min,  0.001 sec (  0.014%)
 model hessian                  ...        0 min,  0.062 sec (  1.170%)
 ANC generation                 ...        0 min,  0.008 sec (  0.152%)
 coordinate transformation      ...        0 min,  0.001 sec (  0.018%)
 single point calculation       ...        0 min,  5.234 sec ( 98.343%)
 optimization log               ...        0 min,  0.009 sec (  0.168%)
 hessian update                 ...        0 min,  0.001 sec (  0.017%)
 rational function              ...        0 min,  0.004 sec (  0.072%)

================
 final structure:
================
42
 xtb: 6.5.1 (579679a)
C           -6.23792617981279        0.10389674623781        2.14364240862386
O           -5.21476965914080        0.45830551350346        1.23824919301321
C           -4.08793771347842       -0.35458514550042        1.26903964080631
O           -4.06301367430265       -1.29631320979194        2.07821556002542
C           -3.06572324021251       -0.00912391506036        0.34243648536280
C           -3.10699892357140        1.06850167985550       -0.58150095982164
O           -4.00914315039969        1.93324434855332       -0.64053055933124
C           -1.95930641364334        1.12180340815862       -1.66368935594234
C           -1.63767588032701        2.63387531167496       -1.92925320561789
O           -2.19410408712425        0.42090455967423       -2.73927093127916
N           -0.68213464868127        0.60647242634813       -0.92332477867855
C           -0.87819989909136       -0.56920458295742       -0.22751002822500
C            0.30058815271999       -1.53729191075695       -0.17901195066416
C            0.36812221255381       -2.29548046842182       -1.51275616784014
C            0.14824646840582       -2.50978695986782        0.99454102910712
N            1.52481774961608       -0.73679574925885        0.00141766861835
C            2.76486708731964       -1.23653009650095        0.05322176510074
O            3.07545102268749       -2.41831785536100       -0.02706468587341
C            3.77170399431446       -0.15062886729956        0.23019538949353
N            3.52037890923556        1.11927265241213        0.34639426992625
N            4.72480463545671        1.74928785129409        0.47795244200158
C            5.63123646835667        0.82396996137728        0.43246548285137
C            7.09824503851344        0.99130604798243        0.53108763067391
O            5.09630221819104       -0.39757287818125        0.27903141687722
N           -1.94875977339598       -0.88490691658720        0.39332727194019
H           -6.61153402275136       -0.90928936929278        1.94940453852087
H           -7.05286015014778        0.81729942619973        2.01194086291029
H           -5.88658556466749        0.14642136228641        3.18201564992039
H           -0.83597672410254        2.70438877131815       -2.66292704595979
H           -1.33620924584388        3.14079583114626       -1.01252364245770
H           -2.52866219256642        3.11554831746352       -2.33238877747697
H            0.06074556068950        0.53181388294516       -1.60779905483983
H           -0.55352864858687       -2.86180636697558       -1.64651437843976
H            1.20944887052214       -2.98558127078443       -1.52836389109516
H            0.47079815251776       -1.59088029174736       -2.33791181541885
H            0.93393379882223       -3.26278705633805        0.97981289665394
H            0.19345131267367       -1.96497669026082        1.93742164400562
H           -0.82219330664036       -3.00191401434063        0.92417374877491
H            1.41895748792161        0.26633506772483        0.08678029921257
H            7.47508572030014        0.47663767025732        1.41472747381142
H            7.34180341310377        2.04848351280732        0.59738288046537
H            7.58425282456580        0.55828626606704       -0.34253641973417
 
 Bond Distances (Angstroems)
 ---------------------------
C1-O2=1.4115         C1-H26=1.0972        C1-H27=1.0911        C1-H28=1.0970        O2-C1=1.4115         O2-C3=1.3898         
C3-O2=1.3898         C3-O4=1.2419         C3-C5=1.4223         O4-C3=1.2419         C5-C3=1.4223         C5-C6=1.4201         
C5-N25=1.4203        C6-C5=1.4201         C6-O7=1.2511         C6-C8=1.5783         O7-C6=1.2511         C8-C6=1.5783         
C8-C9=1.5685         C8-O10=1.3051        C8-N11=1.5636        C9-C8=1.5685         C9-H29=1.0890        C9-H30=1.0901        
C9-H31=1.0901        O10-C8=1.3051        N11-C8=1.5636        N11-C12=1.3802       N11-H32=1.0129       C12-N11=1.3802       
C12-C13=1.5261       C12-N25=1.2772       C13-C12=1.5261       C13-C14=1.5357       C13-C15=1.5317       C13-N16=1.4738       
C14-C13=1.5357       C14-H33=1.0900       C14-H34=1.0883       C14-H35=1.0899       C15-C13=1.5317       C15-H36=1.0884       
C15-H37=1.0899       C15-H38=1.0904       N16-C13=1.4738       N16-C17=1.3380       N16-H39=1.0123       C17-N16=1.3380       
C17-O18=1.2246       C17-C19=1.4914       O18-C17=1.2246       C19-C17=1.4914       C19-N20=1.2997       C19-O24=1.3483       
N20-C19=1.2997       N20-N21=1.3656       N21-N20=1.3656       N21-C22=1.2961       C22-N21=1.2961       C22-C23=1.4798       
C22-O24=1.3423       C23-C22=1.4798       C23-H40=1.0898       C23-H41=1.0869       C23-H42=1.0895       O24-C19=1.3483       
O24-C22=1.3423       N25-C5=1.4203        N25-C12=1.2772       H26-C1=1.0972        H27-C1=1.0911        H28-C1=1.0970        
H29-C9=1.0890        H30-C9=1.0901        H31-C9=1.0901        H32-N11=1.0129       H33-C14=1.0900       H34-C14=1.0883       
H35-C14=1.0899       H36-C15=1.0884       H37-C15=1.0899       H38-C15=1.0904       H39-N16=1.0123       H40-C23=1.0898       
H41-C23=1.0869       H42-C23=1.0895       
 C  H  Rav=1.0905 sigma=0.0028  Rmin=1.0869  Rmax=1.0972    15
 C  C  Rav=1.5060 sigma=0.0541  Rmin=1.4201  Rmax=1.5783     9
 N  H  Rav=1.0126 sigma=0.0003  Rmin=1.0123  Rmax=1.0129     2
 N  C  Rav=1.3811 sigma=0.0935  Rmin=1.2772  Rmax=1.5636     8
 N  N  Rav=1.3656 sigma=0.0000  Rmin=1.3656  Rmax=1.3656     1
 O  C  Rav=1.3143 sigma=0.0656  Rmin=1.2246  Rmax=1.4115     8
 
 selected bond angles (degree)
 --------------------
H26-C1-O2=111.42               H27-C1-O2=107.45               H27-C1-H26=109.15              H28-C1-O2=111.42               
H28-C1-H26=108.20              H28-C1-H27=109.15              C3-O2-C1=115.26                O4-C3-O2=118.31                
C5-C3-O2=115.23                C5-C3-O4=126.46                C6-C5-C3=125.97                N25-C5-C3=113.09               
N25-C5-C6=120.94               O7-C6-C5=125.18                C8-C6-C5=116.78                C8-C6-O7=117.95                
C9-C8-C6=107.32                O10-C8-C6=114.59               O10-C8-C9=114.52               N11-C8-C6=104.96               
N11-C8-C9=103.32               N11-C8-O10=111.11              H29-C9-C8=109.11               H30-C9-C8=111.26               
H30-C9-H29=109.44              H31-C9-C8=108.72               H31-C9-H29=108.90              H31-C9-H30=109.36              
 
 selected dihedral angles (degree)
 ---------------------------------
C3-O2-C1-H26=299.60           C3-O2-C1-H27=180.08           C3-O2-C1-H28= 60.56           O4-C3-O2-C1=359.30            
C5-C3-O2-C1=179.09            C6-C5-C3-O2=  0.03            C6-C5-C3-O4=179.80            N25-C5-C3-O2=181.24           
N25-C5-C3-O4=  1.01           O7-C6-C5-C3=  5.87            O7-C6-C5-N25=184.58           C8-C6-C5-C3=189.38            
C8-C6-C5-N25=  8.09           C9-C8-C6-C5=214.59            C9-C8-C6-O7= 37.84            O10-C8-C6-C5= 86.21           
O10-C8-C6-O7=269.46           N11-C8-C6-C5=324.05           N11-C8-C6-O7=147.30           H29-C9-C8-C6=179.13           
H29-C9-C8-O10=307.55          H29-C9-C8-N11= 68.54          H30-C9-C8-C6= 58.28           H30-C9-C8-O10=186.70          
H30-C9-C8-N11=307.68          H31-C9-C8-C6=297.78           H31-C9-C8-O10= 66.20          H31-C9-C8-N11=187.19          
           -------------------------------------------------
          |                Final Singlepoint                |
           -------------------------------------------------

          ...................................................
          :                      SETUP                      :
          :.................................................:
          :  # basis functions                 134          :
          :  # atomic orbitals                 134          :
          :  # shells                           84          :
          :  # electrons                       136          :
          :  # halogen bonds                     0          :
          :  max. iterations                   250          :
          :  Hamiltonian                  GFN1-xTB          :
          :  restarted?                      false          :
          :  GBSA solvation                   true          :
          :  PC potential                    false          :
          :  electronic temp.          300.0000000     K    :
          :  accuracy                    1.0000000          :
          :  -> integral cutoff          0.2500000E+02      :
          :  -> integral neglect         0.1000000E-07      :
          :  -> SCF convergence          0.1000000E-05 Eh   :
          :  -> wf. convergence          0.2000000E-04 e    :
          :  Broyden damping             0.4000000          :
          ...................................................

 iter      E             dE          RMSdq      gap      omega  full diag
   1    -84.3666730 -0.843667E+02  0.163E-05    0.24       0.0  T
   2    -84.3666730 -0.667910E-11  0.101E-05    0.24    1522.2  T
   3    -84.3666730 -0.494538E-11  0.444E-06    0.24    3473.1  T

   *** convergence criteria satisfied after 3 iterations ***

         #    Occupation            Energy/Eh            Energy/eV
      -------------------------------------------------------------
         1        2.0000           -0.8513029             -23.1651
       ...           ...                  ...                  ...
        62        2.0000           -0.3994462             -10.8695
        63        2.0000           -0.3936761             -10.7125
        64        2.0000           -0.3702402             -10.0747
        65        2.0000           -0.3543589              -9.6426
        66        2.0000           -0.3307568              -9.0003
        67        2.0000           -0.3096363              -8.4256
        68        1.9824           -0.3018552              -8.2139 (HOMO)
        69        0.0176           -0.2928803              -7.9697 (LUMO)
        70                         -0.2462957              -6.7020
        71                         -0.2016138              -5.4862
        72                         -0.1897895              -5.1644
        73                         -0.1806217              -4.9150
       ...                                ...                  ...
       134                          0.7343524              19.9827
      -------------------------------------------------------------
                  HL-Gap            0.0089749 Eh            0.2442 eV
             Fermi-level           -0.2973677 Eh           -8.0918 eV

 SCC (total)                   0 d,  0 h,  0 min,  0.102 sec
 SCC setup                      ...        0 min,  0.002 sec (  1.546%)
 Dispersion                     ...        0 min,  0.000 sec (  0.235%)
 classical contributions        ...        0 min,  0.000 sec (  0.077%)
 integral evaluation            ...        0 min,  0.025 sec ( 24.290%)
 iterations                     ...        0 min,  0.016 sec ( 15.963%)
 molecular gradient             ...        0 min,  0.058 sec ( 56.710%)
 printout                       ...        0 min,  0.001 sec (  1.147%)

         :::::::::::::::::::::::::::::::::::::::::::::::::::::
         ::                     SUMMARY                     ::
         :::::::::::::::::::::::::::::::::::::::::::::::::::::
         :: total energy             -83.628678935355 Eh    ::
         :: total w/o Gsasa/hb       -83.609353956738 Eh    ::
         :: gradient norm              0.000274831992 Eh/a0 ::
         :: HOMO-LUMO gap              0.244219600787 eV    ::
         ::.................................................::
         :: SCC energy               -84.366673022600 Eh    ::
         :: -> electrostatic           0.757289278311 Eh    ::
         :: -> Gsolv                  -0.300977101791 Eh    ::
         ::    -> Gelec               -0.281652123174 Eh    ::
         ::    -> Gsasa               -0.024651874990 Eh    ::
         ::    -> Ghb                 -0.002297382632 Eh    ::
         ::    -> Gshift               0.007624279005 Eh    ::
         :: repulsion energy           0.763467757644 Eh    ::
         :: dispersion energy         -0.025473670400 Eh    ::
         :: halogen bond corr.         0.000000000000 Eh    ::
         :: add. restraining           0.000000000000 Eh    ::
         :: total charge              -2.000000000000 e     ::
         :::::::::::::::::::::::::::::::::::::::::::::::::::::

           -------------------------------------------------
          |                Property Printout                |
           -------------------------------------------------

    * Orbital Energies and Occupations

         #    Occupation            Energy/Eh            Energy/eV
      -------------------------------------------------------------
         1        2.0000           -0.8513029             -23.1651
       ...           ...                  ...                  ...
        56        2.0000           -0.4422778             -12.0350
        57        2.0000           -0.4376897             -11.9101
        58        2.0000           -0.4349242             -11.8349
        59        2.0000           -0.4267648             -11.6129
        60        2.0000           -0.4240191             -11.5381
        61        2.0000           -0.4201711             -11.4334
        62        2.0000           -0.3994462             -10.8695
        63        2.0000           -0.3936761             -10.7125
        64        2.0000           -0.3702402             -10.0747
        65        2.0000           -0.3543589              -9.6426
        66        2.0000           -0.3307568              -9.0003
        67        2.0000           -0.3096363              -8.4256
        68        1.9824           -0.3018552              -8.2139 (HOMO)
        69        0.0176           -0.2928803              -7.9697 (LUMO)
        70                         -0.2462957              -6.7020
        71                         -0.2016138              -5.4862
        72                         -0.1897895              -5.1644
        73                         -0.1806217              -4.9150
        74                         -0.1379103              -3.7527
        75                         -0.1087244              -2.9585
        76                         -0.0977521              -2.6600
        77                         -0.0965207              -2.6265
        78                         -0.0860220              -2.3408
        79                         -0.0725214              -1.9734
       ...                                ...                  ...
       134                          0.7343524              19.9827
      -------------------------------------------------------------
                  HL-Gap            0.0089749 Eh            0.2442 eV
             Fermi-level           -0.2973677 Eh           -8.0918 eV

  Mulliken/CM5 charges         n(s)   n(p)   n(d)
     1C     0.18239  0.06431   0.963  2.855  0.000
     2O    -0.46080 -0.54186   1.694  4.766  0.000
     3C     0.50808  0.56946   0.983  2.509  0.000
     4O    -0.68188 -0.72438   1.745  4.937  0.000
     5C    -0.06305  0.00650   1.031  3.032  0.000
     6C     0.29463  0.33714   1.067  2.638  0.000
     7O    -0.66765 -0.71032   1.756  4.912  0.000
     8C     0.36745  0.42944   1.024  2.609  0.000
     9C    -0.11463 -0.25156   1.017  3.097  0.000
    10O    -0.83681 -0.87614   1.759  5.078  0.000
    11N    -0.45095 -0.77958   1.490  3.961  0.000
    12C     0.25821  0.40872   1.005  2.737  0.000
    13C     0.14912  0.18825   1.068  2.783  0.000
    14C    -0.09079 -0.23037   1.014  3.077  0.000
    15C    -0.08731 -0.22498   1.010  3.077  0.000
    16N    -0.32867 -0.68105   1.434  3.895  0.000
    17C     0.45827  0.56840   0.972  2.569  0.000
    18O    -0.59492 -0.63900   1.729  4.866  0.000
    19C     0.33042  0.45568   1.014  2.656  0.000
    20N    -0.25159 -0.36228   1.569  3.683  0.000
    21N    -0.27328 -0.38124   1.566  3.707  0.000
    22C     0.38394  0.49288   1.005  2.612  0.000
    23C    -0.11093 -0.24840   1.011  3.100  0.000
    24O    -0.34603 -0.39730   1.693  4.653  0.000
    25N    -0.44201 -0.62253   1.545  3.897  0.000
    26H     0.01572  0.07716   0.984  0.000  0.000
    27H     0.01562  0.07572   0.984  0.000  0.000
    28H     0.01533  0.07685   0.985  0.000  0.000
    29H    -0.00128  0.05525   1.001  0.000  0.000
    30H    -0.01049  0.04631   1.010  0.000  0.000
    31H     0.00777  0.06543   0.992  0.000  0.000
    32H     0.19095  0.39426   0.809  0.000  0.000
    33H     0.03135  0.08624   0.969  0.000  0.000
    34H     0.03466  0.09423   0.965  0.000  0.000
    35H     0.03540  0.09344   0.965  0.000  0.000
    36H     0.03043  0.08939   0.970  0.000  0.000
    37H     0.02334  0.08119   0.977  0.000  0.000
    38H     0.02930  0.08818   0.971  0.000  0.000
    39H     0.23744  0.44842   0.763  0.000  0.000
    40H     0.07399  0.12840   0.926  0.000  0.000
    41H     0.06509  0.12097   0.935  0.000  0.000
    42H     0.07417  0.12876   0.926  0.000  0.000

Wiberg/Mayer (AO) data.
largest (>0.10) Wiberg bond orders for each atom

 ---------------------------------------------------------------------------
     #   Z sym  total        # sym  WBO       # sym  WBO       # sym  WBO
 ---------------------------------------------------------------------------
     1   6 C    3.919 --    27 H    0.987    26 H    0.980    28 H    0.980
                             2 O    0.949
     2   8 O    2.105 --     3 C    0.973     1 C    0.949
     3   6 C    3.852 --     4 O    1.493     5 C    1.246     2 O    0.973
     4   8 O    1.791 --     3 C    1.493
     5   6 C    3.881 --     6 C    1.272     3 C    1.246    25 N    1.048
     6   6 C    3.888 --     7 O    1.530     5 C    1.272     8 C    0.881
     7   8 O    1.810 --     6 C    1.530
     8   6 C    3.915 --    10 O    1.221     9 C    0.938     6 C    0.881
                            11 N    0.777
     9   6 C    3.985 --    30 H    0.991    29 H    0.989    31 H    0.986
                             8 C    0.938
    10   8 O    1.494 --     8 C    1.221
    11   7 N    3.166 --    12 C    1.135    32 H    0.935     8 C    0.777
                            25 N    0.145
    12   6 C    3.954 --    25 N    1.675    11 N    1.135    13 C    0.962
    13   6 C    3.915 --    15 C    0.994    14 C    0.984    12 C    0.962
                            16 N    0.902
    14   6 C    3.993 --    33 H    0.986    13 C    0.984    35 H    0.984
                            34 H    0.983
    15   6 C    3.995 --    13 C    0.994    37 H    0.987    36 H    0.985
                            38 H    0.983
    16   7 N    3.377 --    17 C    1.296    13 C    0.902    39 H    0.896
                            18 O    0.186
    17   6 C    3.918 --    18 O    1.559    16 N    1.296    19 C    0.983
    18   8 O    1.876 --    17 C    1.559    16 N    0.186
    19   6 C    3.859 --    20 N    1.611    24 O    1.058    17 C    0.983
    20   7 N    3.000 --    19 C    1.611    21 N    1.189
    21   7 N    2.980 --    22 C    1.617    20 N    1.189
    22   6 C    3.872 --    21 N    1.617    24 O    1.079    23 C    1.030
    23   6 C    3.988 --    22 C    1.030    41 H    0.983    42 H    0.966
                            40 H    0.964
    24   8 O    2.318 --    22 C    1.079    19 C    1.058
    25   7 N    3.006 --    12 C    1.675     5 C    1.048    11 N    0.145
    26   1 H    1.021 --     1 C    0.980
    27   1 H    1.020 --     1 C    0.987
    28   1 H    1.021 --     1 C    0.980
    29   1 H    1.018 --     9 C    0.989
    30   1 H    1.017 --     9 C    0.991
    31   1 H    1.027 --     9 C    0.986
    32   1 H    0.985 --    11 N    0.935
    33   1 H    1.008 --    14 C    0.986
    34   1 H    1.013 --    14 C    0.983
    35   1 H    1.009 --    14 C    0.984
    36   1 H    1.013 --    15 C    0.985
    37   1 H    1.012 --    15 C    0.987
    38   1 H    1.026 --    15 C    0.983
    39   1 H    0.970 --    16 N    0.896
    40   1 H    0.998 --    23 C    0.964
    41   1 H    1.000 --    23 C    0.983
    42   1 H    0.998 --    23 C    0.966
 ---------------------------------------------------------------------------

Topologies differ in total number of bonds
Writing topology from bond orders to xtbtopo.mol

 dipole moment from electron density (au)
     X       Y       Z   
  11.0083   0.0424   2.0714  total (Debye):   28.472

           -------------------------------------------------
          |                Geometry Summary                 |
           -------------------------------------------------

      molecular mass/u    :      351.3152409
   center of mass at/Å    :       -0.0756530      -0.0588684       0.0159519
  moments of inertia/u·Å² :        0.1165790E+04   0.5138013E+04   0.5488566E+04
rotational constants/cm⁻¹ :        0.1446026E-01   0.3280964E-02   0.3071409E-02

 * 34 selected distances

     #   Z          #   Z                                           value/Å
     1   6 C        2   8 O                                       1.4114503
     2   8 O        3   6 C                                       1.3897805
     3   6 C        4   8 O                                       1.2418691
     3   6 C        5   6 C                                       1.4222727
     5   6 C        6   6 C                                       1.4200850
    11   7 N       12   6 C                                       1.3801509
    13   6 C       14   6 C                                       1.5356708 (max)
    13   6 C       15   6 C                                       1.5317251
    13   6 C       16   7 N                                       1.4738003
    16   7 N       17   6 C                                       1.3379614
    17   6 C       18   8 O                                       1.2245533
    19   6 C       20   7 N                                       1.2997372
    21   7 N       22   6 C                                       1.2961100
    22   6 C       23   6 C                                       1.4798116
    19   6 C       24   8 O                                       1.3483053
    22   6 C       24   8 O                                       1.3423352
    12   6 C       25   7 N                                       1.2771866
     1   6 C       26   1 H                                       1.0972044
     1   6 C       27   1 H                                       1.0910574
     1   6 C       28   1 H                                       1.0970268
     9   6 C       29   1 H                                       1.0890231
     9   6 C       30   1 H                                       1.0900660
     9   6 C       31   1 H                                       1.0901303
    11   7 N       32   1 H                                       1.0128920
    14   6 C       33   1 H                                       1.0899802
    14   6 C       34   1 H                                       1.0882617
    14   6 C       35   1 H                                       1.0899017
    15   6 C       36   1 H                                       1.0883616
    15   6 C       37   1 H                                       1.0899017
    15   6 C       38   1 H                                       1.0903642
    16   7 N       39   1 H                                       1.0123067 (min)
    23   6 C       40   1 H                                       1.0898220
    23   6 C       41   1 H                                       1.0868947
    23   6 C       42   1 H                                       1.0894627

 * 5 distinct bonds (by element types)

   Z      Z             #   av. dist./Å        max./Å        min./Å
   1 H    6 C          15     1.0904972     1.0972044     1.0868947
   6 C    6 C           5     1.4779130     1.5356708     1.4200850
   1 H    7 N           2     1.0125993     1.0128920     1.0123067
   6 C    7 N           6     1.3441577     1.4738003     1.2771866
   6 C    8 O           6     1.3263823     1.4114503     1.2245533


optimized geometry written to: xtbopt.xyz


           -------------------------------------------------
          | TOTAL ENERGY              -83.628678935355 Eh   |
          | GRADIENT NORM               0.000274831992 Eh/α |
          | HOMO-LUMO GAP               0.244219600787 eV   |
           -------------------------------------------------

------------------------------------------------------------------------
 * finished run on 2023/06/21 at 17:14:29.517     
------------------------------------------------------------------------
 total:
 * wall-time:     0 d,  0 h,  0 min,  5.735 sec
 *  cpu-time:     0 d,  0 h,  0 min,  5.667 sec
 * ratio c/w:     0.988 speedup
 SCF:
 * wall-time:     0 d,  0 h,  0 min,  0.210 sec
 *  cpu-time:     0 d,  0 h,  0 min,  0.209 sec
 * ratio c/w:     0.998 speedup
 ANC optimizer:
 * wall-time:     0 d,  0 h,  0 min,  5.445 sec
 *  cpu-time:     0 d,  0 h,  0 min,  5.420 sec
 * ratio c/w:     0.995 speedup

