42
 energy: -83.628678935355 gnorm: 0.000274831992 xtb: 6.5.1 (579679a)
C           -6.23792617981279        0.10389674623781        2.14364240862386
O           -5.21476965914080        0.45830551350346        1.23824919301321
C           -4.08793771347842       -0.35458514550042        1.26903964080631
O           -4.06301367430265       -1.29631320979194        2.07821556002542
C           -3.06572324021251       -0.00912391506036        0.34243648536280
C           -3.10699892357140        1.06850167985550       -0.58150095982164
O           -4.00914315039969        1.93324434855332       -0.64053055933124
C           -1.95930641364334        1.12180340815862       -1.66368935594234
C           -1.63767588032701        2.63387531167496       -1.92925320561789
O           -2.19410408712425        0.42090455967423       -2.73927093127916
N           -0.68213464868127        0.60647242634813       -0.92332477867855
C           -0.87819989909136       -0.56920458295742       -0.22751002822500
C            0.30058815271999       -1.53729191075695       -0.17901195066416
C            0.36812221255381       -2.29548046842182       -1.51275616784014
C            0.14824646840582       -2.50978695986782        0.99454102910712
N            1.52481774961608       -0.73679574925885        0.00141766861835
C            2.76486708731964       -1.23653009650095        0.05322176510074
O            3.07545102268749       -2.41831785536100       -0.02706468587341
C            3.77170399431446       -0.15062886729956        0.23019538949353
N            3.52037890923556        1.11927265241213        0.34639426992625
N            4.72480463545671        1.74928785129409        0.47795244200158
C            5.63123646835667        0.82396996137728        0.43246548285137
C            7.09824503851344        0.99130604798243        0.53108763067391
O            5.09630221819104       -0.39757287818125        0.27903141687722
N           -1.94875977339598       -0.88490691658720        0.39332727194019
H           -6.61153402275136       -0.90928936929278        1.94940453852087
H           -7.05286015014778        0.81729942619973        2.01194086291029
H           -5.88658556466749        0.14642136228641        3.18201564992039
H           -0.83597672410254        2.70438877131815       -2.66292704595979
H           -1.33620924584388        3.14079583114626       -1.01252364245770
H           -2.52866219256642        3.11554831746352       -2.33238877747697
H            0.06074556068950        0.53181388294516       -1.60779905483983
H           -0.55352864858687       -2.86180636697558       -1.64651437843976
H            1.20944887052214       -2.98558127078443       -1.52836389109516
H            0.47079815251776       -1.59088029174736       -2.33791181541885
H            0.93393379882223       -3.26278705633805        0.97981289665394
H            0.19345131267367       -1.96497669026082        1.93742164400562
H           -0.82219330664036       -3.00191401434063        0.92417374877491
H            1.41895748792161        0.26633506772483        0.08678029921257
H            7.47508572030014        0.47663767025732        1.41472747381142
H            7.34180341310377        2.04848351280732        0.59738288046537
H            7.58425282456580        0.55828626606704       -0.34253641973417
