      -----------------------------------------------------------      
     |                   =====================                   |     
     |                           x T B                           |     
     |                   =====================                   |     
     |                         S. Grimme                         |     
     |          Mulliken Center for Theoretical Chemistry        |     
     |                    University of Bonn                     |     
      -----------------------------------------------------------      

   * xtb version 6.5.1 (579679a) compiled by 'ehlert@majestix' on 2022-07-11

   xtb is free software: you can redistribute it and/or modify it under
   the terms of the GNU Lesser General Public License as published by
   the Free Software Foundation, either version 3 of the License, or
   (at your option) any later version.
   
   xtb is distributed in the hope that it will be useful,
   but WITHOUT ANY WARRANTY; without even the implied warranty of
   MERCHANTABILITY or FITNESS FOR A PARTICULAR PURPOSE.  See the
   GNU Lesser General Public License for more details.
   
   Cite this work as:
   * C. Bannwarth, E. Caldeweyher, S. Ehlert, A. Hansen, P. Pracht,
     J. Seibert, S. Spicher, S. Grimme, WIREs Comput. Mol. Sci., 2020, 11,
     e01493. DOI: 10.1002/wcms.1493
   
   for GFN2-xTB:
   * C. Bannwarth, S. Ehlert and S. Grimme., J. Chem. Theory Comput., 2019,
     15, 1652-1671. DOI: 10.1021/acs.jctc.8b01176
   for GFN1-xTB:
   * S. Grimme, C. Bannwarth, P. Shushkov, J. Chem. Theory Comput., 2017,
     13, 1989-2009. DOI: 10.1021/acs.jctc.7b00118
   for GFN0-xTB:
   * P. Pracht, E. Caldeweyher, S. Ehlert, S. Grimme, ChemRxiv, 2019, preprint.
     DOI: 10.26434/chemrxiv.8326202.v1
   for GFN-FF:
   * S. Spicher and S. Grimme, Angew. Chem. Int. Ed., 2020, 59, 15665-15673.
     DOI: 10.1002/anie.202004239
   
   for ALPB and GBSA implicit solvation:
   * S. Ehlert, M. Stahn, S. Spicher, S. Grimme, J. Chem. Theory Comput.,
     2021, 17, 4250-4261. DOI: 10.1021/acs.jctc.1c00471
   
   for DFT-D4:
   * E. Caldeweyher, C. Bannwarth and S. Grimme, J. Chem. Phys., 2017,
     147, 034112. DOI: 10.1063/1.4993215
   * E. Caldeweyher, S. Ehlert, A. Hansen, H. Neugebauer, S. Spicher,
     C. Bannwarth and S. Grimme, J. Chem. Phys., 2019, 150, 154122.
     DOI: 10.1063/1.5090222
   * E. Caldeweyher, J.-M. Mewes, S. Ehlert and S. Grimme, Phys. Chem. Chem. Phys.
     2020, 22, 8499-8512. DOI: 10.1039/D0CP00502A
   
   for sTDA-xTB:
   * S. Grimme and C. Bannwarth, J. Chem. Phys., 2016, 145, 054103.
     DOI: 10.1063/1.4959605
   
   in the mass-spec context:
   * V. Asgeirsson, C. Bauer and S. Grimme, Chem. Sci., 2017, 8, 4879.
     DOI: 10.1039/c7sc00601b
   * J. Koopman and S. Grimme, ACS Omega 2019, 4, 12, 15120-15133.
     DOI: 10.1021/acsomega.9b02011
   
   for metadynamics refer to:
   * S. Grimme, J. Chem. Theory Comput., 2019, 155, 2847-2862
     DOI: 10.1021/acs.jctc.9b00143
   
   for SPH calculations refer to:
   * S. Spicher and S. Grimme, J. Chem. Theory Comput., 2021, 17, 1701-1714
     DOI: 10.1021/acs.jctc.0c01306
   
   with help from (in alphabetical order)
   P. Atkinson, C. Bannwarth, F. Bohle, G. Brandenburg, E. Caldeweyher
   M. Checinski, S. Dohm, S. Ehlert, S. Ehrlich, I. Gerasimov, C. Hölzer
   A. Katbashev, J. Koopman, C. Lavigne, S. Lehtola, F. März, M. Müller,
   F. Musil, H. Neugebauer, J. Pisarek, C. Plett, P. Pracht, F. Pultar,
   J. Seibert, P. Shushkov, S. Spicher, M. Stahn, M. Steiner, T. Strunk,
   J. Stückrath, T. Rose, and J. Unsleber
   
 * started run on 2023/06/20 at 15:40:15.820     

           -------------------------------------------------
          |                Calculation Setup                |
           -------------------------------------------------

          program call               : /lustre/hpc/kemi/ree/PhD/git/ReactivityQM/dep/xtb-6.5.1/bin/xtb --gfn 1 /lustre/hpc/kemi/ree/PhD/git/ReactivityQM/calculations/R03/reac02prodN05/conf10/R03_reac02prodN05_conf10_gfn1.xyz --opt --vfukui --chrg 1 --uhf 0 --alpb DMSO
          hostname                   : node068
          coordinate file            : /lustre/hpc/kemi/ree/PhD/git/ReactivityQM/calculations/R03/reac02prodN05/conf10/R03_reac02prodN05_conf10_gfn1.xyz
          omp threads                :                     1

   ID    Z sym.   atoms
    1    6 C      1, 3, 5, 6, 8, 11-15, 17, 19, 22, 23, 26
    2    8 O      2, 4, 7, 9, 18, 24
    3    7 N      10, 16, 20, 21, 25
    4    1 H      27-46

           -------------------------------------------------
          |                 G F N 1 - x T B                 |
           -------------------------------------------------

        Reference                      10.1021/acs.jctc.7b00118
      * Hamiltonian:
        H0-scaling (s, p, d)           1.850000    2.250000    2.000000
        zeta-weighting                 0.000000
      * Dispersion:
        s8                             2.400000
        a1                             0.630000
        a2                             5.000000
        s9                             0.000000
      * Repulsion:
        kExp                           1.500000
        rExp                           1.000000
      * Coulomb:
        alpha                          2.000000
        third order                    atomic
        anisotropic                    false
      * Halogen bond correction:
        rad-scale                      1.300000
        damping                        0.440000

      * Solvation model:               ALPB
        Solvent                        DMSO
        Parameter file                 internal GFN1-xTB/ALPB
        Dielectric constant                4.6680E+01
        Reference state                gsolv [1 M gas/solution]
        Free energy shift                  7.6243E-03 Eh       4.7843E+00 kcal/mol
        Temperature                        2.9815E+02 K
        Density                            1.1000E+00 kg/L
        Solvent mass                       7.8130E+01 g/mol
        Interaction kernel             P16
        Born radius scaling (c1)           1.7672E+00
        Born radii integrator          GBOBC
        Born offset                        0.0000E+00 a0       0.0000E+00 AA
        H-bond correction              true
        Ion screening                  false
        Surface tension                    1.0000E-05 Eh       1.5569E+01 dyn/cm
        Grid points                               230 per atom

          ...................................................
          :                      SETUP                      :
          :.................................................:
          :  # basis functions                 144          :
          :  # atomic orbitals                 144          :
          :  # shells                           92          :
          :  # electrons                       140          :
          :  # halogen bonds                     0          :
          :  max. iterations                   250          :
          :  Hamiltonian                  GFN1-xTB          :
          :  restarted?                      false          :
          :  GBSA solvation                   true          :
          :  PC potential                    false          :
          :  electronic temp.          300.0000000     K    :
          :  accuracy                    1.0000000          :
          :  -> integral cutoff          0.2500000E+02      :
          :  -> integral neglect         0.1000000E-07      :
          :  -> SCF convergence          0.1000000E-05 Eh   :
          :  -> wf. convergence          0.2000000E-04 e    :
          :  Broyden damping             0.4000000          :
          ...................................................

 iter      E             dE          RMSdq      gap      omega  full diag
   1    -86.6542568 -0.866543E+02  0.832E+00    2.54       0.0  T
   2    -87.0699615 -0.415705E+00  0.499E+00    1.69       1.0  T
   3    -87.0372291  0.327323E-01  0.180E+00    1.80       1.0  T
   4    -87.0943839 -0.571547E-01  0.342E-01    1.72       1.0  T
   5    -87.1004701 -0.608621E-02  0.669E-02    1.75       1.0  T
   6    -87.1006207 -0.150577E-03  0.242E-02    1.77       1.0  T
   7    -87.1006401 -0.194919E-04  0.620E-03    1.78       2.4  T
   8    -87.1006408 -0.625508E-06  0.201E-03    1.78       7.4  T
   9    -87.1006409 -0.108620E-06  0.593E-04    1.78      24.9  T
  10    -87.1006409 -0.702175E-08  0.177E-04    1.78      83.5  T
  11    -87.1006409 -0.559538E-09  0.426E-05    1.78     346.5  T

   *** convergence criteria satisfied after 11 iterations ***

         #    Occupation            Energy/Eh            Energy/eV
      -------------------------------------------------------------
         1        2.0000           -0.8866399             -24.1267
       ...           ...                  ...                  ...
        64        2.0000           -0.4983849             -13.5617
        65        2.0000           -0.4933123             -13.4237
        66        2.0000           -0.4826002             -13.1322
        67        2.0000           -0.4784903             -13.0204
        68        2.0000           -0.4725752             -12.8594
        69        2.0000           -0.4559485             -12.4070
        70        2.0000           -0.4539537             -12.3527 (HOMO)
        71                         -0.3884475             -10.5702 (LUMO)
        72                         -0.3786723             -10.3042
        73                         -0.3301699              -8.9844
        74                         -0.2892664              -7.8713
        75                         -0.2669898              -7.2652
       ...                                ...                  ...
       144                          0.6803869              18.5143
      -------------------------------------------------------------
                  HL-Gap            0.0655063 Eh            1.7825 eV
             Fermi-level           -0.4212006 Eh          -11.4615 eV

 SCC (total)                   0 d,  0 h,  0 min,  0.157 sec
 SCC setup                      ...        0 min,  0.002 sec (  1.295%)
 Dispersion                     ...        0 min,  0.000 sec (  0.198%)
 classical contributions        ...        0 min,  0.000 sec (  0.077%)
 integral evaluation            ...        0 min,  0.027 sec ( 17.490%)
 iterations                     ...        0 min,  0.062 sec ( 39.662%)
 molecular gradient             ...        0 min,  0.063 sec ( 40.390%)
 printout                       ...        0 min,  0.001 sec (  0.878%)

         :::::::::::::::::::::::::::::::::::::::::::::::::::::
         ::                     SUMMARY                     ::
         :::::::::::::::::::::::::::::::::::::::::::::::::::::
         :: total energy             -86.308544513003 Eh    ::
         :: total w/o Gsasa/hb       -86.284996146329 Eh    ::
         :: gradient norm              0.171178620858 Eh/a0 ::
         :: HOMO-LUMO gap              1.782515861345 eV    ::
         ::.................................................::
         :: SCC energy               -87.100640886578 Eh    ::
         :: -> electrostatic           0.419850229935 Eh    ::
         :: -> Gsolv                  -0.118436115670 Eh    ::
         ::    -> Gelec               -0.094887748996 Eh    ::
         ::    -> Gsasa               -0.024606843802 Eh    ::
         ::    -> Ghb                 -0.006565801876 Eh    ::
         ::    -> Gshift               0.007624279005 Eh    ::
         :: repulsion energy           0.822260711161 Eh    ::
         :: dispersion energy         -0.030164337586 Eh    ::
         :: halogen bond corr.         0.000000000000 Eh    ::
         :: add. restraining           0.000000000000 Eh    ::
         :: total charge               1.000000000000 e     ::
         :::::::::::::::::::::::::::::::::::::::::::::::::::::

      ----------------------------------------------------------- 
     |                   =====================                   |
     |                        A N C O P T                        |
     |                   =====================                   |
     |               Approximate Normal Coordinate               |
     |                Rational Function Optimizer                |
      ----------------------------------------------------------- 

          ...................................................
          :                      SETUP                      :
          :.................................................:
          :   optimization level            normal          :
          :   max. optcycles                   200          :
          :   ANC micro-cycles                  20          :
          :   degrees of freedom               132          :
          :.................................................:
          :   RF solver                   davidson          :
          :   write xtbopt.log                true          :
          :   linear?                        false          :
          :   energy convergence         0.5000000E-05 Eh   :
          :   grad. convergence          0.1000000E-02 Eh/α :
          :   maximium RF displ.         1.0000000          :
          :   Hlow (freq-cutoff)         0.1000000E-01      :
          :   Hmax (freq-cutoff)         5.0000000          :
          :   S6 in model hess.         20.0000000          :
          ...................................................

generating ANC from model Hessian ...
Using Lindh-Hessian (1995)
 Shifting diagonal of input Hessian by   9.821534401949246E-003
 Lowest  eigenvalues of input Hessian
    0.000000    0.000000    0.000000    0.000000    0.000000    0.000000
    0.010000    0.010201    0.010578    0.011113    0.011367    0.012391
    0.013302    0.014041    0.014915    0.015442    0.015883    0.016708
 Highest eigenvalues
    1.980371    2.057544    2.164136    2.243763    2.316286    2.354314
 

........................................................................
.............................. CYCLE    1 ..............................
........................................................................
   1    -87.1006409 -0.871006E+02  0.212E-05    1.78       0.0  T
   2    -87.1006409 -0.309797E-11  0.985E-06    1.78    1496.9  T
   3    -87.1006409  0.184741E-12  0.660E-06    1.78    2232.6  T
     SCC iter.                  ...        0 min,  0.018 sec
     gradient                   ...        0 min,  0.064 sec
 * total energy  :   -86.3085445 Eh     change       -0.4574474E-10 Eh
   gradient norm :     0.1711777 Eh/α   predicted     0.0000000E+00 (-100.00%)
   displ. norm   :     0.3321916 α      lambda       -0.2630030E-01
   maximum displ.:     0.1109406 α      in ANC's #13, #34, #10, ...

........................................................................
.............................. CYCLE    2 ..............................
........................................................................
   1    -87.1393119 -0.871393E+02  0.111E-01    2.20       0.0  T
   2    -87.1398457 -0.533719E-03  0.565E-02    2.16       1.0  T
   3    -87.1399708 -0.125115E-03  0.211E-02    2.15       1.0  T
   4    -87.1399713 -0.560190E-06  0.997E-03    2.13       1.5  T
   5    -87.1399726 -0.122686E-05  0.146E-03    2.13      10.1  T
   6    -87.1399726 -0.785084E-07  0.515E-04    2.13      28.7  T
   7    -87.1399726 -0.723878E-08  0.165E-04    2.13      89.2  T
   8    -87.1399726 -0.359236E-09  0.367E-05    2.13     401.3  T
     SCC iter.                  ...        0 min,  0.046 sec
     gradient                   ...        0 min,  0.062 sec
 * total energy  :   -86.3278616 Eh     change       -0.1931710E-01 Eh
   gradient norm :     0.0824488 Eh/α   predicted    -0.1462437E-01 ( -24.29%)
   displ. norm   :     0.3670933 α      lambda       -0.1237164E-01
   maximum displ.:     0.1463925 α      in ANC's #26, #13, #10, ...

........................................................................
.............................. CYCLE    3 ..............................
........................................................................
   1    -87.1657217 -0.871657E+02  0.102E-01    2.50       0.0  T
   2    -87.1661788 -0.457136E-03  0.476E-02    2.47       1.0  T
   3    -87.1662636 -0.847458E-04  0.179E-02    2.46       1.0  T
   4    -87.1662640 -0.416578E-06  0.814E-03    2.45       1.8  T
   5    -87.1662647 -0.763740E-06  0.133E-03    2.44      11.1  T
   6    -87.1662648 -0.567887E-07  0.427E-04    2.44      34.6  T
   7    -87.1662648 -0.508058E-08  0.151E-04    2.44      97.4  T
   8    -87.1662648 -0.319204E-09  0.315E-05    2.44     467.8  T
     SCC iter.                  ...        0 min,  0.044 sec
     gradient                   ...        0 min,  0.062 sec
 * total energy  :   -86.3349493 Eh     change       -0.7087655E-02 Eh
   gradient norm :     0.0210186 Eh/α   predicted    -0.7019406E-02 (  -0.96%)
   displ. norm   :     0.2923458 α      lambda       -0.2159189E-02
   maximum displ.:     0.1469017 α      in ANC's #10, #13, #21, ...

........................................................................
.............................. CYCLE    4 ..............................
........................................................................
   1    -87.1657516 -0.871658E+02  0.185E-02    2.50       0.0  T
   2    -87.1657626 -0.109883E-04  0.962E-03    2.50       1.5  T
   3    -87.1657640 -0.140304E-05  0.484E-03    2.50       3.0  T
   4    -87.1657640 -0.175383E-07  0.135E-03    2.49      10.9  T
   5    -87.1657640 -0.282584E-07  0.344E-04    2.49      42.8  T
   6    -87.1657640 -0.464698E-08  0.896E-05    2.49     164.6  T
   7    -87.1657640 -0.127500E-09  0.359E-05    2.49     410.9  T
     SCC iter.                  ...        0 min,  0.039 sec
     gradient                   ...        0 min,  0.062 sec
 * total energy  :   -86.3364523 Eh     change       -0.1503011E-02 Eh
   gradient norm :     0.0138466 Eh/α   predicted    -0.1171944E-02 ( -22.03%)
   displ. norm   :     0.3455522 α      lambda       -0.1416151E-02
   maximum displ.:     0.1510715 α      in ANC's #10, #21, #3, ...

........................................................................
.............................. CYCLE    5 ..............................
........................................................................
   1    -87.1657781 -0.871658E+02  0.202E-02    2.53       0.0  T
   2    -87.1657977 -0.196442E-04  0.104E-02    2.53       1.4  T
   3    -87.1658016 -0.390824E-05  0.401E-03    2.53       3.7  T
   4    -87.1658017 -0.448499E-07  0.171E-03    2.53       8.6  T
   5    -87.1658017 -0.160208E-07  0.389E-04    2.53      37.9  T
   6    -87.1658017 -0.387669E-08  0.939E-05    2.53     157.1  T
   7    -87.1658017 -0.192557E-09  0.396E-05    2.53     372.2  T
     SCC iter.                  ...        0 min,  0.041 sec
     gradient                   ...        0 min,  0.064 sec
 * total energy  :   -86.3374476 Eh     change       -0.9952913E-03 Eh
   gradient norm :     0.0107264 Eh/α   predicted    -0.7926289E-03 ( -20.36%)
   displ. norm   :     0.3753860 α      lambda       -0.9522842E-03
   maximum displ.:     0.1671102 α      in ANC's #3, #21, #10, ...

........................................................................
.............................. CYCLE    6 ..............................
........................................................................
   1    -87.1664365 -0.871664E+02  0.163E-02    2.55       0.0  T
   2    -87.1664466 -0.101286E-04  0.701E-03    2.55       2.1  T
   3    -87.1664483 -0.162504E-05  0.340E-03    2.55       4.3  T
   4    -87.1664483 -0.647740E-07  0.131E-03    2.55      11.2  T
   5    -87.1664483 -0.984727E-08  0.255E-04    2.55      57.7  T
   6    -87.1664483 -0.166398E-08  0.699E-05    2.55     210.9  T
   7    -87.1664483 -0.107590E-09  0.279E-05    2.55     527.7  T
     SCC iter.                  ...        0 min,  0.040 sec
     gradient                   ...        0 min,  0.062 sec
 * total energy  :   -86.3381735 Eh     change       -0.7259709E-03 Eh
   gradient norm :     0.0113699 Eh/α   predicted    -0.5432431E-03 ( -25.17%)
   displ. norm   :     0.4519820 α      lambda       -0.8829932E-03
   maximum displ.:     0.2218837 α      in ANC's #3, #2, #21, ...

........................................................................
.............................. CYCLE    7 ..............................
........................................................................
   1    -87.1677878 -0.871678E+02  0.131E-02    2.56       0.0  T
   2    -87.1677930 -0.513549E-05  0.589E-03    2.56       2.5  T
   3    -87.1677933 -0.367519E-06  0.338E-03    2.56       4.4  T
   4    -87.1677934 -0.414813E-07  0.991E-04    2.56      14.9  T
   5    -87.1677934 -0.185258E-07  0.239E-04    2.56      61.6  T
   6    -87.1677934 -0.128229E-08  0.711E-05    2.56     207.3  T
   7    -87.1677934 -0.122412E-09  0.214E-05    2.56     690.0  T
     SCC iter.                  ...        0 min,  0.039 sec
     gradient                   ...        0 min,  0.062 sec
 * total energy  :   -86.3388462 Eh     change       -0.6726941E-03 Eh
   gradient norm :     0.0110776 Eh/α   predicted    -0.5316901E-03 ( -20.96%)
   displ. norm   :     0.4324986 α      lambda       -0.6850679E-03
   maximum displ.:     0.2301439 α      in ANC's #3, #2, #6, ...

........................................................................
.............................. CYCLE    8 ..............................
........................................................................
   1    -87.1696532 -0.871697E+02  0.931E-03    2.57       0.0  T
   2    -87.1696567 -0.343300E-05  0.530E-03    2.57       2.8  T
   3    -87.1696570 -0.320058E-06  0.275E-03    2.57       5.4  T
   4    -87.1696570 -0.562710E-08  0.936E-04    2.57      15.8  T
   5    -87.1696570 -0.153020E-07  0.177E-04    2.57      83.4  T
   6    -87.1696570 -0.545711E-09  0.670E-05    2.57     220.1  T
     SCC iter.                  ...        0 min,  0.031 sec
     gradient                   ...        0 min,  0.063 sec
 * total energy  :   -86.3393828 Eh     change       -0.5365307E-03 Eh
   gradient norm :     0.0098409 Eh/α   predicted    -0.4066087E-03 ( -24.22%)
   displ. norm   :     0.4451398 α      lambda       -0.6091456E-03
   maximum displ.:     0.2518084 α      in ANC's #3, #2, #6, ...

........................................................................
.............................. CYCLE    9 ..............................
........................................................................
   1    -87.1714594 -0.871715E+02  0.854E-03    2.57       0.0  T
   2    -87.1714620 -0.259556E-05  0.472E-03    2.57       3.1  T
   3    -87.1714625 -0.533013E-06  0.218E-03    2.57       6.8  T
   4    -87.1714626 -0.108473E-07  0.599E-04    2.57      24.6  T
   5    -87.1714626 -0.563713E-08  0.203E-04    2.57      72.6  T
   6    -87.1714626 -0.818588E-09  0.572E-05    2.57     257.9  T
   7    -87.1714626 -0.430589E-10  0.159E-05    2.57     927.2  T
     SCC iter.                  ...        0 min,  0.041 sec
     gradient                   ...        0 min,  0.067 sec
 * total energy  :   -86.3398593 Eh     change       -0.4765109E-03 Eh
   gradient norm :     0.0082299 Eh/α   predicted    -0.3649261E-03 ( -23.42%)
   displ. norm   :     0.4432414 α      lambda       -0.5181821E-03
   maximum displ.:     0.2600374 α      in ANC's #3, #2, #6, ...

........................................................................
.............................. CYCLE   10 ..............................
........................................................................
   1    -87.1724983 -0.871725E+02  0.856E-03    2.56       0.0  T
   2    -87.1725012 -0.282570E-05  0.421E-03    2.56       3.5  T
   3    -87.1725016 -0.442719E-06  0.193E-03    2.56       7.6  T
   4    -87.1725016 -0.130557E-07  0.619E-04    2.56      23.8  T
   5    -87.1725016 -0.396615E-08  0.214E-04    2.56      68.8  T
   6    -87.1725016 -0.961933E-09  0.505E-05    2.56     291.7  T
   7    -87.1725016 -0.374882E-10  0.172E-05    2.56     858.5  T
     SCC iter.                  ...        0 min,  0.043 sec
     gradient                   ...        0 min,  0.067 sec
 * total energy  :   -86.3402691 Eh     change       -0.4097723E-03 Eh
   gradient norm :     0.0086014 Eh/α   predicted    -0.3099936E-03 ( -24.35%)
   displ. norm   :     0.4492726 α      lambda       -0.4512862E-03
   maximum displ.:     0.2710837 α      in ANC's #3, #2, #1, ...

........................................................................
.............................. CYCLE   11 ..............................
........................................................................
   1    -87.1736311 -0.871736E+02  0.887E-03    2.56       0.0  T
   2    -87.1736348 -0.370207E-05  0.436E-03    2.56       3.4  T
   3    -87.1736351 -0.251988E-06  0.213E-03    2.56       6.9  T
   4    -87.1736351 -0.478390E-08  0.852E-04    2.56      17.3  T
   5    -87.1736351 -0.796841E-08  0.164E-04    2.56      90.1  T
   6    -87.1736351 -0.462677E-09  0.686E-05    2.56     214.8  T
     SCC iter.                  ...        0 min,  0.036 sec
     gradient                   ...        0 min,  0.069 sec
 * total energy  :   -86.3406130 Eh     change       -0.3439676E-03 Eh
   gradient norm :     0.0078960 Eh/α   predicted    -0.2711911E-03 ( -21.16%)
   displ. norm   :     0.4523048 α      lambda       -0.3537546E-03
   maximum displ.:     0.2699336 α      in ANC's #3, #2, #1, ...

........................................................................
.............................. CYCLE   12 ..............................
........................................................................
   1    -87.1718521 -0.871719E+02  0.997E-03    2.56       0.0  T
   2    -87.1718548 -0.270569E-05  0.521E-03    2.56       2.8  T
   3    -87.1718552 -0.416908E-06  0.278E-03    2.56       5.3  T
   4    -87.1718552 -0.215892E-07  0.670E-04    2.56      22.0  T
   5    -87.1718552 -0.882503E-08  0.190E-04    2.56      77.6  T
   6    -87.1718552 -0.109246E-08  0.533E-05    2.56     276.6  T
     SCC iter.                  ...        0 min,  0.036 sec
     gradient                   ...        0 min,  0.069 sec
 * total energy  :   -86.3408622 Eh     change       -0.2491434E-03 Eh
   gradient norm :     0.0089998 Eh/α   predicted    -0.2130649E-03 ( -14.48%)
   displ. norm   :     0.3889530 α      lambda       -0.3266263E-03
   maximum displ.:     0.2327041 α      in ANC's #3, #2, #1, ...

........................................................................
.............................. CYCLE   13 ..............................
........................................................................
   1    -87.1758767 -0.871759E+02  0.117E-02    2.58       0.0  T
   2    -87.1758856 -0.892406E-05  0.698E-03    2.58       2.1  T
   3    -87.1758873 -0.162202E-05  0.315E-03    2.58       4.7  T
   4    -87.1758873 -0.105169E-07  0.142E-03    2.58      10.4  T
   5    -87.1758873 -0.102404E-07  0.199E-04    2.58      73.9  T
   6    -87.1758873 -0.103631E-08  0.631E-05    2.58     233.6  T
     SCC iter.                  ...        0 min,  0.036 sec
     gradient                   ...        0 min,  0.068 sec
 * total energy  :   -86.3410445 Eh     change       -0.1823584E-03 Eh
   gradient norm :     0.0088140 Eh/α   predicted    -0.1880209E-03 (   3.11%)
   displ. norm   :     0.3632447 α      lambda       -0.2265363E-03
   maximum displ.:     0.2107178 α      in ANC's #3, #2, #1, ...

........................................................................
.............................. CYCLE   14 ..............................
........................................................................
   1    -87.1708533 -0.871709E+02  0.125E-02    2.59       0.0  T
   2    -87.1708570 -0.371233E-05  0.616E-03    2.59       2.4  T
   3    -87.1708577 -0.672819E-06  0.344E-03    2.59       4.3  T
   4    -87.1708578 -0.969623E-07  0.806E-04    2.59      18.3  T
   5    -87.1708578 -0.502170E-08  0.200E-04    2.59      73.6  T
   6    -87.1708578 -0.753943E-09  0.551E-05    2.59     267.4  T
   7    -87.1708578 -0.603109E-10  0.183E-05    2.59     807.9  T
     SCC iter.                  ...        0 min,  0.042 sec
     gradient                   ...        0 min,  0.069 sec
 * total energy  :   -86.3411498 Eh     change       -0.1052342E-03 Eh
   gradient norm :     0.0087416 Eh/α   predicted    -0.1282161E-03 (  21.84%)
   displ. norm   :     0.1484984 α      lambda       -0.2295830E-03
   maximum displ.:     0.0645267 α      in ANC's #3, #8, #2, ...

........................................................................
.............................. CYCLE   15 ..............................
........................................................................
   1    -87.1738812 -0.871739E+02  0.114E-02    2.60       0.0  T
   2    -87.1738861 -0.490399E-05  0.478E-03    2.59       3.1  T
   3    -87.1738865 -0.344287E-06  0.282E-03    2.60       5.2  T
   4    -87.1738865 -0.117755E-07  0.849E-04    2.59      17.4  T
   5    -87.1738865 -0.169332E-07  0.143E-04    2.59     103.3  T
   6    -87.1738865 -0.676366E-09  0.481E-05    2.59     306.7  T
     SCC iter.                  ...        0 min,  0.036 sec
     gradient                   ...        0 min,  0.069 sec
 * total energy  :   -86.3412708 Eh     change       -0.1210344E-03 Eh
   gradient norm :     0.0069023 Eh/α   predicted    -0.1173240E-03 (  -3.07%)
   displ. norm   :     0.1231987 α      lambda       -0.1392669E-03
   maximum displ.:     0.0589488 α      in ANC's #4, #2, #12, ...

........................................................................
.............................. CYCLE   16 ..............................
........................................................................
   1    -87.1764866 -0.871765E+02  0.791E-03    2.61       0.0  T
   2    -87.1764887 -0.210270E-05  0.380E-03    2.61       3.9  T
   3    -87.1764890 -0.266282E-06  0.214E-03    2.61       6.9  T
   4    -87.1764890 -0.822348E-08  0.535E-04    2.61      27.6  T
   5    -87.1764890 -0.493850E-08  0.132E-04    2.61     111.9  T
   6    -87.1764890 -0.768580E-09  0.252E-05    2.61     585.4  T
     SCC iter.                  ...        0 min,  0.036 sec
     gradient                   ...        0 min,  0.068 sec
 * total energy  :   -86.3413694 Eh     change       -0.9864531E-04 Eh
   gradient norm :     0.0050359 Eh/α   predicted    -0.7069159E-04 ( -28.34%)
   displ. norm   :     0.2613324 α      lambda       -0.1503379E-03
   maximum displ.:     0.1203822 α      in ANC's #3, #2, #12, ...

........................................................................
.............................. CYCLE   17 ..............................
........................................................................
   1    -87.1752809 -0.871753E+02  0.645E-03    2.61       0.0  T
   2    -87.1752821 -0.120872E-05  0.293E-03    2.61       5.0  T
   3    -87.1752822 -0.106098E-06  0.163E-03    2.61       9.0  T
   4    -87.1752822 -0.226096E-07  0.535E-04    2.61      27.5  T
   5    -87.1752822 -0.281116E-08  0.159E-04    2.61      92.8  T
   6    -87.1752822 -0.481634E-09  0.357E-05    2.61     413.2  T
     SCC iter.                  ...        0 min,  0.037 sec
     gradient                   ...        0 min,  0.064 sec
 * total energy  :   -86.3414709 Eh     change       -0.1015024E-03 Eh
   gradient norm :     0.0064844 Eh/α   predicted    -0.8030553E-04 ( -20.88%)
   displ. norm   :     0.2234760 α      lambda       -0.1350016E-03
   maximum displ.:     0.1103520 α      in ANC's #4, #3, #2, ...

........................................................................
.............................. CYCLE   18 ..............................
........................................................................
   1    -87.1756565 -0.871757E+02  0.615E-03    2.61       0.0  T
   2    -87.1756574 -0.866252E-06  0.329E-03    2.61       4.5  T
   3    -87.1756575 -0.903044E-07  0.182E-03    2.61       8.1  T
   4    -87.1756575 -0.134850E-07  0.415E-04    2.61      35.6  T
   5    -87.1756575 -0.381820E-08  0.982E-05    2.61     150.1  T
   6    -87.1756575 -0.204636E-09  0.347E-05    2.61     424.5  T
     SCC iter.                  ...        0 min,  0.042 sec
     gradient                   ...        0 min,  0.078 sec
 * total energy  :   -86.3415534 Eh     change       -0.8246513E-04 Eh
   gradient norm :     0.0067746 Eh/α   predicted    -0.7087239E-04 ( -14.06%)
   displ. norm   :     0.2027869 α      lambda       -0.1232479E-03
   maximum displ.:     0.0978752 α      in ANC's #4, #3, #12, ...

........................................................................
.............................. CYCLE   19 ..............................
........................................................................
   1    -87.1751458 -0.871751E+02  0.698E-03    2.60       0.0  T
   2    -87.1751471 -0.127597E-05  0.343E-03    2.60       4.3  T
   3    -87.1751473 -0.220380E-06  0.178E-03    2.60       8.3  T
   4    -87.1751473 -0.200373E-07  0.494E-04    2.60      29.9  T
   5    -87.1751473 -0.267566E-08  0.147E-04    2.60     100.4  T
   6    -87.1751473 -0.298243E-09  0.354E-05    2.60     416.4  T
     SCC iter.                  ...        0 min,  0.043 sec
     gradient                   ...        0 min,  0.078 sec
 * total energy  :   -86.3416225 Eh     change       -0.6911803E-04 Eh
   gradient norm :     0.0057833 Eh/α   predicted    -0.6415926E-04 (  -7.17%)
   displ. norm   :     0.1725217 α      lambda       -0.9228975E-04
   maximum displ.:     0.0848292 α      in ANC's #3, #4, #9, ...

........................................................................
.............................. CYCLE   20 ..............................
........................................................................
   1    -87.1744317 -0.871744E+02  0.593E-03    2.60       0.0  T
   2    -87.1744328 -0.111836E-05  0.294E-03    2.60       5.0  T
   3    -87.1744329 -0.951123E-07  0.162E-03    2.60       9.1  T
   4    -87.1744329 -0.282866E-08  0.305E-04    2.60      48.4  T
   5    -87.1744329 -0.141330E-08  0.688E-05    2.60     214.2  T
   6    -87.1744329 -0.115278E-09  0.233E-05    2.60     632.5  T
     SCC iter.                  ...        0 min,  0.042 sec
     gradient                   ...        0 min,  0.078 sec
 * total energy  :   -86.3416823 Eh     change       -0.5981825E-04 Eh
   gradient norm :     0.0048382 Eh/α   predicted    -0.4752164E-04 ( -20.56%)
   displ. norm   :     0.1043667 α      lambda       -0.9350151E-04
   maximum displ.:     0.0487078 α      in ANC's #4, #3, #9, ...
 * RMSD in coord.:     0.7233094 α      energy gain  -0.3313783E-01 Eh

generating ANC from model Hessian ...
Using Lindh-Hessian (1995)
 Shifting diagonal of input Hessian by   9.874502494835820E-003
 Lowest  eigenvalues of input Hessian
    0.000000    0.000000    0.000000    0.000000    0.000000    0.000000
    0.010000    0.010237    0.010537    0.010773    0.011172    0.011687
    0.012720    0.013825    0.014123    0.014486    0.015687    0.016080
 Highest eigenvalues
    2.043648    2.176333    2.191113    2.380555    2.409509    2.442623
 

........................................................................
.............................. CYCLE   21 ..............................
........................................................................
   1    -87.1767456 -0.871767E+02  0.590E-03    2.61       0.0  T
   2    -87.1767470 -0.136432E-05  0.277E-03    2.61       5.3  T
   3    -87.1767471 -0.878156E-07  0.147E-03    2.61      10.0  T
   4    -87.1767471 -0.123229E-08  0.379E-04    2.61      38.9  T
   5    -87.1767471 -0.147384E-08  0.667E-05    2.61     221.1  T
   6    -87.1767471 -0.920295E-10  0.185E-05    2.61     795.3  T
     SCC iter.                  ...        0 min,  0.041 sec
     gradient                   ...        0 min,  0.079 sec
 * total energy  :   -86.3417366 Eh     change       -0.5422919E-04 Eh
   gradient norm :     0.0045560 Eh/α   predicted     0.0000000E+00 (-100.00%)
   displ. norm   :     0.0366161 α      lambda       -0.4208274E-04
   maximum displ.:     0.0162552 α      in ANC's #19, #12, #22, ...

........................................................................
.............................. CYCLE   22 ..............................
........................................................................
   1    -87.1764162 -0.871764E+02  0.312E-03    2.61       0.0  T
   2    -87.1764166 -0.400722E-06  0.139E-03    2.61      10.6  T
   3    -87.1764166 -0.450723E-07  0.707E-04    2.61      20.9  T
   4    -87.1764166 -0.221853E-08  0.287E-04    2.61      51.4  T
   5    -87.1764166 -0.864958E-09  0.537E-05    2.61     274.5  T
   6    -87.1764166 -0.539302E-10  0.142E-05    2.61    1035.3  T
     SCC iter.                  ...        0 min,  0.042 sec
     gradient                   ...        0 min,  0.076 sec
 * total energy  :   -86.3417770 Eh     change       -0.4038356E-04 Eh
   gradient norm :     0.0023404 Eh/α   predicted    -0.2548561E-04 ( -36.89%)
   displ. norm   :     0.1062127 α      lambda       -0.8760089E-04
   maximum displ.:     0.0450188 α      in ANC's #19, #12, #22, ...

........................................................................
.............................. CYCLE   23 ..............................
........................................................................
   1    -87.1756185 -0.871756E+02  0.647E-03    2.61       0.0  T
   2    -87.1756204 -0.185587E-05  0.271E-03    2.61       5.4  T
   3    -87.1756206 -0.204995E-06  0.131E-03    2.61      11.2  T
   4    -87.1756206 -0.669571E-08  0.555E-04    2.61      26.6  T
   5    -87.1756206 -0.312698E-08  0.114E-04    2.61     129.0  T
   6    -87.1756206 -0.232674E-09  0.319E-05    2.61     462.2  T
     SCC iter.                  ...        0 min,  0.040 sec
     gradient                   ...        0 min,  0.076 sec
 * total energy  :   -86.3418347 Eh     change       -0.5771636E-04 Eh
   gradient norm :     0.0029243 Eh/α   predicted    -0.4429708E-04 ( -23.25%)
   displ. norm   :     0.1034300 α      lambda       -0.4801597E-04
   maximum displ.:     0.0416276 α      in ANC's #19, #12, #22, ...

........................................................................
.............................. CYCLE   24 ..............................
........................................................................
   1    -87.1752194 -0.871752E+02  0.338E-03    2.61       0.0  T
   2    -87.1752199 -0.447422E-06  0.141E-03    2.61      10.5  T
   3    -87.1752199 -0.392512E-07  0.701E-04    2.61      21.0  T
   4    -87.1752199 -0.114136E-08  0.244E-04    2.61      60.4  T
   5    -87.1752199 -0.903228E-09  0.592E-05    2.61     249.2  T
   6    -87.1752199 -0.469385E-10  0.220E-05    2.61     669.2  T
     SCC iter.                  ...        0 min,  0.040 sec
     gradient                   ...        0 min,  0.076 sec
 * total energy  :   -86.3418726 Eh     change       -0.3797025E-04 Eh
   gradient norm :     0.0042213 Eh/α   predicted    -0.2426554E-04 ( -36.09%)
   displ. norm   :     0.1998452 α      lambda       -0.8354210E-04
   maximum displ.:     0.0813336 α      in ANC's #12, #19, #22, ...

........................................................................
.............................. CYCLE   25 ..............................
........................................................................
   1    -87.1745737 -0.871746E+02  0.434E-03    2.61       0.0  T
   2    -87.1745744 -0.664075E-06  0.201E-03    2.61       7.4  T
   3    -87.1745745 -0.693247E-07  0.110E-03    2.61      13.4  T
   4    -87.1745745 -0.436947E-08  0.283E-04    2.61      52.1  T
   5    -87.1745745 -0.182861E-08  0.972E-05    2.61     151.7  T
   6    -87.1745745 -0.102375E-09  0.330E-05    2.61     447.4  T
     SCC iter.                  ...        0 min,  0.041 sec
     gradient                   ...        0 min,  0.078 sec
 * total energy  :   -86.3419304 Eh     change       -0.5779230E-04 Eh
   gradient norm :     0.0050080 Eh/α   predicted    -0.4344454E-04 ( -24.83%)
   displ. norm   :     0.1515252 α      lambda       -0.5981573E-04
   maximum displ.:     0.0618983 α      in ANC's #12, #22, #19, ...

........................................................................
.............................. CYCLE   26 ..............................
........................................................................
   1    -87.1747687 -0.871748E+02  0.377E-03    2.61       0.0  T
   2    -87.1747695 -0.763932E-06  0.178E-03    2.61       8.3  T
   3    -87.1747696 -0.137491E-06  0.855E-04    2.61      17.2  T
   4    -87.1747696 -0.573563E-08  0.312E-04    2.61      47.3  T
   5    -87.1747696 -0.382201E-09  0.864E-05    2.61     170.6  T
   6    -87.1747696 -0.751470E-10  0.260E-05    2.61     566.8  T
     SCC iter.                  ...        0 min,  0.041 sec
     gradient                   ...        0 min,  0.078 sec
 * total energy  :   -86.3419741 Eh     change       -0.4368559E-04 Eh
   gradient norm :     0.0039981 Eh/α   predicted    -0.3059643E-04 ( -29.96%)
   displ. norm   :     0.1316936 α      lambda       -0.6025682E-04
   maximum displ.:     0.0536011 α      in ANC's #12, #2, #16, ...

........................................................................
.............................. CYCLE   27 ..............................
........................................................................
   1    -87.1758569 -0.871759E+02  0.560E-03    2.61       0.0  T
   2    -87.1758585 -0.153482E-05  0.252E-03    2.61       5.8  T
   3    -87.1758587 -0.269067E-06  0.111E-03    2.61      13.2  T
   4    -87.1758588 -0.844422E-08  0.460E-04    2.61      32.1  T
   5    -87.1758588 -0.809237E-09  0.109E-04    2.61     135.8  T
   6    -87.1758588 -0.167347E-09  0.291E-05    2.61     506.5  T
     SCC iter.                  ...        0 min,  0.041 sec
     gradient                   ...        0 min,  0.075 sec
 * total energy  :   -86.3420149 Eh     change       -0.4076050E-04 Eh
   gradient norm :     0.0023622 Eh/α   predicted    -0.3068566E-04 ( -24.72%)
   displ. norm   :     0.1543514 α      lambda       -0.3649759E-04
   maximum displ.:     0.0674566 α      in ANC's #12, #19, #16, ...

........................................................................
.............................. CYCLE   28 ..............................
........................................................................
   1    -87.1753853 -0.871754E+02  0.441E-03    2.61       0.0  T
   2    -87.1753862 -0.870695E-06  0.200E-03    2.61       7.4  T
   3    -87.1753864 -0.168796E-06  0.817E-04    2.61      18.0  T
   4    -87.1753864 -0.559965E-08  0.323E-04    2.61      45.6  T
   5    -87.1753864 -0.429765E-09  0.978E-05    2.61     150.7  T
   6    -87.1753864 -0.133767E-09  0.277E-05    2.61     533.1  T
     SCC iter.                  ...        0 min,  0.040 sec
     gradient                   ...        0 min,  0.075 sec
 * total energy  :   -86.3420416 Eh     change       -0.2667984E-04 Eh
   gradient norm :     0.0025802 Eh/α   predicted    -0.1869838E-04 ( -29.92%)
   displ. norm   :     0.1626757 α      lambda       -0.4616483E-04
   maximum displ.:     0.0654511 α      in ANC's #12, #16, #14, ...

........................................................................
.............................. CYCLE   29 ..............................
........................................................................
   1    -87.1757519 -0.871758E+02  0.498E-03    2.61       0.0  T
   2    -87.1757527 -0.776512E-06  0.218E-03    2.61       6.8  T
   3    -87.1757528 -0.118816E-06  0.101E-03    2.61      14.6  T
   4    -87.1757528 -0.633177E-08  0.350E-04    2.61      42.2  T
   5    -87.1757528 -0.108881E-08  0.106E-04    2.61     139.3  T
   6    -87.1757528 -0.218606E-09  0.306E-05    2.61     481.2  T
     SCC iter.                  ...        0 min,  0.040 sec
     gradient                   ...        0 min,  0.075 sec
 * total energy  :   -86.3420717 Eh     change       -0.3016643E-04 Eh
   gradient norm :     0.0035997 Eh/α   predicted    -0.2369380E-04 ( -21.46%)
   displ. norm   :     0.1771425 α      lambda       -0.3553718E-04
   maximum displ.:     0.0755336 α      in ANC's #12, #16, #14, ...

........................................................................
.............................. CYCLE   30 ..............................
........................................................................
   1    -87.1746314 -0.871746E+02  0.355E-03    2.60       0.0  T
   2    -87.1746317 -0.293311E-06  0.158E-03    2.60       9.3  T
   3    -87.1746317 -0.224675E-07  0.775E-04    2.60      19.0  T
   4    -87.1746317 -0.391258E-08  0.225E-04    2.61      65.6  T
   5    -87.1746317 -0.475893E-09  0.664E-05    2.61     222.1  T
   6    -87.1746317 -0.443237E-10  0.198E-05    2.61     746.1  T
     SCC iter.                  ...        0 min,  0.042 sec
     gradient                   ...        0 min,  0.077 sec
 * total energy  :   -86.3420960 Eh     change       -0.2426138E-04 Eh
   gradient norm :     0.0039147 Eh/α   predicted    -0.1832738E-04 ( -24.46%)
   displ. norm   :     0.1621769 α      lambda       -0.5779999E-04
   maximum displ.:     0.0671856 α      in ANC's #16, #14, #4, ...

........................................................................
.............................. CYCLE   31 ..............................
........................................................................
   1    -87.1754119 -0.871754E+02  0.503E-03    2.61       0.0  T
   2    -87.1754129 -0.103803E-05  0.227E-03    2.61       6.5  T
   3    -87.1754131 -0.158087E-06  0.121E-03    2.61      12.1  T
   4    -87.1754131 -0.161758E-07  0.404E-04    2.61      36.5  T
   5    -87.1754131 -0.772900E-09  0.103E-04    2.61     143.8  T
   6    -87.1754131 -0.114483E-09  0.264E-05    2.61     558.0  T
     SCC iter.                  ...        0 min,  0.041 sec
     gradient                   ...        0 min,  0.072 sec
 * total energy  :   -86.3421309 Eh     change       -0.3492574E-04 Eh
   gradient norm :     0.0042864 Eh/α   predicted    -0.2967454E-04 ( -15.04%)
   displ. norm   :     0.1144695 α      lambda       -0.3731069E-04
   maximum displ.:     0.0462540 α      in ANC's #14, #16, #4, ...

........................................................................
.............................. CYCLE   32 ..............................
........................................................................
   1    -87.1752306 -0.871752E+02  0.397E-03    2.61       0.0  T
   2    -87.1752313 -0.641531E-06  0.177E-03    2.61       8.3  T
   3    -87.1752314 -0.115702E-06  0.786E-04    2.61      18.7  T
   4    -87.1752314 -0.504427E-08  0.299E-04    2.61      49.3  T
   5    -87.1752314 -0.421949E-09  0.791E-05    2.61     186.4  T
   6    -87.1752314 -0.104052E-09  0.229E-05    2.61     643.1  T
     SCC iter.                  ...        0 min,  0.039 sec
     gradient                   ...        0 min,  0.065 sec
 * total energy  :   -86.3421596 Eh     change       -0.2866623E-04 Eh
   gradient norm :     0.0032345 Eh/α   predicted    -0.1890578E-04 ( -34.05%)
   displ. norm   :     0.1344675 α      lambda       -0.4890549E-04
   maximum displ.:     0.0532725 α      in ANC's #14, #4, #24, ...

........................................................................
.............................. CYCLE   33 ..............................
........................................................................
   1    -87.1760283 -0.871760E+02  0.538E-03    2.62       0.0  T
   2    -87.1760295 -0.122057E-05  0.241E-03    2.61       6.1  T
   3    -87.1760297 -0.204985E-06  0.963E-04    2.61      15.3  T
   4    -87.1760297 -0.577874E-08  0.402E-04    2.61      36.7  T
   5    -87.1760297 -0.981473E-09  0.112E-04    2.61     131.7  T
   6    -87.1760297 -0.284999E-09  0.343E-05    2.61     430.1  T
     SCC iter.                  ...        0 min,  0.036 sec
     gradient                   ...        0 min,  0.068 sec
 * total energy  :   -86.3421901 Eh     change       -0.3050129E-04 Eh
   gradient norm :     0.0026253 Eh/α   predicted    -0.2496551E-04 ( -18.15%)
   displ. norm   :     0.1231961 α      lambda       -0.2036027E-04
   maximum displ.:     0.0497095 α      in ANC's #14, #16, #2, ...

........................................................................
.............................. CYCLE   34 ..............................
........................................................................
   1    -87.1752672 -0.871753E+02  0.298E-03    2.62       0.0  T
   2    -87.1752674 -0.201039E-06  0.139E-03    2.62      10.6  T
   3    -87.1752674 -0.142376E-07  0.667E-04    2.62      22.1  T
   4    -87.1752674 -0.332720E-08  0.177E-04    2.62      83.2  T
   5    -87.1752674 -0.363599E-09  0.556E-05    2.62     265.4  T
     SCC iter.                  ...        0 min,  0.031 sec
     gradient                   ...        0 min,  0.070 sec
 * total energy  :   -86.3422021 Eh     change       -0.1203243E-04 Eh
   gradient norm :     0.0023137 Eh/α   predicted    -0.1033945E-04 ( -14.07%)
   displ. norm   :     0.0711718 α      lambda       -0.2374300E-04
   maximum displ.:     0.0364832 α      in ANC's #3, #7, #22, ...

........................................................................
.............................. CYCLE   35 ..............................
........................................................................
   1    -87.1766418 -0.871766E+02  0.391E-03    2.62       0.0  T
   2    -87.1766424 -0.561678E-06  0.176E-03    2.62       8.4  T
   3    -87.1766424 -0.517748E-07  0.965E-04    2.62      15.3  T
   4    -87.1766424 -0.231877E-08  0.286E-04    2.62      51.5  T
   5    -87.1766424 -0.124851E-08  0.661E-05    2.62     223.0  T
   6    -87.1766424 -0.104052E-09  0.180E-05    2.62     819.3  T
     SCC iter.                  ...        0 min,  0.037 sec
     gradient                   ...        0 min,  0.072 sec
 * total energy  :   -86.3422137 Eh     change       -0.1163800E-04 Eh
   gradient norm :     0.0021873 Eh/α   predicted    -0.1197314E-04 (   2.88%)
   displ. norm   :     0.0405441 α      lambda       -0.9885953E-05
   maximum displ.:     0.0193246 α      in ANC's #2, #3, #14, ...

........................................................................
.............................. CYCLE   36 ..............................
........................................................................
   1    -87.1762935 -0.871763E+02  0.163E-03    2.62       0.0  T
   2    -87.1762936 -0.107479E-06  0.696E-04    2.62      21.2  T
   3    -87.1762936 -0.111219E-07  0.332E-04    2.62      44.4  T
   4    -87.1762936 -0.427335E-09  0.124E-04    2.62     118.8  T
   5    -87.1762936 -0.144269E-09  0.346E-05    2.62     426.4  T
     SCC iter.                  ...        0 min,  0.032 sec
     gradient                   ...        0 min,  0.071 sec
 * total energy  :   -86.3422215 Eh     change       -0.7733219E-05 Eh
   gradient norm :     0.0013985 Eh/α   predicted    -0.4973394E-05 ( -35.69%)
   displ. norm   :     0.0817815 α      lambda       -0.1255751E-04
   maximum displ.:     0.0432511 α      in ANC's #3, #2, #18, ...

........................................................................
.............................. CYCLE   37 ..............................
........................................................................
   1    -87.1758362 -0.871758E+02  0.270E-03    2.61       0.0  T
   2    -87.1758365 -0.341394E-06  0.112E-03    2.61      13.2  T
   3    -87.1758365 -0.257342E-07  0.497E-04    2.61      29.7  T
   4    -87.1758365 -0.719538E-09  0.213E-04    2.61      69.3  T
   5    -87.1758366 -0.258979E-09  0.450E-05    2.61     327.3  T
   6    -87.1758366 -0.236327E-10  0.121E-05    2.61    1222.2  T
     SCC iter.                  ...        0 min,  0.038 sec
     gradient                   ...        0 min,  0.067 sec
 * total energy  :   -86.3422313 Eh     change       -0.9816022E-05 Eh
   gradient norm :     0.0017363 Eh/α   predicted    -0.6301982E-05 ( -35.80%)
   displ. norm   :     0.0390965 α      lambda       -0.4487226E-05
   maximum displ.:     0.0219865 α      in ANC's #3, #2, #18, ...

........................................................................
.............................. CYCLE   38 ..............................
........................................................................
   1    -87.1758133 -0.871758E+02  0.138E-03    2.61       0.0  T
   2    -87.1758134 -0.877604E-07  0.560E-04    2.61      26.4  T
   3    -87.1758134 -0.145587E-07  0.257E-04    2.61      57.4  T
   4    -87.1758134 -0.574573E-09  0.113E-04    2.61     131.0  T
   5    -87.1758134 -0.326423E-10  0.192E-05    2.61     766.8  T
     SCC iter.                  ...        0 min,  0.031 sec
     gradient                   ...        0 min,  0.068 sec
 * total energy  :   -86.3422368 Eh     change       -0.5517701E-05 Eh
   gradient norm :     0.0011405 Eh/α   predicted    -0.2253413E-05 ( -59.16%)
   displ. norm   :     0.0794025 α      lambda       -0.7567808E-05
   maximum displ.:     0.0470972 α      in ANC's #2, #3, #18, ...

........................................................................
.............................. CYCLE   39 ..............................
........................................................................
   1    -87.1760810 -0.871761E+02  0.250E-03    2.62       0.0  T
   2    -87.1760812 -0.253837E-06  0.106E-03    2.62      13.9  T
   3    -87.1760813 -0.472507E-07  0.476E-04    2.62      31.0  T
   4    -87.1760813 -0.159415E-08  0.190E-04    2.62      77.6  T
   5    -87.1760813 -0.114028E-09  0.441E-05    2.62     334.1  T
     SCC iter.                  ...        0 min,  0.031 sec
     gradient                   ...        0 min,  0.063 sec
 * total energy  :   -86.3422436 Eh     change       -0.6797188E-05 Eh
   gradient norm :     0.0008844 Eh/α   predicted    -0.3798006E-05 ( -44.12%)
   displ. norm   :     0.0597186 α      lambda       -0.3331137E-05
   maximum displ.:     0.0382368 α      in ANC's #2, #3, #1, ...

........................................................................
.............................. CYCLE   40 ..............................
........................................................................
   1    -87.1758965 -0.871759E+02  0.162E-03    2.62       0.0  T
   2    -87.1758966 -0.803686E-07  0.700E-04    2.62      21.1  T
   3    -87.1758966 -0.856585E-08  0.403E-04    2.62      36.6  T
   4    -87.1758966 -0.834774E-09  0.133E-04    2.62     111.2  T
   5    -87.1758966 -0.258282E-09  0.234E-05    2.62     629.1  T
     SCC iter.                  ...        0 min,  0.030 sec
     gradient                   ...        0 min,  0.066 sec
 * total energy  :   -86.3422463 Eh     change       -0.2686136E-05 Eh
   gradient norm :     0.0010739 Eh/α   predicted    -0.1669195E-05 ( -37.86%)
   displ. norm   :     0.0360825 α      lambda       -0.2464398E-05
   maximum displ.:     0.0240871 α      in ANC's #2, #7, #1, ...

........................................................................
.............................. CYCLE   41 ..............................
........................................................................
   1    -87.1760454 -0.871760E+02  0.918E-04    2.62       0.0  T
   2    -87.1760454 -0.283818E-07  0.380E-04    2.62      38.8  T
   3    -87.1760454 -0.243162E-08  0.204E-04    2.62      72.4  T
   4    -87.1760454 -0.843841E-10  0.534E-05    2.62     275.9  T
   5    -87.1760454 -0.549818E-10  0.144E-05    2.62    1024.1  T
     SCC iter.                  ...        0 min,  0.030 sec
     gradient                   ...        0 min,  0.064 sec
 * total energy  :   -86.3422493 Eh     change       -0.2964090E-05 Eh
   gradient norm :     0.0007597 Eh/α   predicted    -0.1237353E-05 ( -58.26%)
   displ. norm   :     0.0716944 α      lambda       -0.4368488E-05
   maximum displ.:     0.0476292 α      in ANC's #2, #7, #1, ...

   *** GEOMETRY OPTIMIZATION CONVERGED AFTER 41 ITERATIONS ***

------------------------------------------------------------------------
 total energy gain   :        -0.0337047 Eh      -21.1500 kcal/mol
 total RMSD          :         0.8040248 a0        0.4255 Å
 total power (kW/mol):        -2.1583368 (step)  -15.0041 (real)
------------------------------------------------------------------------

 ANCopt (total)                0 d,  0 h,  0 min,  5.898 sec
 optimizer setup                ...        0 min,  0.001 sec (  0.011%)
 model hessian                  ...        0 min,  0.066 sec (  1.112%)
 ANC generation                 ...        0 min,  0.007 sec (  0.114%)
 coordinate transformation      ...        0 min,  0.001 sec (  0.016%)
 single point calculation       ...        0 min,  5.807 sec ( 98.467%)
 optimization log               ...        0 min,  0.008 sec (  0.136%)
 hessian update                 ...        0 min,  0.001 sec (  0.016%)
 rational function              ...        0 min,  0.005 sec (  0.085%)

================
 final structure:
================
46
 xtb: 6.5.1 (579679a)
C           -5.69200317963157        2.03752576838475        1.44691592427647
O           -4.50698334986568        1.92450075574751        0.63011225165424
C           -3.76082121689095        0.84837237397033        0.83270468838175
O           -4.01023392366719        0.00857071132500        1.65879186823812
C           -2.54399073833941        0.83507714669430       -0.04899774296712
C           -2.01069943472726        1.96199234406175       -0.60622363357416
O           -2.51689228417321        3.18064755945578       -0.55473261966151
C           -0.76036744356184        1.88506993267724       -1.36725087288890
O           -0.29346156058750        2.79079218910033       -2.01283179751809
N           -0.10048284718341        0.64008264675887       -1.28206095484088
C            1.14003661353610        0.62871189709641       -2.07836370475690
C           -0.58894696348746       -0.42831470724823       -0.62440870653845
C            0.32477661888369       -1.62721021073710       -0.32056824100655
C            0.32685049308101       -2.63377949982564       -1.48310917071033
C           -0.01022233856786       -2.32832219044999        1.01009943117898
N            1.65035865616637       -1.03815022855654       -0.11118728904378
C            2.81147190353494       -1.75514696387621       -0.15067260132692
O            2.92007663108312       -2.90786834751252       -0.51271919627300
C            3.96493093586848       -0.92546915058879        0.26169557404077
N            5.20750367311182       -1.27580865610990        0.36968735416160
N            5.89471800497541       -0.17156111565879        0.76879257709641
C            5.03121555241793        0.78987803585234        0.87845274580186
C            5.27594069322123        2.19022464234346        1.28428384375326
O            3.78847114400513        0.37999972204084        0.57002056554471
N           -1.84348821993280       -0.37081296755267       -0.17110739190972
C           -2.62973995208157       -1.59882872591125        0.04824696568699
H           -5.40475766037703        2.10637577402027        2.49714699467678
H           -6.19947979590373        2.94244757688208        1.12329888329069
H           -6.32243377565456        1.16100565062634        1.29140299541946
H           -3.36691535891858        3.23423198160860       -0.07982864961061
H            1.40337668893622       -0.38262426642477       -2.35566265727663
H            1.94218075399554        1.09377974866941       -1.50839163067869
H            0.94703497118774        1.21567508742534       -2.97644854206241
H           -0.68194050208901       -2.75570530293687       -1.87077890594963
H            0.68710960390987       -3.59802340675070       -1.13022178072860
H            0.97096568159364       -2.29998451483825       -2.29296822979076
H            0.89545824039012       -2.82853299738768        1.35224260160080
H           -0.31267809212108       -1.60535078549370        1.76416231709705
H           -0.77798162163023       -3.08717882119614        0.89467036017976
H            1.66477520904921       -0.19457827681463        0.43969343042165
H            4.70400447837788        2.41922331525535        2.18341921762279
H            6.33638519313335        2.33844612955529        1.47617534171247
H            4.94617311889936        2.86737553693298        0.49658359711848
H           -2.19220443082431       -2.40848849416142       -0.52357357277845
H           -2.67238442012331       -1.84484142554518        1.10624459071410
H           -3.63471074902229       -1.41342647091572       -0.32274022777560
 
 Bond Distances (Angstroems)
 ---------------------------
C1-O2=1.4437         C1-H27=1.0910        C1-H28=1.0868        C1-H29=1.0908        O2-C1=1.4437         O2-C3=1.3251         
C3-O2=1.3251         C3-O4=1.2041         C3-C5=1.5027         O4-C3=1.2041         C5-C3=1.5027         C5-C6=1.3656         
C5-N25=1.3999        C6-C5=1.3656         C6-O7=1.3206         C6-C8=1.4657         O7-C6=1.3206         O7-H30=0.9752        
C8-C6=1.4657         C8-O9=1.2063         C8-N10=1.4116        O9-C8=1.2063         N10-C8=1.4116        N10-C11=1.4741       
N10-C12=1.3463       C11-N10=1.4741       C11-H31=1.0812       C11-H32=1.0884       C11-H33=1.0901       C12-N10=1.3463       
C12-C13=1.5377       C12-N25=1.3352       C13-C12=1.5377       C13-C14=1.5378       C13-C15=1.5409       C13-N16=1.4656       
C14-C13=1.5378       C14-H34=1.0876       C14-H35=1.0882       C14-H36=1.0873       C15-C13=1.5409       C15-H37=1.0897       
C15-H38=1.0876       C15-H39=1.0857       N16-C13=1.4656       N16-C17=1.3652       N16-H40=1.0076       C17-N16=1.3652       
C17-O18=1.2131       C17-C19=1.4795       O18-C17=1.2131       C19-C17=1.4795       C19-N20=1.2955       C19-O24=1.3529       
N20-C19=1.2955       N20-N21=1.3605       N21-N20=1.3605       N21-C22=1.2969       C22-N21=1.2969       C22-C23=1.4784       
C22-O24=1.3444       C23-C22=1.4784       C23-H41=1.0900       C23-H42=1.0878       C23-H43=1.0898       O24-C19=1.3529       
O24-C22=1.3444       N25-C5=1.3999        N25-C12=1.3352       N25-C26=1.4746       C26-N25=1.4746       C26-H44=1.0835       
C26-H45=1.0871       C26-H46=1.0872       H27-C1=1.0910        H28-C1=1.0868        H29-C1=1.0908        H30-O7=0.9752        
H31-C11=1.0812       H32-C11=1.0884       H33-C11=1.0901       H34-C14=1.0876       H35-C14=1.0882       H36-C14=1.0873       
H37-C15=1.0897       H38-C15=1.0876       H39-C15=1.0857       H40-N16=1.0076       H41-C23=1.0900       H42-C23=1.0878       
H43-C23=1.0898       H44-C26=1.0835       H45-C26=1.0871       H46-C26=1.0872       
 C  H  Rav=1.0878 sigma=0.0024  Rmin=1.0812  Rmax=1.0910    18
 C  C  Rav=1.4885 sigma=0.0543  Rmin=1.3656  Rmax=1.5409     8
 N  H  Rav=1.0076 sigma=0.0000  Rmin=1.0076  Rmax=1.0076     1
 N  C  Rav=1.3865 sigma=0.0660  Rmin=1.2955  Rmax=1.4746    10
 N  N  Rav=1.3605 sigma=0.0000  Rmin=1.3605  Rmax=1.3605     1
 O  H  Rav=0.9752 sigma=0.0000  Rmin=0.9752  Rmax=0.9752     1
 O  C  Rav=1.3013 sigma=0.0806  Rmin=1.2041  Rmax=1.4437     8
 
 selected bond angles (degree)
 --------------------
H27-C1-O2=109.48               H28-C1-O2=106.26               H28-C1-H27=110.92              H29-C1-O2=109.32               
H29-C1-H27=109.88              H29-C1-H28=110.90              C3-O2-C1=116.06                O4-C3-O2=123.69                
C5-C3-O2=111.93                C5-C3-O4=124.34                C6-C5-C3=123.25                N25-C5-C3=117.64               
N25-C5-C6=118.67               O7-C6-C5=126.58                C8-C6-C5=120.11                C8-C6-O7=113.31                
H30-O7-C6=113.82               O9-C8-C6=124.66                N10-C8-C6=114.44               N10-C8-O9=120.90               
C11-N10-C8=111.57              C12-N10-C8=124.04              C12-N10-C11=124.27             
 
 selected dihedral angles (degree)
 ---------------------------------
C3-O2-C1-H27= 62.53           C3-O2-C1-H28=182.38           C3-O2-C1-H29=302.11           O4-C3-O2-C1=358.49            
C5-C3-O2-C1=180.86            C6-C5-C3-O2= 22.36            C6-C5-C3-O4=204.75            N25-C5-C3-O2=194.74           
N25-C5-C3-O4= 17.13           O7-C6-C5-C3=354.25            O7-C6-C5-N25=181.94           C8-C6-C5-C3=175.08            
C8-C6-C5-N25=  2.78           H30-O7-C6-C5=358.52           H30-O7-C6-C8=177.74           O9-C8-C6-C5=171.56            
O9-C8-C6-O7=352.29            N10-C8-C6-C5=350.80           N10-C8-C6-O7=171.53           C11-N10-C8-C6=179.50          
C11-N10-C8-O9=358.78          C12-N10-C8-C6=  3.44          C12-N10-C8-O9=182.71          
           -------------------------------------------------
          |                Final Singlepoint                |
           -------------------------------------------------

          ...................................................
          :                      SETUP                      :
          :.................................................:
          :  # basis functions                 144          :
          :  # atomic orbitals                 144          :
          :  # shells                           92          :
          :  # electrons                       140          :
          :  # halogen bonds                     0          :
          :  max. iterations                   250          :
          :  Hamiltonian                  GFN1-xTB          :
          :  restarted?                      false          :
          :  GBSA solvation                   true          :
          :  PC potential                    false          :
          :  electronic temp.          300.0000000     K    :
          :  accuracy                    1.0000000          :
          :  -> integral cutoff          0.2500000E+02      :
          :  -> integral neglect         0.1000000E-07      :
          :  -> SCF convergence          0.1000000E-05 Eh   :
          :  -> wf. convergence          0.2000000E-04 e    :
          :  Broyden damping             0.4000000          :
          ...................................................

 iter      E             dE          RMSdq      gap      omega  full diag
   1    -87.1760454 -0.871760E+02  0.508E-06    2.62       0.0  T
   2    -87.1760454 -0.227374E-12  0.240E-06    2.62    6137.8  T
   3    -87.1760454 -0.468958E-12  0.127E-06    2.62   11616.4  T

   *** convergence criteria satisfied after 3 iterations ***

         #    Occupation            Energy/Eh            Energy/eV
      -------------------------------------------------------------
         1        2.0000           -0.8881649             -24.1682
       ...           ...                  ...                  ...
        64        2.0000           -0.4984984             -13.5648
        65        2.0000           -0.4905865             -13.3495
        66        2.0000           -0.4812104             -13.0944
        67        2.0000           -0.4771553             -12.9841
        68        2.0000           -0.4740898             -12.9006
        69        2.0000           -0.4622910             -12.5796
        70        2.0000           -0.4617680             -12.5653 (HOMO)
        71                         -0.3655541              -9.9472 (LUMO)
        72                         -0.3610012              -9.8233
        73                         -0.3257302              -8.8636
        74                         -0.2831382              -7.7046
        75                         -0.2653252              -7.2199
       ...                                ...                  ...
       144                          0.7288320              19.8325
      -------------------------------------------------------------
                  HL-Gap            0.0962139 Eh            2.6181 eV
             Fermi-level           -0.4136610 Eh          -11.2563 eV

 SCC (total)                   0 d,  0 h,  0 min,  0.097 sec
 SCC setup                      ...        0 min,  0.002 sec (  1.895%)
 Dispersion                     ...        0 min,  0.000 sec (  0.265%)
 classical contributions        ...        0 min,  0.000 sec (  0.094%)
 integral evaluation            ...        0 min,  0.027 sec ( 28.135%)
 iterations                     ...        0 min,  0.018 sec ( 18.562%)
 molecular gradient             ...        0 min,  0.049 sec ( 50.315%)
 printout                       ...        0 min,  0.001 sec (  0.720%)

         :::::::::::::::::::::::::::::::::::::::::::::::::::::
         ::                     SUMMARY                     ::
         :::::::::::::::::::::::::::::::::::::::::::::::::::::
         :: total energy             -86.342249262690 Eh    ::
         :: total w/o Gsasa/hb       -86.319090901791 Eh    ::
         :: gradient norm              0.000760124809 Eh/a0 ::
         :: HOMO-LUMO gap              2.618113738963 eV    ::
         ::.................................................::
         :: SCC energy               -87.176045417752 Eh    ::
         :: -> electrostatic           0.415459187926 Eh    ::
         :: -> Gsolv                  -0.119156229595 Eh    ::
         ::    -> Gelec               -0.095997868696 Eh    ::
         ::    -> Gsasa               -0.024221281643 Eh    ::
         ::    -> Ghb                 -0.006561358260 Eh    ::
         ::    -> Gshift               0.007624279005 Eh    ::
         :: repulsion energy           0.864617366613 Eh    ::
         :: dispersion energy         -0.030821211550 Eh    ::
         :: halogen bond corr.         0.000000000000 Eh    ::
         :: add. restraining           0.000000000000 Eh    ::
         :: total charge               1.000000000000 e     ::
         :::::::::::::::::::::::::::::::::::::::::::::::::::::

           -------------------------------------------------
          |                Property Printout                |
           -------------------------------------------------

    * Orbital Energies and Occupations

         #    Occupation            Energy/Eh            Energy/eV
      -------------------------------------------------------------
         1        2.0000           -0.8881649             -24.1682
       ...           ...                  ...                  ...
        58        2.0000           -0.5302483             -14.4288
        59        2.0000           -0.5266953             -14.3321
        60        2.0000           -0.5210150             -14.1775
        61        2.0000           -0.5203052             -14.1582
        62        2.0000           -0.5153180             -14.0225
        63        2.0000           -0.5143120             -13.9951
        64        2.0000           -0.4984984             -13.5648
        65        2.0000           -0.4905865             -13.3495
        66        2.0000           -0.4812104             -13.0944
        67        2.0000           -0.4771553             -12.9841
        68        2.0000           -0.4740898             -12.9006
        69        2.0000           -0.4622910             -12.5796
        70        2.0000           -0.4617680             -12.5653 (HOMO)
        71                         -0.3655541              -9.9472 (LUMO)
        72                         -0.3610012              -9.8233
        73                         -0.3257302              -8.8636
        74                         -0.2831382              -7.7046
        75                         -0.2653252              -7.2199
        76                         -0.2180381              -5.9331
        77                         -0.2128992              -5.7933
        78                         -0.1633299              -4.4444
        79                         -0.1559984              -4.2449
        80                         -0.1489645              -4.0535
        81                         -0.1483707              -4.0374
       ...                                ...                  ...
       144                          0.7288320              19.8325
      -------------------------------------------------------------
                  HL-Gap            0.0962139 Eh            2.6181 eV
             Fermi-level           -0.4136610 Eh          -11.2563 eV

  Mulliken/CM5 charges         n(s)   n(p)   n(d)
     1C     0.15810  0.03580   0.991  2.851  0.000
     2O    -0.41126 -0.51242   1.689  4.722  0.000
     3C     0.58920  0.65327   0.959  2.451  0.000
     4O    -0.52500 -0.58072   1.719  4.806  0.000
     5C     0.04008  0.10943   1.052  2.908  0.000
     6C     0.26699  0.30244   1.018  2.715  0.000
     7O    -0.47462 -0.66803   1.683  4.792  0.000
     8C     0.46814  0.56931   0.990  2.542  0.000
     9O    -0.50378 -0.54999   1.718  4.786  0.000
    10N    -0.18742 -0.43683   1.455  3.732  0.000
    11C     0.04607 -0.04166   1.003  2.951  0.000
    12C     0.27768  0.42497   1.041  2.681  0.000
    13C     0.15313  0.19070   1.074  2.773  0.000
    14C    -0.10165 -0.24345   1.024  3.078  0.000
    15C    -0.11805 -0.25911   1.030  3.088  0.000
    16N    -0.36597 -0.73080   1.442  3.924  0.000
    17C     0.47951  0.58481   0.979  2.541  0.000
    18O    -0.55181 -0.59779   1.723  4.829  0.000
    19C     0.32968  0.45540   1.004  2.666  0.000
    20N    -0.20801 -0.31218   1.564  3.644  0.000
    21N    -0.25863 -0.36634   1.562  3.697  0.000
    22C     0.39522  0.50367   1.010  2.595  0.000
    23C    -0.11226 -0.24960   1.013  3.099  0.000
    24O    -0.36118 -0.42026   1.698  4.663  0.000
    25N    -0.14316 -0.39950   1.447  3.696  0.000
    26C     0.03680 -0.05552   1.007  2.956  0.000
    27H     0.07061  0.13235   0.929  0.000  0.000
    28H     0.07267  0.13303   0.927  0.000  0.000
    29H     0.07096  0.13314   0.929  0.000  0.000
    30H     0.42621  0.61419   0.574  0.000  0.000
    31H     0.07162  0.14393   0.928  0.000  0.000
    32H     0.08427  0.15328   0.916  0.000  0.000
    33H     0.09845  0.16914   0.902  0.000  0.000
    34H     0.05388  0.10927   0.946  0.000  0.000
    35H     0.08299  0.14249   0.917  0.000  0.000
    36H     0.06879  0.12832   0.931  0.000  0.000
    37H     0.08231  0.14310   0.918  0.000  0.000
    38H     0.06066  0.11889   0.939  0.000  0.000
    39H     0.06418  0.12013   0.936  0.000  0.000
    40H     0.27074  0.48198   0.729  0.000  0.000
    41H     0.08313  0.13765   0.917  0.000  0.000
    42H     0.07410  0.12978   0.926  0.000  0.000
    43H     0.08182  0.13639   0.918  0.000  0.000
    44H     0.07353  0.13946   0.926  0.000  0.000
    45H     0.09709  0.16502   0.903  0.000  0.000
    46H     0.09419  0.16288   0.906  0.000  0.000

Wiberg/Mayer (AO) data.
largest (>0.10) Wiberg bond orders for each atom

 ---------------------------------------------------------------------------
     #   Z sym  total        # sym  WBO       # sym  WBO       # sym  WBO
 ---------------------------------------------------------------------------
     1   6 C    3.836 --    28 H    0.984    29 H    0.978    27 H    0.978
                             2 O    0.862
     2   8 O    2.230 --     3 C    1.130     1 C    0.862     4 O    0.138
     3   6 C    3.864 --     4 O    1.671     2 O    1.130     5 C    0.987
     4   8 O    1.968 --     3 C    1.671     2 O    0.138
     5   6 C    3.918 --     6 C    1.518    25 N    1.073     3 C    0.987
                             7 O    0.106
     6   6 C    3.927 --     5 C    1.518     7 O    1.156     8 C    1.036
     7   8 O    2.129 --     6 C    1.156    30 H    0.778     5 C    0.106
     8   6 C    3.903 --     9 O    1.675    10 N    1.049     6 C    1.036
     9   8 O    1.975 --     8 C    1.675    10 N    0.117
    10   7 N    3.531 --    12 C    1.302     8 C    1.049    11 C    0.905
                             9 O    0.117
    11   6 C    3.889 --    31 H    0.977    32 H    0.971    33 H    0.966
                            10 N    0.905
    12   6 C    3.898 --    25 N    1.367    10 N    1.302    13 C    0.970
    13   6 C    3.927 --    15 C    0.980    14 C    0.974    12 C    0.970
                            16 N    0.938
    14   6 C    3.979 --    34 H    0.979    35 H    0.975    13 C    0.974
                            36 H    0.973
    15   6 C    3.981 --    38 H    0.983    13 C    0.980    39 H    0.979
                            37 H    0.976
    16   7 N    3.301 --    17 C    1.196    13 C    0.938    40 H    0.891
                            18 O    0.164
    17   6 C    3.908 --    18 O    1.623    16 N    1.196    19 C    1.000
    18   8 O    1.931 --    17 C    1.623    16 N    0.164
    19   6 C    3.875 --    20 N    1.620    24 O    1.042    17 C    1.000
    20   7 N    3.005 --    19 C    1.620    21 N    1.204
    21   7 N    2.984 --    22 C    1.606    20 N    1.204
    22   6 C    3.865 --    21 N    1.606    24 O    1.069    23 C    1.033
    23   6 C    3.985 --    22 C    1.033    42 H    0.982    43 H    0.962
                            41 H    0.961
    24   8 O    2.314 --    22 C    1.069    19 C    1.042
    25   7 N    3.555 --    12 C    1.367     5 C    1.073    26 C    0.899
    26   6 C    3.888 --    44 H    0.977    46 H    0.971    45 H    0.967
                            25 N    0.899
    27   1 H    1.002 --     1 C    0.978
    28   1 H    1.005 --     1 C    0.984
    29   1 H    1.002 --     1 C    0.978
    30   1 H    0.830 --     7 O    0.778
    31   1 H    1.006 --    11 C    0.977
    32   1 H    1.002 --    11 C    0.971
    33   1 H    0.999 --    11 C    0.966
    34   1 H    1.000 --    14 C    0.979
    35   1 H    1.007 --    14 C    0.975
    36   1 H    1.002 --    14 C    0.973
    37   1 H    0.997 --    15 C    0.976
    38   1 H    0.995 --    15 C    0.983
    39   1 H    0.999 --    15 C    0.979
    40   1 H    0.933 --    16 N    0.891
    41   1 H    0.996 --    23 C    0.961
    42   1 H    0.997 --    23 C    0.982
    43   1 H    0.996 --    23 C    0.962
    44   1 H    1.001 --    26 C    0.977
    45   1 H    1.006 --    26 C    0.967
    46   1 H    0.996 --    26 C    0.971
 ---------------------------------------------------------------------------

Topologies differ in total number of bonds
Writing topology from bond orders to xtbtopo.mol

 dipole moment from electron density (au)
     X       Y       Z   
  -4.9147   1.8760   0.7416  total (Debye):   13.503

           -------------------------------------------------
          |                Geometry Summary                 |
           -------------------------------------------------

      molecular mass/u    :      366.3497991
   center of mass at/Å    :        0.2208759       0.1377713      -0.0517158
  moments of inertia/u·Å² :        0.1368804E+04   0.4495887E+04   0.5065447E+04
rotational constants/cm⁻¹ :        0.1231559E-01   0.3749568E-02   0.3327966E-02

 * 41 selected distances

     #   Z          #   Z                                           value/Å
     1   6 C        2   8 O                                       1.4436812
     2   8 O        3   6 C                                       1.3250865
     3   6 C        4   8 O                                       1.2041154
     5   6 C        6   6 C                                       1.3655909
     6   6 C        7   8 O                                       1.3206072
     8   6 C        9   8 O                                       1.2062790
     8   6 C       10   7 N                                       1.4116298
    10   7 N       11   6 C                                       1.4741493
    10   7 N       12   6 C                                       1.3463198
    13   6 C       14   6 C                                       1.5377542 (max)
    13   6 C       16   7 N                                       1.4656057
    16   7 N       17   6 C                                       1.3652208
    17   6 C       18   8 O                                       1.2131115
    19   6 C       20   7 N                                       1.2955259
    21   7 N       22   6 C                                       1.2969300
    22   6 C       23   6 C                                       1.4783641
    19   6 C       24   8 O                                       1.3529419
    22   6 C       24   8 O                                       1.3444496
     5   6 C       25   7 N                                       1.3999235
    12   6 C       25   7 N                                       1.3351639
    25   7 N       26   6 C                                       1.4745614
     1   6 C       27   1 H                                       1.0909793
     1   6 C       28   1 H                                       1.0868046
     1   6 C       29   1 H                                       1.0908321
     7   8 O       30   1 H                                       0.9751638 (min)
    11   6 C       31   1 H                                       1.0812233
    11   6 C       32   1 H                                       1.0883895
    11   6 C       33   1 H                                       1.0901064
    14   6 C       34   1 H                                       1.0875722
    14   6 C       35   1 H                                       1.0881556
    14   6 C       36   1 H                                       1.0872789
    15   6 C       37   1 H                                       1.0897387
    15   6 C       38   1 H                                       1.0875561
    15   6 C       39   1 H                                       1.0856527
    16   7 N       40   1 H                                       1.0076166
    23   6 C       41   1 H                                       1.0899523
    23   6 C       42   1 H                                       1.0878119
    23   6 C       43   1 H                                       1.0898403
    26   6 C       44   1 H                                       1.0834968
    26   6 C       45   1 H                                       1.0870603
    26   6 C       46   1 H                                       1.0871854

 * 6 distinct bonds (by element types)

   Z      Z             #   av. dist./Å        max./Å        min./Å
   1 H    6 C          18     1.0877576     1.0909793     1.0812233
   6 C    6 C           3     1.4605697     1.5377542     1.3655909
   1 H    7 N           1     1.0076166     1.0076166     1.0076166
   6 C    7 N          10     1.3865030     1.4745614     1.2955259
   1 H    8 O           1     0.9751638     0.9751638     0.9751638
   6 C    8 O           8     1.3012840     1.4436812     1.2041154


optimized geometry written to: xtbopt.xyz


           -------------------------------------------------
          | TOTAL ENERGY              -86.342249262690 Eh   |
          | GRADIENT NORM               0.000760124809 Eh/α |
          | HOMO-LUMO GAP               2.618113738963 eV   |
           -------------------------------------------------

------------------------------------------------------------------------
 * finished run on 2023/06/20 at 15:40:22.076     
------------------------------------------------------------------------
 total:
 * wall-time:     0 d,  0 h,  0 min,  6.256 sec
 *  cpu-time:     0 d,  0 h,  0 min,  6.190 sec
 * ratio c/w:     0.989 speedup
 SCF:
 * wall-time:     0 d,  0 h,  0 min,  0.157 sec
 *  cpu-time:     0 d,  0 h,  0 min,  0.157 sec
 * ratio c/w:     0.998 speedup
 ANC optimizer:
 * wall-time:     0 d,  0 h,  0 min,  6.007 sec
 *  cpu-time:     0 d,  0 h,  0 min,  5.992 sec
 * ratio c/w:     0.997 speedup

