      -----------------------------------------------------------      
     |                   =====================                   |     
     |                           x T B                           |     
     |                   =====================                   |     
     |                         S. Grimme                         |     
     |          Mulliken Center for Theoretical Chemistry        |     
     |                    University of Bonn                     |     
      -----------------------------------------------------------      

   * xtb version 6.5.1 (579679a) compiled by 'ehlert@majestix' on 2022-07-11

   xtb is free software: you can redistribute it and/or modify it under
   the terms of the GNU Lesser General Public License as published by
   the Free Software Foundation, either version 3 of the License, or
   (at your option) any later version.
   
   xtb is distributed in the hope that it will be useful,
   but WITHOUT ANY WARRANTY; without even the implied warranty of
   MERCHANTABILITY or FITNESS FOR A PARTICULAR PURPOSE.  See the
   GNU Lesser General Public License for more details.
   
   Cite this work as:
   * C. Bannwarth, E. Caldeweyher, S. Ehlert, A. Hansen, P. Pracht,
     J. Seibert, S. Spicher, S. Grimme, WIREs Comput. Mol. Sci., 2020, 11,
     e01493. DOI: 10.1002/wcms.1493
   
   for GFN2-xTB:
   * C. Bannwarth, S. Ehlert and S. Grimme., J. Chem. Theory Comput., 2019,
     15, 1652-1671. DOI: 10.1021/acs.jctc.8b01176
   for GFN1-xTB:
   * S. Grimme, C. Bannwarth, P. Shushkov, J. Chem. Theory Comput., 2017,
     13, 1989-2009. DOI: 10.1021/acs.jctc.7b00118
   for GFN0-xTB:
   * P. Pracht, E. Caldeweyher, S. Ehlert, S. Grimme, ChemRxiv, 2019, preprint.
     DOI: 10.26434/chemrxiv.8326202.v1
   for GFN-FF:
   * S. Spicher and S. Grimme, Angew. Chem. Int. Ed., 2020, 59, 15665-15673.
     DOI: 10.1002/anie.202004239
   
   for ALPB and GBSA implicit solvation:
   * S. Ehlert, M. Stahn, S. Spicher, S. Grimme, J. Chem. Theory Comput.,
     2021, 17, 4250-4261. DOI: 10.1021/acs.jctc.1c00471
   
   for DFT-D4:
   * E. Caldeweyher, C. Bannwarth and S. Grimme, J. Chem. Phys., 2017,
     147, 034112. DOI: 10.1063/1.4993215
   * E. Caldeweyher, S. Ehlert, A. Hansen, H. Neugebauer, S. Spicher,
     C. Bannwarth and S. Grimme, J. Chem. Phys., 2019, 150, 154122.
     DOI: 10.1063/1.5090222
   * E. Caldeweyher, J.-M. Mewes, S. Ehlert and S. Grimme, Phys. Chem. Chem. Phys.
     2020, 22, 8499-8512. DOI: 10.1039/D0CP00502A
   
   for sTDA-xTB:
   * S. Grimme and C. Bannwarth, J. Chem. Phys., 2016, 145, 054103.
     DOI: 10.1063/1.4959605
   
   in the mass-spec context:
   * V. Asgeirsson, C. Bauer and S. Grimme, Chem. Sci., 2017, 8, 4879.
     DOI: 10.1039/c7sc00601b
   * J. Koopman and S. Grimme, ACS Omega 2019, 4, 12, 15120-15133.
     DOI: 10.1021/acsomega.9b02011
   
   for metadynamics refer to:
   * S. Grimme, J. Chem. Theory Comput., 2019, 155, 2847-2862
     DOI: 10.1021/acs.jctc.9b00143
   
   for SPH calculations refer to:
   * S. Spicher and S. Grimme, J. Chem. Theory Comput., 2021, 17, 1701-1714
     DOI: 10.1021/acs.jctc.0c01306
   
   with help from (in alphabetical order)
   P. Atkinson, C. Bannwarth, F. Bohle, G. Brandenburg, E. Caldeweyher
   M. Checinski, S. Dohm, S. Ehlert, S. Ehrlich, I. Gerasimov, C. Hölzer
   A. Katbashev, J. Koopman, C. Lavigne, S. Lehtola, F. März, M. Müller,
   F. Musil, H. Neugebauer, J. Pisarek, C. Plett, P. Pracht, F. Pultar,
   J. Seibert, P. Shushkov, S. Spicher, M. Stahn, M. Steiner, T. Strunk,
   J. Stückrath, T. Rose, and J. Unsleber
   
 * started run on 2023/06/21 at 17:10:38.653     

           -------------------------------------------------
          |                Calculation Setup                |
           -------------------------------------------------

          program call               : /lustre/hpc/kemi/ree/PhD/git/ReactivityQM/dep/xtb-6.5.1/bin/xtb --gfn 1 /lustre/hpc/kemi/ree/PhD/git/ReactivityQM/calculations/R02oxygendeprot/reac01prodE09/conf16/R02oxygendeprot_reac01prodE09_conf16_gfn1.xyz --opt --vfukui --chrg -2 --uhf 0 --alpb DMSO
          hostname                   : node070
          coordinate file            : /lustre/hpc/kemi/ree/PhD/git/ReactivityQM/calculations/R02oxygendeprot/reac01prodE09/conf16/R02oxygendeprot_reac01prodE09_conf16_gfn1.xyz
          omp threads                :                     1

   ID    Z sym.   atoms
    1    6 C      1, 3, 5, 7-10, 12, 14, 16, 17, 20, 22, 24
    2    8 O      2, 4, 13, 15, 23, 25
    3    7 N      6, 11, 18, 19, 21
    4    1 H      26-42

           -------------------------------------------------
          |                 G F N 1 - x T B                 |
           -------------------------------------------------

        Reference                      10.1021/acs.jctc.7b00118
      * Hamiltonian:
        H0-scaling (s, p, d)           1.850000    2.250000    2.000000
        zeta-weighting                 0.000000
      * Dispersion:
        s8                             2.400000
        a1                             0.630000
        a2                             5.000000
        s9                             0.000000
      * Repulsion:
        kExp                           1.500000
        rExp                           1.000000
      * Coulomb:
        alpha                          2.000000
        third order                    atomic
        anisotropic                    false
      * Halogen bond correction:
        rad-scale                      1.300000
        damping                        0.440000

      * Solvation model:               ALPB
        Solvent                        DMSO
        Parameter file                 internal GFN1-xTB/ALPB
        Dielectric constant                4.6680E+01
        Reference state                gsolv [1 M gas/solution]
        Free energy shift                  7.6243E-03 Eh       4.7843E+00 kcal/mol
        Temperature                        2.9815E+02 K
        Density                            1.1000E+00 kg/L
        Solvent mass                       7.8130E+01 g/mol
        Interaction kernel             P16
        Born radius scaling (c1)           1.7672E+00
        Born radii integrator          GBOBC
        Born offset                        0.0000E+00 a0       0.0000E+00 AA
        H-bond correction              true
        Ion screening                  false
        Surface tension                    1.0000E-05 Eh       1.5569E+01 dyn/cm
        Grid points                               230 per atom

          ...................................................
          :                      SETUP                      :
          :.................................................:
          :  # basis functions                 134          :
          :  # atomic orbitals                 134          :
          :  # shells                           84          :
          :  # electrons                       136          :
          :  # halogen bonds                     0          :
          :  max. iterations                   250          :
          :  Hamiltonian                  GFN1-xTB          :
          :  restarted?                      false          :
          :  GBSA solvation                   true          :
          :  PC potential                    false          :
          :  electronic temp.          300.0000000     K    :
          :  accuracy                    1.0000000          :
          :  -> integral cutoff          0.2500000E+02      :
          :  -> integral neglect         0.1000000E-07      :
          :  -> SCF convergence          0.1000000E-05 Eh   :
          :  -> wf. convergence          0.2000000E-04 e    :
          :  Broyden damping             0.4000000          :
          ...................................................

 iter      E             dE          RMSdq      gap      omega  full diag
   1    -84.0350756 -0.840351E+02  0.876E+00    0.19       0.0  T
   2    -83.9202671  0.114809E+00  0.546E+00    0.35       1.0  T
   3    -81.2731100  0.264716E+01  0.506E+00    0.25       1.0  T
   4    -84.2034261 -0.293032E+01  0.190E+00    1.33       1.0  T
   5    -84.3142565 -0.110830E+00  0.715E-01    1.34       1.0  T
   6    -84.3286928 -0.144362E-01  0.386E-01    0.88       1.0  T
   7    -84.3316273 -0.293458E-02  0.246E-01    0.42       1.0  T
   8    -84.3358430 -0.421568E-02  0.108E-01    0.16       1.0  T
   9    -84.3332909  0.255213E-02  0.172E-01    0.08       1.0  T
  10    -84.3331888  0.102072E-03  0.177E-01    0.27       1.0  T
  11    -84.3366643 -0.347543E-02  0.461E-02    0.14       1.0  T
  12    -84.3369540 -0.289793E-03  0.449E-03    0.12       3.4  T
  13    -84.3368792  0.748360E-04  0.234E-02    0.13       1.0  T
  14    -84.3368521  0.271257E-04  0.271E-02    0.11       1.0  T
  15    -84.3369544 -0.102294E-03  0.314E-04    0.12      49.1  T
  16    -84.3369541  0.290556E-06  0.151E-03    0.12      10.2  T
  17    -84.3369544 -0.294511E-06  0.687E-05    0.12     224.7  T
  18    -84.3369544  0.230877E-08  0.132E-04    0.12     117.1  T

   *** convergence criteria satisfied after 18 iterations ***

         #    Occupation            Energy/Eh            Energy/eV
      -------------------------------------------------------------
         1        2.0000           -0.7835640             -21.3219
       ...           ...                  ...                  ...
        62        2.0000           -0.3944535             -10.7336
        63        2.0000           -0.3817716             -10.3885
        64        2.0000           -0.3718886             -10.1196
        65        2.0000           -0.3602506              -9.8029
        66        2.0000           -0.3527374              -9.5985
        67        2.0000           -0.3390199              -9.2252
        68        1.8248           -0.2530272              -6.8852 (HOMO)
        69        0.1752           -0.2485744              -6.7641 (LUMO)
        70                         -0.2168928              -5.9020
        71                         -0.2154193              -5.8619
        72                         -0.1743841              -4.7452
        73                         -0.1234655              -3.3597
       ...                                ...                  ...
       134                          0.7983451              21.7241
      -------------------------------------------------------------
                  HL-Gap            0.0044528 Eh            0.1212 eV
             Fermi-level           -0.2508008 Eh           -6.8246 eV

 SCC (total)                   0 d,  0 h,  0 min,  0.154 sec
 SCC setup                      ...        0 min,  0.002 sec (  1.140%)
 Dispersion                     ...        0 min,  0.000 sec (  0.181%)
 classical contributions        ...        0 min,  0.000 sec (  0.060%)
 integral evaluation            ...        0 min,  0.019 sec ( 12.253%)
 iterations                     ...        0 min,  0.074 sec ( 48.070%)
 molecular gradient             ...        0 min,  0.058 sec ( 37.491%)
 printout                       ...        0 min,  0.001 sec (  0.793%)

         :::::::::::::::::::::::::::::::::::::::::::::::::::::
         ::                     SUMMARY                     ::
         :::::::::::::::::::::::::::::::::::::::::::::::::::::
         :: total energy             -83.597777363103 Eh    ::
         :: total w/o Gsasa/hb       -83.577151883598 Eh    ::
         :: gradient norm              0.156402408771 Eh/a0 ::
         :: HOMO-LUMO gap              0.121166549381 eV    ::
         ::.................................................::
         :: SCC energy               -84.336954380115 Eh    ::
         :: -> electrostatic           0.680137612314 Eh    ::
         :: -> Gsolv                  -0.265271865671 Eh    ::
         ::    -> Gelec               -0.244646386165 Eh    ::
         ::    -> Gsasa               -0.025208325281 Eh    ::
         ::    -> Ghb                 -0.003041433229 Eh    ::
         ::    -> Gshift               0.007624279005 Eh    ::
         :: repulsion energy           0.764219712638 Eh    ::
         :: dispersion energy         -0.025042695626 Eh    ::
         :: halogen bond corr.         0.000000000000 Eh    ::
         :: add. restraining           0.000000000000 Eh    ::
         :: total charge              -2.000000000000 e     ::
         :::::::::::::::::::::::::::::::::::::::::::::::::::::

      ----------------------------------------------------------- 
     |                   =====================                   |
     |                        A N C O P T                        |
     |                   =====================                   |
     |               Approximate Normal Coordinate               |
     |                Rational Function Optimizer                |
      ----------------------------------------------------------- 

          ...................................................
          :                      SETUP                      :
          :.................................................:
          :   optimization level            normal          :
          :   max. optcycles                   200          :
          :   ANC micro-cycles                  20          :
          :   degrees of freedom               120          :
          :.................................................:
          :   RF solver                   davidson          :
          :   write xtbopt.log                true          :
          :   linear?                        false          :
          :   energy convergence         0.5000000E-05 Eh   :
          :   grad. convergence          0.1000000E-02 Eh/α :
          :   maximium RF displ.         1.0000000          :
          :   Hlow (freq-cutoff)         0.1000000E-01      :
          :   Hmax (freq-cutoff)         5.0000000          :
          :   S6 in model hess.         20.0000000          :
          ...................................................

generating ANC from model Hessian ...
Using Lindh-Hessian (1995)
 Shifting diagonal of input Hessian by   9.823417070492470E-003
 Lowest  eigenvalues of input Hessian
    0.000000    0.000000    0.000000    0.000000    0.000000    0.000000
    0.010000    0.010162    0.010244    0.010860    0.011870    0.012278
    0.012650    0.014034    0.014375    0.015725    0.015851    0.016071
 Highest eigenvalues
    2.026028    2.063037    2.180122    2.229230    2.290350    2.390628
 

........................................................................
.............................. CYCLE    1 ..............................
........................................................................
   1    -84.3369544 -0.843370E+02  0.865E-05    0.12       0.0  T
   2    -84.3369543  0.548098E-07  0.629E-04    0.12      24.5  T
   3    -84.3369544 -0.558701E-07  0.167E-06    0.12    9257.1  T
   4    -84.3369544  0.170530E-12  0.210E-06    0.12    7355.8  T
     SCC iter.                  ...        0 min,  0.021 sec
     gradient                   ...        0 min,  0.048 sec
 * total energy  :   -83.5977774 Eh     change       -0.2516572E-08 Eh
   gradient norm :     0.1563887 Eh/α   predicted     0.0000000E+00 (-100.00%)
   displ. norm   :     0.2355642 α      lambda       -0.1972157E-01
   maximum displ.:     0.0666432 α      in ANC's #25, #55, #30, ...

........................................................................
.............................. CYCLE    2 ..............................
........................................................................
   1    -84.3446962 -0.843447E+02  0.165E-01    0.38       0.0  T
   2    -84.2327940  0.111902E+00  0.884E-01    0.01       1.0  T
   3    -84.3452415 -0.112448E+00  0.136E-01    0.32       1.0  T
   4    -84.3456459 -0.404374E-03  0.112E-01    0.28       1.0  T
   5    -84.3464396 -0.793749E-03  0.736E-02    0.21       1.0  T
   6    -84.3470774 -0.637724E-03  0.253E-02    0.16       1.0  T
   7    -84.3471597 -0.823763E-04  0.202E-03    0.15       7.6  T
   8    -84.3471586  0.116391E-05  0.318E-03    0.15       4.9  T
   9    -84.3471592 -0.642089E-06  0.204E-03    0.15       7.6  T
  10    -84.3471598 -0.532999E-06  0.503E-04    0.15      30.7  T
  11    -84.3471598 -0.281180E-07  0.192E-04    0.15      80.4  T
  12    -84.3471598 -0.482828E-08  0.950E-06    0.15    1624.8  T
     SCC iter.                  ...        0 min,  0.064 sec
     gradient                   ...        0 min,  0.056 sec
 * total energy  :   -83.6119224 Eh     change       -0.1414506E-01 Eh
   gradient norm :     0.0704333 Eh/α   predicted    -0.1041245E-01 ( -26.39%)
   displ. norm   :     0.2862543 α      lambda       -0.8823403E-02
   maximum displ.:     0.0845429 α      in ANC's #25, #30, #7, ...

........................................................................
.............................. CYCLE    3 ..............................
........................................................................
   1    -84.3579280 -0.843579E+02  0.125E-01    0.46       0.0  T
   2    -84.3587023 -0.774353E-03  0.587E-02    0.22       1.0  T
   3    -84.3588465 -0.144164E-03  0.231E-02    0.21       1.0  T
   4    -84.3588518 -0.528449E-05  0.130E-02    0.20       1.2  T
   5    -84.3588496  0.219764E-05  0.639E-03    0.21       2.4  T
   6    -84.3588470  0.258129E-05  0.729E-03    0.20       2.1  T
   7    -84.3588527 -0.573822E-05  0.952E-04    0.21      16.2  T
   8    -84.3588528 -0.582050E-07  0.579E-04    0.20      26.7  T
   9    -84.3588528 -0.308048E-07  0.176E-04    0.21      87.5  T
  10    -84.3588528 -0.355853E-08  0.569E-05    0.21     271.0  T
     SCC iter.                  ...        0 min,  0.052 sec
     gradient                   ...        0 min,  0.057 sec
 * total energy  :   -83.6171948 Eh     change       -0.5272379E-02 Eh
   gradient norm :     0.0262355 Eh/α   predicted    -0.4775251E-02 (  -9.43%)
   displ. norm   :     0.2857621 α      lambda        0.3812157E-02
   maximum displ.:     0.0844589 α      in ANC's #25, #30, #7, ...

........................................................................
.............................. CYCLE    4 ..............................
........................................................................
   1    -84.3636178 -0.843636E+02  0.102E-01    0.51       0.0  T
   2    -84.3638990 -0.281221E-03  0.483E-02    0.44       1.0  T
   3    -84.3639669 -0.679000E-04  0.228E-02    0.42       1.0  T
   4    -84.3639694 -0.250526E-05  0.751E-03    0.39       2.1  T
   5    -84.3639697 -0.252491E-06  0.169E-03    0.39       9.1  T
   6    -84.3639698 -0.100776E-06  0.669E-04    0.39      23.0  T
   7    -84.3639698 -0.113865E-07  0.144E-04    0.39     107.0  T
   8    -84.3639698 -0.353097E-09  0.488E-05    0.39     316.3  T
     SCC iter.                  ...        0 min,  0.043 sec
     gradient                   ...        0 min,  0.056 sec
 * total energy  :   -83.6146239 Eh     change        0.2570867E-02 Eh
   gradient norm :     0.0983412 Eh/α   predicted     0.2061725E-02 ( -19.80%)
   displ. norm   :     0.1506622 α      lambda       -0.7399446E-02
   maximum displ.:     0.0464750 α      in ANC's #11, #30, #25, ...

........................................................................
.............................. CYCLE    5 ..............................
........................................................................
   1    -84.3602180 -0.843602E+02  0.749E-02    0.22       0.0  T
   2    -84.3603940 -0.176043E-03  0.313E-02    0.26       1.0  T
   3    -84.3604245 -0.305375E-04  0.157E-02    0.25       1.0  T
   4    -84.3604253 -0.735670E-06  0.565E-03    0.25       2.7  T
   5    -84.3604255 -0.178946E-06  0.136E-03    0.25      11.4  T
   6    -84.3604255 -0.595326E-07  0.236E-04    0.25      65.5  T
   7    -84.3604255 -0.106188E-08  0.872E-05    0.25     176.9  T
   8    -84.3604255 -0.200401E-09  0.288E-05    0.25     536.2  T
     SCC iter.                  ...        0 min,  0.043 sec
     gradient                   ...        0 min,  0.056 sec
 * total energy  :   -83.6190090 Eh     change       -0.4385087E-02 Eh
   gradient norm :     0.0274440 Eh/α   predicted    -0.3783757E-02 ( -13.71%)
   displ. norm   :     0.2571504 α      lambda       -0.2254340E-02
   maximum displ.:     0.1471715 α      in ANC's #11, #27, #6, ...

........................................................................
.............................. CYCLE    6 ..............................
........................................................................
   1    -84.3606245 -0.843606E+02  0.503E-02    0.30       0.0  T
   2    -84.3607293 -0.104755E-03  0.347E-02    0.26       1.0  T
   3    -84.3607681 -0.388443E-04  0.120E-02    0.27       1.3  T
   4    -84.3607682 -0.599684E-07  0.421E-03    0.27       3.7  T
   5    -84.3607683 -0.841831E-07  0.776E-04    0.27      19.9  T
   6    -84.3607683 -0.262181E-07  0.192E-04    0.27      80.3  T
   7    -84.3607683 -0.699856E-09  0.875E-05    0.27     176.3  T
     SCC iter.                  ...        0 min,  0.037 sec
     gradient                   ...        0 min,  0.056 sec
 * total energy  :   -83.6211343 Eh     change       -0.2125313E-02 Eh
   gradient norm :     0.0199829 Eh/α   predicted    -0.1201709E-02 ( -43.46%)
   displ. norm   :     0.8320032 α      lambda       -0.7716631E-02
   maximum displ.:     0.4710378 α      in ANC's #11, #27, #29, ...

........................................................................
.............................. CYCLE    7 ..............................
........................................................................
   1    -84.3518665 -0.843519E+02  0.264E-01    0.65       0.0  T
   2    -84.3544922 -0.262570E-02  0.172E-01    0.59       1.0  T
   3    -84.3551853 -0.693041E-03  0.762E-02    0.61       1.0  T
   4    -84.3551862 -0.967869E-06  0.156E-02    0.60       1.0  T
   5    -84.3551876 -0.134077E-05  0.225E-03    0.60       6.9  T
   6    -84.3551878 -0.184555E-06  0.809E-04    0.60      19.1  T
   7    -84.3551878 -0.127319E-07  0.426E-04    0.60      36.2  T
   8    -84.3551878 -0.154056E-08  0.751E-05    0.60     205.5  T
   9    -84.3551878 -0.142506E-09  0.247E-05    0.60     623.6  T
     SCC iter.                  ...        0 min,  0.049 sec
     gradient                   ...        0 min,  0.056 sec
 * total energy  :   -83.6251909 Eh     change       -0.4056537E-02 Eh
   gradient norm :     0.0529002 Eh/α   predicted    -0.6529207E-02 (  60.96%)
   displ. norm   :     0.1367722 α      lambda       -0.2569902E-02
   maximum displ.:     0.0470638 α      in ANC's #2, #27, #29, ...

........................................................................
.............................. CYCLE    8 ..............................
........................................................................
   1    -84.3619005 -0.843619E+02  0.574E-02    0.49       0.0  T
   2    -84.3619885 -0.880140E-04  0.373E-02    0.51       1.0  T
   3    -84.3620094 -0.209038E-04  0.200E-02    0.50       1.0  T
   4    -84.3620097 -0.287216E-06  0.281E-03    0.50       5.5  T
   5    -84.3620098 -0.763809E-07  0.575E-04    0.50      26.8  T
   6    -84.3620098 -0.144035E-07  0.177E-04    0.50      87.0  T
   7    -84.3620098 -0.634813E-09  0.818E-05    0.50     188.6  T
     SCC iter.                  ...        0 min,  0.038 sec
     gradient                   ...        0 min,  0.056 sec
 * total energy  :   -83.6269345 Eh     change       -0.1743581E-02 Eh
   gradient norm :     0.0349619 Eh/α   predicted    -0.1308983E-02 ( -24.93%)
   displ. norm   :     0.4301141 α      lambda       -0.3089415E-02
   maximum displ.:     0.2651751 α      in ANC's #11, #6, #4, ...

........................................................................
.............................. CYCLE    9 ..............................
........................................................................
   1    -84.3676915 -0.843677E+02  0.487E-02    0.54       0.0  T
   2    -84.3677953 -0.103751E-03  0.287E-02    0.55       1.0  T
   3    -84.3678221 -0.268667E-04  0.796E-03    0.55       1.9  T
   4    -84.3678223 -0.112843E-06  0.235E-03    0.55       6.6  T
   5    -84.3678223 -0.150990E-07  0.426E-04    0.55      36.2  T
   6    -84.3678223 -0.563006E-08  0.150E-04    0.55     103.1  T
   7    -84.3678223 -0.500677E-09  0.550E-05    0.55     280.6  T
     SCC iter.                  ...        0 min,  0.038 sec
     gradient                   ...        0 min,  0.057 sec
 * total energy  :   -83.6293105 Eh     change       -0.2376043E-02 Eh
   gradient norm :     0.0197039 Eh/α   predicted    -0.1830501E-02 ( -22.96%)
   displ. norm   :     0.5266380 α      lambda       -0.2525969E-02
   maximum displ.:     0.3546839 α      in ANC's #11, #27, #6, ...

........................................................................
.............................. CYCLE   10 ..............................
........................................................................
   1    -84.3699273 -0.843699E+02  0.571E-02    0.65       0.0  T
   2    -84.3700429 -0.115673E-03  0.360E-02    0.66       1.0  T
   3    -84.3700687 -0.257757E-04  0.170E-02    0.66       1.0  T
   4    -84.3700688 -0.675756E-07  0.185E-03    0.66       8.3  T
   5    -84.3700688 -0.463211E-07  0.393E-04    0.66      39.2  T
   6    -84.3700688 -0.442868E-08  0.175E-04    0.66      88.2  T
   7    -84.3700688 -0.443023E-09  0.803E-05    0.66     192.1  T
     SCC iter.                  ...        0 min,  0.037 sec
     gradient                   ...        0 min,  0.057 sec
 * total energy  :   -83.6311328 Eh     change       -0.1822323E-02 Eh
   gradient norm :     0.0159484 Eh/α   predicted    -0.1613266E-02 ( -11.47%)
   displ. norm   :     0.4093959 α      lambda       -0.1337881E-02
   maximum displ.:     0.2457757 α      in ANC's #11, #4, #6, ...

........................................................................
.............................. CYCLE   11 ..............................
........................................................................
   1    -84.3736108 -0.843736E+02  0.269E-02    0.71       0.0  T
   2    -84.3736346 -0.238029E-04  0.154E-02    0.71       1.0  T
   3    -84.3736389 -0.433564E-05  0.750E-03    0.71       2.1  T
   4    -84.3736390 -0.350600E-07  0.179E-03    0.71       8.6  T
   5    -84.3736390 -0.117018E-07  0.229E-04    0.71      67.3  T
   6    -84.3736390 -0.143919E-08  0.897E-05    0.71     172.0  T
   7    -84.3736390 -0.114369E-09  0.393E-05    0.71     392.9  T
     SCC iter.                  ...        0 min,  0.037 sec
     gradient                   ...        0 min,  0.057 sec
 * total energy  :   -83.6320886 Eh     change       -0.9557977E-03 Eh
   gradient norm :     0.0172506 Eh/α   predicted    -0.7810615E-03 ( -18.28%)
   displ. norm   :     0.3499700 α      lambda       -0.9207474E-03
   maximum displ.:     0.1836741 α      in ANC's #11, #4, #6, ...

........................................................................
.............................. CYCLE   12 ..............................
........................................................................
   1    -84.3766682 -0.843767E+02  0.163E-02    0.70       0.0  T
   2    -84.3766799 -0.116902E-04  0.807E-03    0.69       1.9  T
   3    -84.3766813 -0.142075E-05  0.392E-03    0.69       3.9  T
   4    -84.3766813 -0.420561E-07  0.168E-03    0.69       9.2  T
   5    -84.3766813 -0.722595E-08  0.245E-04    0.69      63.1  T
   6    -84.3766814 -0.739647E-09  0.930E-05    0.69     165.9  T
   7    -84.3766814 -0.746354E-10  0.293E-05    0.69     526.2  T
     SCC iter.                  ...        0 min,  0.037 sec
     gradient                   ...        0 min,  0.057 sec
 * total energy  :   -83.6327549 Eh     change       -0.6662454E-03 Eh
   gradient norm :     0.0169193 Eh/α   predicted    -0.5167615E-03 ( -22.44%)
   displ. norm   :     0.3587672 α      lambda       -0.7950735E-03
   maximum displ.:     0.1440646 α      in ANC's #11, #5, #4, ...

........................................................................
.............................. CYCLE   13 ..............................
........................................................................
   1    -84.3760319 -0.843760E+02  0.264E-02    0.71       0.0  T
   2    -84.3760567 -0.248367E-04  0.132E-02    0.70       1.2  T
   3    -84.3760613 -0.452793E-05  0.535E-03    0.70       2.9  T
   4    -84.3760613 -0.647487E-07  0.182E-03    0.70       8.5  T
   5    -84.3760613 -0.341061E-08  0.222E-04    0.69      69.5  T
   6    -84.3760613 -0.571276E-09  0.836E-05    0.69     184.5  T
   7    -84.3760613 -0.903384E-10  0.290E-05    0.70     531.6  T
     SCC iter.                  ...        0 min,  0.037 sec
     gradient                   ...        0 min,  0.057 sec
 * total energy  :   -83.6332197 Eh     change       -0.4648739E-03 Eh
   gradient norm :     0.0141376 Eh/α   predicted    -0.4487059E-03 (  -3.48%)
   displ. norm   :     0.2891203 α      lambda       -0.6253213E-03
   maximum displ.:     0.0902110 α      in ANC's #5, #4, #10, ...

........................................................................
.............................. CYCLE   14 ..............................
........................................................................
   1    -84.3802013 -0.843802E+02  0.284E-02    0.69       0.0  T
   2    -84.3802222 -0.208952E-04  0.144E-02    0.68       1.1  T
   3    -84.3802262 -0.391584E-05  0.751E-03    0.68       2.1  T
   4    -84.3802263 -0.125088E-06  0.957E-04    0.68      16.1  T
   5    -84.3802263 -0.613149E-08  0.359E-04    0.68      43.0  T
   6    -84.3802263 -0.103266E-08  0.103E-04    0.68     149.1  T
   7    -84.3802263 -0.189743E-09  0.272E-05    0.68     566.5  T
     SCC iter.                  ...        0 min,  0.036 sec
     gradient                   ...        0 min,  0.056 sec
 * total energy  :   -83.6335010 Eh     change       -0.2812996E-03 Eh
   gradient norm :     0.0154714 Eh/α   predicted    -0.3388248E-03 (  20.45%)
   displ. norm   :     0.2040278 α      lambda       -0.3753038E-03
   maximum displ.:     0.0771648 α      in ANC's #17, #11, #18, ...

........................................................................
.............................. CYCLE   15 ..............................
........................................................................
   1    -84.3750554 -0.843751E+02  0.145E-02    0.70       0.0  T
   2    -84.3750605 -0.509452E-05  0.793E-03    0.70       1.9  T
   3    -84.3750609 -0.396053E-06  0.409E-03    0.70       3.8  T
   4    -84.3750609 -0.577472E-07  0.106E-03    0.70      14.5  T
   5    -84.3750609 -0.761024E-08  0.203E-04    0.70      76.1  T
   6    -84.3750609 -0.436145E-09  0.516E-05    0.70     299.0  T
   7    -84.3750609 -0.286775E-10  0.123E-05    0.70    1254.5  T
     SCC iter.                  ...        0 min,  0.037 sec
     gradient                   ...        0 min,  0.058 sec
 * total energy  :   -83.6336868 Eh     change       -0.1857583E-03 Eh
   gradient norm :     0.0126566 Eh/α   predicted    -0.1954659E-03 (   5.23%)
   displ. norm   :     0.1843596 α      lambda       -0.4925195E-03
   maximum displ.:     0.0744425 α      in ANC's #11, #17, #8, ...

........................................................................
.............................. CYCLE   16 ..............................
........................................................................
   1    -84.3767053 -0.843767E+02  0.194E-02    0.71       0.0  T
   2    -84.3767147 -0.941909E-05  0.116E-02    0.72       1.3  T
   3    -84.3767161 -0.141214E-05  0.649E-03    0.72       2.4  T
   4    -84.3767162 -0.688085E-07  0.105E-03    0.72      14.6  T
   5    -84.3767162 -0.850328E-08  0.253E-04    0.72      60.9  T
   6    -84.3767162 -0.108511E-08  0.967E-05    0.72     159.6  T
   7    -84.3767162 -0.822808E-10  0.250E-05    0.72     616.3  T
     SCC iter.                  ...        0 min,  0.037 sec
     gradient                   ...        0 min,  0.058 sec
 * total energy  :   -83.6338992 Eh     change       -0.2124056E-03 Eh
   gradient norm :     0.0111109 Eh/α   predicted    -0.2546301E-03 (  19.88%)
   displ. norm   :     0.1513577 α      lambda       -0.2447360E-03
   maximum displ.:     0.0562012 α      in ANC's #2, #27, #17, ...

........................................................................
.............................. CYCLE   17 ..............................
........................................................................
   1    -84.3762051 -0.843762E+02  0.175E-02    0.75       0.0  T
   2    -84.3762130 -0.791152E-05  0.981E-03    0.75       1.6  T
   3    -84.3762141 -0.118372E-05  0.529E-03    0.75       2.9  T
   4    -84.3762142 -0.387160E-07  0.987E-04    0.75      15.6  T
   5    -84.3762142 -0.552623E-08  0.114E-04    0.75     134.8  T
   6    -84.3762142 -0.253351E-09  0.456E-05    0.75     338.7  T
     SCC iter.                  ...        0 min,  0.031 sec
     gradient                   ...        0 min,  0.058 sec
 * total energy  :   -83.6340559 Eh     change       -0.1567069E-03 Eh
   gradient norm :     0.0075142 Eh/α   predicted    -0.1251717E-03 ( -20.12%)
   displ. norm   :     0.2217036 α      lambda       -0.1951016E-03
   maximum displ.:     0.1082554 α      in ANC's #2, #17, #18, ...

........................................................................
.............................. CYCLE   18 ..............................
........................................................................
   1    -84.3768387 -0.843768E+02  0.705E-03    0.76       0.0  T
   2    -84.3768398 -0.103623E-05  0.305E-03    0.76       5.1  T
   3    -84.3768398 -0.210949E-07  0.154E-03    0.76      10.1  T
   4    -84.3768398 -0.301269E-08  0.385E-04    0.76      40.0  T
   5    -84.3768398 -0.245470E-08  0.103E-04    0.76     149.3  T
   6    -84.3768398 -0.122057E-09  0.260E-05    0.76     594.6  T
     SCC iter.                  ...        0 min,  0.031 sec
     gradient                   ...        0 min,  0.057 sec
 * total energy  :   -83.6341857 Eh     change       -0.1297955E-03 Eh
   gradient norm :     0.0060608 Eh/α   predicted    -0.1023493E-03 ( -21.15%)
   displ. norm   :     0.2283211 α      lambda       -0.1470784E-03
   maximum displ.:     0.1121629 α      in ANC's #2, #3, #1, ...

........................................................................
.............................. CYCLE   19 ..............................
........................................................................
   1    -84.3764235 -0.843764E+02  0.676E-03    0.77       0.0  T
   2    -84.3764249 -0.131748E-05  0.356E-03    0.77       4.3  T
   3    -84.3764251 -0.209355E-06  0.177E-03    0.77       8.7  T
   4    -84.3764251 -0.453188E-08  0.411E-04    0.77      37.5  T
   5    -84.3764251 -0.417884E-09  0.732E-05    0.77     210.7  T
   6    -84.3764251 -0.665494E-10  0.251E-05    0.77     615.7  T
     SCC iter.                  ...        0 min,  0.032 sec
     gradient                   ...        0 min,  0.057 sec
 * total energy  :   -83.6342885 Eh     change       -0.1027980E-03 Eh
   gradient norm :     0.0068085 Eh/α   predicted    -0.7737471E-04 ( -24.73%)
   displ. norm   :     0.2986557 α      lambda       -0.1760620E-03
   maximum displ.:     0.1689946 α      in ANC's #2, #3, #1, ...

........................................................................
.............................. CYCLE   20 ..............................
........................................................................
   1    -84.3769456 -0.843769E+02  0.136E-02    0.76       0.0  T
   2    -84.3769531 -0.751431E-05  0.707E-03    0.76       2.2  T
   3    -84.3769543 -0.116299E-05  0.308E-03    0.76       5.0  T
   4    -84.3769543 -0.941084E-08  0.964E-04    0.76      16.0  T
   5    -84.3769543 -0.281537E-08  0.145E-04    0.76     106.3  T
   6    -84.3769543 -0.268457E-09  0.479E-05    0.76     322.2  T
     SCC iter.                  ...        0 min,  0.032 sec
     gradient                   ...        0 min,  0.057 sec
 * total energy  :   -83.6343904 Eh     change       -0.1019432E-03 Eh
   gradient norm :     0.0076703 Eh/α   predicted    -0.9588420E-04 (  -5.94%)
   displ. norm   :     0.2409388 α      lambda       -0.1495252E-03
   maximum displ.:     0.1221927 α      in ANC's #2, #3, #1, ...
 * RMSD in coord.:     0.6311408 α      energy gain  -0.3661309E-01 Eh

generating ANC from model Hessian ...
Using Lindh-Hessian (1995)
 Shifting diagonal of input Hessian by   9.796144112310085E-003
 Lowest  eigenvalues of input Hessian
    0.000000    0.000000    0.000000    0.000000    0.000000    0.000000
    0.010000    0.010145    0.010202    0.010855    0.011695    0.012340
    0.012589    0.013869    0.013882    0.014254    0.016157    0.016540
 Highest eigenvalues
    2.078310    2.101605    2.181195    2.201617    2.326929    2.356133
 

........................................................................
.............................. CYCLE   21 ..............................
........................................................................
   1    -84.3759352 -0.843759E+02  0.113E-02    0.78       0.0  T
   2    -84.3759388 -0.361944E-05  0.658E-03    0.78       2.3  T
   3    -84.3759392 -0.417728E-06  0.352E-03    0.78       4.4  T
   4    -84.3759393 -0.162035E-07  0.904E-04    0.77      17.1  T
   5    -84.3759393 -0.533683E-08  0.124E-04    0.77     124.5  T
   6    -84.3759393 -0.264521E-09  0.423E-05    0.77     364.9  T
     SCC iter.                  ...        0 min,  0.032 sec
     gradient                   ...        0 min,  0.058 sec
 * total energy  :   -83.6344757 Eh     change       -0.8529715E-04 Eh
   gradient norm :     0.0066626 Eh/α   predicted     0.0000000E+00 (-100.00%)
   displ. norm   :     0.0474187 α      lambda       -0.8372535E-04
   maximum displ.:     0.0199627 α      in ANC's #3, #5, #13, ...

........................................................................
.............................. CYCLE   22 ..............................
........................................................................
   1    -84.3770580 -0.843771E+02  0.575E-03    0.78       0.0  T
   2    -84.3770593 -0.135138E-05  0.353E-03    0.78       4.4  T
   3    -84.3770595 -0.233105E-06  0.153E-03    0.78      10.1  T
   4    -84.3770595 -0.519464E-09  0.395E-04    0.78      39.1  T
   5    -84.3770595 -0.924146E-09  0.492E-05    0.78     313.4  T
   6    -84.3770595 -0.557350E-10  0.156E-05    0.78     990.7  T
     SCC iter.                  ...        0 min,  0.032 sec
     gradient                   ...        0 min,  0.057 sec
 * total energy  :   -83.6345484 Eh     change       -0.7264890E-04 Eh
   gradient norm :     0.0033624 Eh/α   predicted    -0.4928273E-04 ( -32.16%)
   displ. norm   :     0.0928592 α      lambda       -0.9083394E-04
   maximum displ.:     0.0430767 α      in ANC's #5, #3, #13, ...

........................................................................
.............................. CYCLE   23 ..............................
........................................................................
   1    -84.3777888 -0.843778E+02  0.905E-03    0.79       0.0  T
   2    -84.3777924 -0.362898E-05  0.606E-03    0.79       2.5  T
   3    -84.3777931 -0.694346E-06  0.270E-03    0.79       5.7  T
   4    -84.3777931 -0.658473E-08  0.518E-04    0.79      29.8  T
   5    -84.3777931 -0.150906E-08  0.671E-05    0.79     230.1  T
   6    -84.3777931 -0.765539E-10  0.224E-05    0.79     689.9  T
     SCC iter.                  ...        0 min,  0.031 sec
     gradient                   ...        0 min,  0.055 sec
 * total energy  :   -83.6346072 Eh     change       -0.5882755E-04 Eh
   gradient norm :     0.0026482 Eh/α   predicted    -0.4580994E-04 ( -22.13%)
   displ. norm   :     0.0840632 α      lambda       -0.4015028E-04
   maximum displ.:     0.0426601 α      in ANC's #5, #3, #2, ...

........................................................................
.............................. CYCLE   24 ..............................
........................................................................
   1    -84.3775975 -0.843776E+02  0.616E-03    0.79       0.0  T
   2    -84.3775991 -0.160720E-05  0.418E-03    0.79       3.7  T
   3    -84.3775994 -0.297139E-06  0.203E-03    0.79       7.6  T
   4    -84.3775994 -0.151351E-08  0.344E-04    0.79      44.8  T
   5    -84.3775994 -0.821814E-09  0.457E-05    0.79     337.3  T
   6    -84.3775994 -0.291323E-10  0.129E-05    0.79    1193.6  T
     SCC iter.                  ...        0 min,  0.031 sec
     gradient                   ...        0 min,  0.056 sec
 * total energy  :   -83.6346370 Eh     change       -0.2980076E-04 Eh
   gradient norm :     0.0028993 Eh/α   predicted    -0.2022155E-04 ( -32.14%)
   displ. norm   :     0.1207223 α      lambda       -0.4472655E-04
   maximum displ.:     0.0627125 α      in ANC's #5, #3, #2, ...

........................................................................
.............................. CYCLE   25 ..............................
........................................................................
   1    -84.3771010 -0.843771E+02  0.697E-03    0.79       0.0  T
   2    -84.3771030 -0.201548E-05  0.462E-03    0.79       3.3  T
   3    -84.3771033 -0.341719E-06  0.233E-03    0.79       6.6  T
   4    -84.3771033  0.135927E-09  0.425E-04    0.79      36.3  T
   5    -84.3771033 -0.164694E-08  0.494E-05    0.79     312.6  T
   6    -84.3771033 -0.367208E-10  0.136E-05    0.79    1137.8  T
     SCC iter.                  ...        0 min,  0.032 sec
     gradient                   ...        0 min,  0.057 sec
 * total energy  :   -83.6346692 Eh     change       -0.3221929E-04 Eh
   gradient norm :     0.0027137 Eh/α   predicted    -0.2269117E-04 ( -29.57%)
   displ. norm   :     0.1202369 α      lambda       -0.3603930E-04
   maximum displ.:     0.0579589 α      in ANC's #3, #5, #2, ...

........................................................................
.............................. CYCLE   26 ..............................
........................................................................
   1    -84.3767277 -0.843767E+02  0.510E-03    0.79       0.0  T
   2    -84.3767288 -0.111799E-05  0.312E-03    0.78       4.9  T
   3    -84.3767290 -0.168085E-06  0.154E-03    0.78      10.0  T
   4    -84.3767290  0.571688E-09  0.358E-04    0.78      43.0  T
   5    -84.3767290 -0.123157E-08  0.373E-05    0.78     413.5  T
   6    -84.3767290 -0.186873E-10  0.110E-05    0.78    1398.6  T
     SCC iter.                  ...        0 min,  0.032 sec
     gradient                   ...        0 min,  0.057 sec
 * total energy  :   -83.6346959 Eh     change       -0.2668565E-04 Eh
   gradient norm :     0.0023974 Eh/α   predicted    -0.1828241E-04 ( -31.49%)
   displ. norm   :     0.1217531 α      lambda       -0.3147631E-04
   maximum displ.:     0.0633521 α      in ANC's #2, #3, #5, ...

........................................................................
.............................. CYCLE   27 ..............................
........................................................................
   1    -84.3766736 -0.843767E+02  0.401E-03    0.78       0.0  T
   2    -84.3766742 -0.684638E-06  0.227E-03    0.78       6.8  T
   3    -84.3766743 -0.104015E-06  0.100E-03    0.78      15.4  T
   4    -84.3766743 -0.104436E-09  0.287E-04    0.78      53.7  T
   5    -84.3766743 -0.499327E-09  0.387E-05    0.78     398.4  T
   6    -84.3766743 -0.163993E-10  0.117E-05    0.78    1320.7  T
     SCC iter.                  ...        0 min,  0.032 sec
     gradient                   ...        0 min,  0.055 sec
 * total energy  :   -83.6347188 Eh     change       -0.2284798E-04 Eh
   gradient norm :     0.0021177 Eh/α   predicted    -0.1597460E-04 ( -30.08%)
   displ. norm   :     0.0954698 α      lambda       -0.2158970E-04
   maximum displ.:     0.0565698 α      in ANC's #2, #3, #5, ...

........................................................................
.............................. CYCLE   28 ..............................
........................................................................
   1    -84.3769096 -0.843769E+02  0.267E-03    0.78       0.0  T
   2    -84.3769099 -0.290841E-06  0.145E-03    0.78      10.7  T
   3    -84.3769100 -0.463973E-07  0.567E-04    0.78      27.2  T
   4    -84.3769100 -0.338275E-09  0.215E-04    0.78      71.8  T
   5    -84.3769100 -0.118732E-09  0.307E-05    0.78     502.0  T
   6    -84.3769100 -0.807177E-11  0.995E-06    0.78    1551.2  T
     SCC iter.                  ...        0 min,  0.031 sec
     gradient                   ...        0 min,  0.055 sec
 * total energy  :   -83.6347351 Eh     change       -0.1631737E-04 Eh
   gradient norm :     0.0016946 Eh/α   predicted    -0.1089351E-04 ( -33.24%)
   displ. norm   :     0.1260997 α      lambda       -0.1782674E-04
   maximum displ.:     0.0819546 α      in ANC's #2, #3, #1, ...

........................................................................
.............................. CYCLE   29 ..............................
........................................................................
   1    -84.3773301 -0.843773E+02  0.282E-03    0.78       0.0  T
   2    -84.3773304 -0.314520E-06  0.137E-03    0.78      11.2  T
   3    -84.3773304 -0.390098E-07  0.580E-04    0.78      26.6  T
   4    -84.3773304 -0.950777E-09  0.265E-04    0.78      58.2  T
   5    -84.3773304 -0.168285E-09  0.347E-05    0.78     444.6  T
   6    -84.3773304 -0.143814E-10  0.134E-05    0.78    1154.6  T
     SCC iter.                  ...        0 min,  0.032 sec
     gradient                   ...        0 min,  0.057 sec
 * total energy  :   -83.6347541 Eh     change       -0.1895895E-04 Eh
   gradient norm :     0.0017772 Eh/α   predicted    -0.8978663E-05 ( -52.64%)
   displ. norm   :     0.1057193 α      lambda       -0.1457468E-04
   maximum displ.:     0.0707734 α      in ANC's #2, #3, #1, ...

........................................................................
.............................. CYCLE   30 ..............................
........................................................................
   1    -84.3773697 -0.843774E+02  0.195E-03    0.79       0.0  T
   2    -84.3773699 -0.119886E-06  0.865E-04    0.79      17.8  T
   3    -84.3773699 -0.142606E-07  0.409E-04    0.79      37.7  T
   4    -84.3773699 -0.562707E-09  0.136E-04    0.79     113.1  T
   5    -84.3773699 -0.620020E-10  0.255E-05    0.79     604.6  T
     SCC iter.                  ...        0 min,  0.026 sec
     gradient                   ...        0 min,  0.056 sec
 * total energy  :   -83.6347730 Eh     change       -0.1895591E-04 Eh
   gradient norm :     0.0018016 Eh/α   predicted    -0.7324159E-05 ( -61.36%)
   displ. norm   :     0.1699585 α      lambda       -0.2311530E-04
   maximum displ.:     0.1127030 α      in ANC's #2, #3, #1, ...

........................................................................
.............................. CYCLE   31 ..............................
........................................................................
   1    -84.3770839 -0.843771E+02  0.380E-03    0.80       0.0  T
   2    -84.3770844 -0.442182E-06  0.212E-03    0.80       7.3  T
   3    -84.3770845 -0.807091E-07  0.999E-04    0.80      15.4  T
   4    -84.3770845 -0.637939E-09  0.167E-04    0.80      92.4  T
   5    -84.3770845 -0.162458E-09  0.381E-05    0.80     404.8  T
     SCC iter.                  ...        0 min,  0.026 sec
     gradient                   ...        0 min,  0.056 sec
 * total energy  :   -83.6348004 Eh     change       -0.2738268E-04 Eh
   gradient norm :     0.0014426 Eh/α   predicted    -0.1170738E-04 ( -57.25%)
   displ. norm   :     0.1767344 α      lambda       -0.1746035E-04
   maximum displ.:     0.1200930 α      in ANC's #2, #3, #1, ...

........................................................................
.............................. CYCLE   32 ..............................
........................................................................
   1    -84.3767422 -0.843767E+02  0.346E-03    0.81       0.0  T
   2    -84.3767426 -0.366982E-06  0.202E-03    0.81       7.7  T
   3    -84.3767427 -0.699597E-07  0.975E-04    0.81      15.8  T
   4    -84.3767427 -0.563475E-09  0.149E-04    0.81     103.3  T
   5    -84.3767427 -0.129475E-09  0.298E-05    0.81     518.1  T
     SCC iter.                  ...        0 min,  0.027 sec
     gradient                   ...        0 min,  0.057 sec
 * total energy  :   -83.6348197 Eh     change       -0.1926704E-04 Eh
   gradient norm :     0.0011703 Eh/α   predicted    -0.8853509E-05 ( -54.05%)
   displ. norm   :     0.1280644 α      lambda       -0.1025666E-04
   maximum displ.:     0.0901482 α      in ANC's #2, #3, #1, ...

........................................................................
.............................. CYCLE   33 ..............................
........................................................................
   1    -84.3767378 -0.843767E+02  0.184E-03    0.81       0.0  T
   2    -84.3767379 -0.104667E-06  0.107E-03    0.81      14.4  T
   3    -84.3767379 -0.179621E-07  0.523E-04    0.81      29.5  T
   4    -84.3767379 -0.283322E-09  0.108E-04    0.81     143.4  T
   5    -84.3767379 -0.394920E-10  0.200E-05    0.81     770.9  T
     SCC iter.                  ...        0 min,  0.026 sec
     gradient                   ...        0 min,  0.056 sec
 * total energy  :   -83.6348314 Eh     change       -0.1175106E-04 Eh
   gradient norm :     0.0010087 Eh/α   predicted    -0.5166575E-05 ( -56.03%)
   displ. norm   :     0.1036537 α      lambda       -0.8270885E-05
   maximum displ.:     0.0750644 α      in ANC's #2, #3, #1, ...

........................................................................
.............................. CYCLE   34 ..............................
........................................................................
   1    -84.3768762 -0.843769E+02  0.990E-04    0.81       0.0  T
   2    -84.3768762 -0.188498E-07  0.487E-04    0.81      31.7  T
   3    -84.3768762 -0.163946E-08  0.247E-04    0.81      62.5  T
   4    -84.3768762 -0.336328E-09  0.751E-05    0.81     205.4  T
   5    -84.3768762 -0.568576E-10  0.179E-05    0.81     864.2  T
     SCC iter.                  ...        0 min,  0.027 sec
     gradient                   ...        0 min,  0.056 sec
 * total energy  :   -83.6348421 Eh     change       -0.1067570E-04 Eh
   gradient norm :     0.0008241 Eh/α   predicted    -0.4159375E-05 ( -61.04%)
   displ. norm   :     0.1363365 α      lambda       -0.1168719E-04
   maximum displ.:     0.0984421 α      in ANC's #2, #1, #3, ...

........................................................................
.............................. CYCLE   35 ..............................
........................................................................
   1    -84.3769133 -0.843769E+02  0.236E-03    0.81       0.0  T
   2    -84.3769135 -0.200041E-06  0.126E-03    0.81      12.2  T
   3    -84.3769135 -0.381331E-07  0.528E-04    0.81      29.2  T
   4    -84.3769135 -0.423498E-09  0.138E-04    0.81     112.1  T
   5    -84.3769135 -0.624425E-10  0.309E-05    0.81     499.8  T
     SCC iter.                  ...        0 min,  0.026 sec
     gradient                   ...        0 min,  0.057 sec
 * total energy  :   -83.6348573 Eh     change       -0.1526053E-04 Eh
   gradient norm :     0.0009614 Eh/α   predicted    -0.5892853E-05 ( -61.39%)
   displ. norm   :     0.2112809 α      lambda       -0.1868520E-04
   maximum displ.:     0.1531573 α      in ANC's #2, #1, #13, ...

........................................................................
.............................. CYCLE   36 ..............................
........................................................................
   1    -84.3770775 -0.843771E+02  0.557E-03    0.80       0.0  T
   2    -84.3770787 -0.122665E-05  0.319E-03    0.81       4.8  T
   3    -84.3770789 -0.252454E-06  0.129E-03    0.80      12.0  T
   4    -84.3770789 -0.155119E-08  0.246E-04    0.81      62.7  T
   5    -84.3770789 -0.228738E-09  0.556E-05    0.81     277.6  T
   6    -84.3770789 -0.245848E-10  0.172E-05    0.81     898.7  T
     SCC iter.                  ...        0 min,  0.031 sec
     gradient                   ...        0 min,  0.055 sec
 * total energy  :   -83.6348802 Eh     change       -0.2280859E-04 Eh
   gradient norm :     0.0012338 Eh/α   predicted    -0.9530870E-05 ( -58.21%)
   displ. norm   :     0.2344278 α      lambda       -0.1794219E-04
   maximum displ.:     0.1699113 α      in ANC's #2, #1, #11, ...

........................................................................
.............................. CYCLE   37 ..............................
........................................................................
   1    -84.3768232 -0.843768E+02  0.733E-03    0.80       0.0  T
   2    -84.3768253 -0.216397E-05  0.421E-03    0.80       3.7  T
   3    -84.3768258 -0.456304E-06  0.164E-03    0.80       9.4  T
   4    -84.3768258 -0.266633E-08  0.297E-04    0.80      51.9  T
   5    -84.3768258 -0.325556E-09  0.671E-05    0.80     230.1  T
   6    -84.3768258 -0.322586E-10  0.205E-05    0.80     752.3  T
     SCC iter.                  ...        0 min,  0.032 sec
     gradient                   ...        0 min,  0.056 sec
 * total energy  :   -83.6348997 Eh     change       -0.1956506E-04 Eh
   gradient norm :     0.0017069 Eh/α   predicted    -0.9191161E-05 ( -53.02%)
   displ. norm   :     0.2365114 α      lambda       -0.2019800E-04
   maximum displ.:     0.1727050 α      in ANC's #2, #1, #11, ...

........................................................................
.............................. CYCLE   38 ..............................
........................................................................
   1    -84.3775734 -0.843776E+02  0.966E-03    0.79       0.0  T
   2    -84.3775769 -0.352490E-05  0.574E-03    0.79       2.7  T
   3    -84.3775776 -0.752484E-06  0.246E-03    0.79       6.3  T
   4    -84.3775776 -0.274522E-08  0.304E-04    0.79      50.7  T
   5    -84.3775776 -0.587832E-09  0.706E-05    0.79     218.7  T
   6    -84.3775776 -0.469242E-10  0.233E-05    0.79     662.0  T
     SCC iter.                  ...        0 min,  0.032 sec
     gradient                   ...        0 min,  0.055 sec
 * total energy  :   -83.6349169 Eh     change       -0.1716202E-04 Eh
   gradient norm :     0.0018027 Eh/α   predicted    -0.1035125E-04 ( -39.69%)
   displ. norm   :     0.3055495 α      lambda       -0.1908200E-04
   maximum displ.:     0.2232643 α      in ANC's #2, #1, #13, ...

........................................................................
.............................. CYCLE   39 ..............................
........................................................................
   1    -84.3761535 -0.843762E+02  0.988E-03    0.78       0.0  T
   2    -84.3761566 -0.309762E-05  0.558E-03    0.79       2.8  T
   3    -84.3761572 -0.657816E-06  0.248E-03    0.79       6.2  T
   4    -84.3761572 -0.502187E-08  0.402E-04    0.79      38.4  T
   5    -84.3761572 -0.683556E-09  0.971E-05    0.79     159.0  T
   6    -84.3761572 -0.615188E-10  0.265E-05    0.79     581.2  T
     SCC iter.                  ...        0 min,  0.031 sec
     gradient                   ...        0 min,  0.053 sec
 * total energy  :   -83.6349241 Eh     change       -0.7174586E-05 Eh
   gradient norm :     0.0029337 Eh/α   predicted    -0.9938501E-05 (  38.52%)
   displ. norm   :     0.0608082 α      lambda       -0.1938304E-04
   maximum displ.:     0.0387632 α      in ANC's #2, #3, #1, ...

........................................................................
.............................. CYCLE   40 ..............................
........................................................................
   1    -84.3773906 -0.843774E+02  0.377E-03    0.78       0.0  T
   2    -84.3773909 -0.327284E-06  0.187E-03    0.78       8.2  T
   3    -84.3773910 -0.679444E-07  0.908E-04    0.78      17.0  T
   4    -84.3773910 -0.142443E-08  0.128E-04    0.78     120.9  T
   5    -84.3773910 -0.889600E-10  0.214E-05    0.78     722.2  T
     SCC iter.                  ...        0 min,  0.026 sec
     gradient                   ...        0 min,  0.054 sec
 * total energy  :   -83.6349369 Eh     change       -0.1284337E-04 Eh
   gradient norm :     0.0011895 Eh/α   predicted    -0.9729046E-05 ( -24.25%)
   displ. norm   :     0.0834241 α      lambda       -0.1026921E-04
   maximum displ.:     0.0516276 α      in ANC's #2, #6, #1, ...

........................................................................
.............................. CYCLE   41 ..............................
........................................................................
   1    -84.3781253 -0.843781E+02  0.390E-03    0.78       0.0  T
   2    -84.3781257 -0.409965E-06  0.210E-03    0.78       7.3  T
   3    -84.3781258 -0.762055E-07  0.103E-03    0.78      15.0  T
   4    -84.3781258 -0.152117E-08  0.170E-04    0.78      91.0  T
   5    -84.3781258 -0.155552E-09  0.477E-05    0.78     323.2  T
     SCC iter.                  ...        0 min,  0.026 sec
     gradient                   ...        0 min,  0.056 sec
 * total energy  :   -83.6349451 Eh     change       -0.8242132E-05 Eh
   gradient norm :     0.0009774 Eh/α   predicted    -0.5151976E-05 ( -37.49%)
   displ. norm   :     0.1008019 α      lambda       -0.4207547E-05
   maximum displ.:     0.0749078 α      in ANC's #2, #1, #13, ...

........................................................................
.............................. CYCLE   42 ..............................
........................................................................
   1    -84.3778972 -0.843779E+02  0.270E-03    0.78       0.0  T
   2    -84.3778975 -0.246760E-06  0.163E-03    0.78       9.5  T
   3    -84.3778975 -0.523013E-07  0.747E-04    0.78      20.6  T
   4    -84.3778975 -0.380837E-09  0.110E-04    0.78     140.9  T
   5    -84.3778975 -0.655831E-10  0.286E-05    0.78     539.3  T
     SCC iter.                  ...        0 min,  0.026 sec
     gradient                   ...        0 min,  0.056 sec
 * total energy  :   -83.6349500 Eh     change       -0.4855737E-05 Eh
   gradient norm :     0.0006733 Eh/α   predicted    -0.2113648E-05 ( -56.47%)
   displ. norm   :     0.1439718 α      lambda       -0.5366770E-05
   maximum displ.:     0.1062769 α      in ANC's #2, #1, #13, ...

   *** GEOMETRY OPTIMIZATION CONVERGED AFTER 42 ITERATIONS ***

------------------------------------------------------------------------
 total energy gain   :        -0.0371726 Eh      -23.3262 kcal/mol
 total RMSD          :         0.7808329 a0        0.4132 Å
 total power (kW/mol):        -2.3237318 (step)  -19.6020 (real)
------------------------------------------------------------------------

 ANCopt (total)                0 d,  0 h,  0 min,  4.979 sec
 optimizer setup                ...        0 min,  0.001 sec (  0.012%)
 model hessian                  ...        0 min,  0.038 sec (  0.755%)
 ANC generation                 ...        0 min,  0.005 sec (  0.101%)
 coordinate transformation      ...        0 min,  0.001 sec (  0.017%)
 single point calculation       ...        0 min,  4.920 sec ( 98.823%)
 optimization log               ...        0 min,  0.008 sec (  0.153%)
 hessian update                 ...        0 min,  0.001 sec (  0.016%)
 rational function              ...        0 min,  0.004 sec (  0.083%)

================
 final structure:
================
42
 xtb: 6.5.1 (579679a)
C           -5.81038588818723        0.91747312985539        1.96980572650440
O           -4.66800217175358        0.51938970856916        1.23012409358164
C           -4.80778627183126        0.55115433914403       -0.13571006729842
O           -5.86846216819142        0.90726973783071       -0.63096075620827
C           -3.60690070204101        0.12872960701080       -0.82953987747777
N           -2.54586363035499       -0.22817310709186       -0.01299321225075
C           -1.43819263842196       -0.62336749551319       -0.52381208466537
C           -0.29010583517912       -1.10556852505442        0.34624958763592
C           -0.37628220229242       -0.43873447943209        1.72817475896392
C           -0.44752185292637       -2.63241090628660        0.47392886353791
N            0.95190519462930       -0.76859512496271       -0.35385998046242
C            2.20324374152960       -1.01156112604019        0.35965193967325
O            2.31589801646909       -2.00848091560684        1.14252038586677
C            3.15709598718849       -0.05807106515532        0.16151493582735
O            3.06357371257105        0.99851848856586       -0.79460853823418
C            4.31825084760982        1.43919805507723       -0.93087229300992
C            4.57334197291212        2.56949387164007       -1.86856778801015
N            5.22368896459658        0.85612263667840       -0.24234075201872
N            4.57448173529051       -0.18624386482544        0.51310611786963
C            4.81877871468015        0.07212843885127        1.94132648255641
N           -1.26392963450883       -0.72334321960438       -1.88870209678518
C           -2.22102455319953       -0.40738072352432       -2.81002986693672
O           -1.98064955473822       -0.52425891354736       -4.01347566495682
C           -3.54157601348694        0.06858355053671       -2.24659866999139
O           -4.45868260129257        0.36570206159994       -3.03817829257280
H           -6.66337184375428        0.26566304159069        1.75269217853225
H           -6.08942070615176        1.94986490857188        1.73365379319791
H           -5.55230586242789        0.84143609309099        3.02542001177158
H            0.38279566534999       -0.85028667925819        2.39196913908541
H           -1.36168535972662       -0.61469269113135        2.15991921698913
H           -0.22387883854144        0.63655317928454        1.63572810352918
H           -0.27853678215098       -3.10218356538073       -0.49493957590682
H            0.26578116201496       -3.03734377979670        1.18970986602790
H           -1.45743333935440       -2.86916239498883        0.81086383819683
H            0.92576905844460        0.20965401070540       -0.63233627385323
H            4.30457850034201        2.28473352693450       -2.88560544391784
H            3.96811240325995        3.43035142705588       -1.58729621228400
H            5.62546447472844        2.84139014069351       -1.83740860919302
H            4.32957288465861       -0.72192514710167        2.50551479359855
H            4.42107009755841        1.04438707950821        2.25019023895333
H            5.89265160972735        0.04341052319777        2.12236430992799
H           -0.36405329304305       -1.02942483168925       -2.23427432579287
 
 Bond Distances (Angstroems)
 ---------------------------
C1-O2=1.4180         C1-H26=1.0953        C1-H27=1.0952        C1-H28=1.0894        O2-C1=1.4180         O2-C3=1.3733         
C3-O2=1.3733         C3-O4=1.2236         C3-C5=1.4498         O4-C3=1.2236         C5-C3=1.4498         C5-N6=1.3856         
C5-C24=1.4198        N6-C5=1.3856         N6-C7=1.2822         C7-N6=1.2822         C7-C8=1.5191         C7-N21=1.3796        
C8-C7=1.5191         C8-C9=1.5368         C8-C10=1.5402        C8-N11=1.4650        C9-C8=1.5368         C9-H29=1.0891        
C9-H30=1.0901        C9-H31=1.0900        C10-C8=1.5402        C10-H32=1.0899       C10-H33=1.0886       C10-H34=1.0906       
N11-C8=1.4650        N11-C12=1.4608       N11-H35=1.0174       C12-N11=1.4608       C12-O13=1.2726       C12-C14=1.3632       
O13-C12=1.2726       C14-C12=1.3632       C14-O15=1.4280       C14-N19=1.4660       O15-C14=1.4280       O15-C16=1.3368       
C16-O15=1.3368       C16-C17=1.4906       C16-N18=1.2782       C17-C16=1.4906       C17-H36=1.0898       C17-H37=1.0893       
C17-H38=1.0871       N18-C16=1.2782       N18-N19=1.4418       N19-C14=1.4660       N19-N18=1.4418       N19-C20=1.4718       
C20-N19=1.4718       C20-H39=1.0900       C20-H40=1.0949       C20-H41=1.0894       N21-C7=1.3796        N21-C22=1.3655       
N21-H42=1.0114       C22-N21=1.3655       C22-O23=1.2328       C22-C24=1.5126       O23-C22=1.2328       C24-C5=1.4198        
C24-C22=1.5126       C24-O25=1.2474       O25-C24=1.2474       H26-C1=1.0953        H27-C1=1.0952        H28-C1=1.0894        
H29-C9=1.0891        H30-C9=1.0901        H31-C9=1.0900        H32-C10=1.0899       H33-C10=1.0886       H34-C10=1.0906       
H35-N11=1.0174       H36-C17=1.0898       H37-C17=1.0893       H38-C17=1.0871       H39-C20=1.0900       H40-C20=1.0949       
H41-C20=1.0894       H42-N21=1.0114       
 C  H  Rav=1.0906 sigma=0.0024  Rmin=1.0871  Rmax=1.0953    15
 C  C  Rav=1.4790 sigma=0.0589  Rmin=1.3632  Rmax=1.5402     8
 N  H  Rav=1.0144 sigma=0.0030  Rmin=1.0114  Rmax=1.0174     2
 N  C  Rav=1.3950 sigma=0.0728  Rmin=1.2782  Rmax=1.4718     9
 N  N  Rav=1.4418 sigma=0.0000  Rmin=1.4418  Rmax=1.4418     1
 O  C  Rav=1.3166 sigma=0.0780  Rmin=1.2236  Rmax=1.4280     8
 
 selected bond angles (degree)
 --------------------
H26-C1-O2=110.91               H27-C1-O2=110.94               H27-C1-H26=108.65              H28-C1-O2=107.16               
H28-C1-H26=109.58              H28-C1-H27=109.58              C3-O2-C1=115.49                O4-C3-O2=119.84                
C5-C3-O2=112.64                C5-C3-O4=127.53                N6-C5-C3=115.30                C24-C5-C3=121.88               
C24-C5-N6=122.82               C7-N6-C5=120.41                C8-C7-N6=121.50                N21-C7-N6=121.71               
N21-C7-C8=116.63               C9-C8-C7=109.57                C10-C8-C7=106.55               C10-C8-C9=110.48               
N11-C8-C7=107.10               N11-C8-C9=112.18               N11-C8-C10=110.75              H29-C9-C8=110.18               
H30-C9-C8=109.68               H30-C9-H29=109.13              H31-C9-C8=110.12               H31-C9-H29=109.09              
H31-C9-H30=108.62              H32-C10-C8=109.74              H33-C10-C8=110.87              H33-C10-H32=108.82             
H34-C10-C8=109.60              H34-C10-H32=108.94             H34-C10-H33=108.84             
 
 selected dihedral angles (degree)
 ---------------------------------
C3-O2-C1-H26= 60.42           C3-O2-C1-H27=299.57           C3-O2-C1-H28=179.98           O4-C3-O2-C1=  0.00            
C5-C3-O2-C1=180.20            N6-C5-C3-O2=  0.04            N6-C5-C3-O4=180.24            C24-C5-C3-O2=179.08           
C24-C5-C3-O4=359.28           C7-N6-C5-C3=179.66            C7-N6-C5-C24=  0.63           C8-C7-N6-C5=184.00            
N21-C7-N6-C5=359.24           C9-C8-C7-N6=332.94            C9-C8-C7-N21=157.47           C10-C8-C7-N6= 92.48           
C10-C8-C7-N21=277.01          N11-C8-C7-N6=211.04           N11-C8-C7-N21= 35.57          H29-C9-C8-C7=174.43           
H29-C9-C8-C10= 57.33          H29-C9-C8-N11=293.24          H30-C9-C8-C7= 54.29           H30-C9-C8-C10=297.19          
H30-C9-C8-N11=173.09          H31-C9-C8-C7=294.81           H31-C9-C8-C10=177.71          H31-C9-C8-N11= 53.61          
H32-C10-C8-C7= 67.08          H32-C10-C8-C9=186.03          H32-C10-C8-N11=310.94         H33-C10-C8-C7=187.32          
H33-C10-C8-C9=306.26          H33-C10-C8-N11= 71.18         H34-C10-C8-C7=307.49          H34-C10-C8-C9= 66.43          
H34-C10-C8-N11=191.34         
           -------------------------------------------------
          |                Final Singlepoint                |
           -------------------------------------------------

          ...................................................
          :                      SETUP                      :
          :.................................................:
          :  # basis functions                 134          :
          :  # atomic orbitals                 134          :
          :  # shells                           84          :
          :  # electrons                       136          :
          :  # halogen bonds                     0          :
          :  max. iterations                   250          :
          :  Hamiltonian                  GFN1-xTB          :
          :  restarted?                      false          :
          :  GBSA solvation                   true          :
          :  PC potential                    false          :
          :  electronic temp.          300.0000000     K    :
          :  accuracy                    1.0000000          :
          :  -> integral cutoff          0.2500000E+02      :
          :  -> integral neglect         0.1000000E-07      :
          :  -> SCF convergence          0.1000000E-05 Eh   :
          :  -> wf. convergence          0.2000000E-04 e    :
          :  Broyden damping             0.4000000          :
          ...................................................

 iter      E             dE          RMSdq      gap      omega  full diag
   1    -84.3778975 -0.843779E+02  0.815E-06    0.78       0.0  T
   2    -84.3778975 -0.852651E-12  0.384E-06    0.78    4016.4  T
   3    -84.3778975 -0.852651E-13  0.178E-06    0.78    8684.0  T

   *** convergence criteria satisfied after 3 iterations ***

         #    Occupation            Energy/Eh            Energy/eV
      -------------------------------------------------------------
         1        2.0000           -0.7889095             -21.4673
       ...           ...                  ...                  ...
        62        2.0000           -0.4005421             -10.8993
        63        2.0000           -0.3819670             -10.3939
        64        2.0000           -0.3797034             -10.3323
        65        2.0000           -0.3656013              -9.9485
        66        2.0000           -0.3570462              -9.7157
        67        2.0000           -0.3519026              -9.5758
        68        2.0000           -0.2877498              -7.8301 (HOMO)
        69        0.0000           -0.2591722              -7.0524 (LUMO)
        70                         -0.2208535              -6.0097
        71                         -0.2053050              -5.5866
        72                         -0.1856003              -5.0504
        73                         -0.1285779              -3.4988
       ...                                ...                  ...
       134                          0.7699392              20.9511
      -------------------------------------------------------------
                  HL-Gap            0.0285775 Eh            0.7776 eV
             Fermi-level           -0.2734610 Eh           -7.4413 eV

 SCC (total)                   0 d,  0 h,  0 min,  0.102 sec
 SCC setup                      ...        0 min,  0.002 sec (  1.698%)
 Dispersion                     ...        0 min,  0.000 sec (  0.233%)
 classical contributions        ...        0 min,  0.000 sec (  0.078%)
 integral evaluation            ...        0 min,  0.024 sec ( 23.410%)
 iterations                     ...        0 min,  0.018 sec ( 17.807%)
 molecular gradient             ...        0 min,  0.056 sec ( 55.558%)
 printout                       ...        0 min,  0.001 sec (  1.196%)

         :::::::::::::::::::::::::::::::::::::::::::::::::::::
         ::                     SUMMARY                     ::
         :::::::::::::::::::::::::::::::::::::::::::::::::::::
         :: total energy             -83.634949996948 Eh    ::
         :: total w/o Gsasa/hb       -83.614736839342 Eh    ::
         :: gradient norm              0.000673534836 Eh/a0 ::
         :: HOMO-LUMO gap              0.777634379654 eV    ::
         ::.................................................::
         :: SCC energy               -84.377897533329 Eh    ::
         :: -> electrostatic           0.676248915393 Eh    ::
         :: -> Gsolv                  -0.260631419023 Eh    ::
         ::    -> Gelec               -0.240418261418 Eh    ::
         ::    -> Gsasa               -0.024854169139 Eh    ::
         ::    -> Ghb                 -0.002983267471 Eh    ::
         ::    -> Gshift               0.007624279005 Eh    ::
         :: repulsion energy           0.768394175313 Eh    ::
         :: dispersion energy         -0.025446638932 Eh    ::
         :: halogen bond corr.         0.000000000000 Eh    ::
         :: add. restraining           0.000000000000 Eh    ::
         :: total charge              -2.000000000000 e     ::
         :::::::::::::::::::::::::::::::::::::::::::::::::::::

           -------------------------------------------------
          |                Property Printout                |
           -------------------------------------------------

    * Orbital Energies and Occupations

         #    Occupation            Energy/Eh            Energy/eV
      -------------------------------------------------------------
         1        2.0000           -0.7889095             -21.4673
       ...           ...                  ...                  ...
        56        2.0000           -0.4469799             -12.1629
        57        2.0000           -0.4418841             -12.0243
        58        2.0000           -0.4276826             -11.6378
        59        2.0000           -0.4243587             -11.5474
        60        2.0000           -0.4189683             -11.4007
        61        2.0000           -0.4112397             -11.1904
        62        2.0000           -0.4005421             -10.8993
        63        2.0000           -0.3819670             -10.3939
        64        2.0000           -0.3797034             -10.3323
        65        2.0000           -0.3656013              -9.9485
        66        2.0000           -0.3570462              -9.7157
        67        2.0000           -0.3519026              -9.5758
        68        2.0000           -0.2877498              -7.8301 (HOMO)
        69        0.0000           -0.2591722              -7.0524 (LUMO)
        70                         -0.2208535              -6.0097
        71                         -0.2053050              -5.5866
        72                         -0.1856003              -5.0504
        73                         -0.1285779              -3.4988
        74                         -0.1203214              -3.2741
        75                         -0.1179511              -3.2096
        76                         -0.0969905              -2.6392
        77                         -0.0919901              -2.5032
        78                         -0.0898435              -2.4448
        79                         -0.0875143              -2.3814
       ...                                ...                  ...
       134                          0.7699392              20.9511
      -------------------------------------------------------------
                  HL-Gap            0.0285775 Eh            0.7776 eV
             Fermi-level           -0.2734610 Eh           -7.4413 eV

  Mulliken/CM5 charges         n(s)   n(p)   n(d)
     1C     0.17442  0.05534   0.969  2.857  0.000
     2O    -0.44959 -0.52968   1.694  4.756  0.000
     3C     0.54057  0.60416   0.980  2.480  0.000
     4O    -0.61891 -0.66377   1.734  4.885  0.000
     5C    -0.02344  0.05188   1.038  2.986  0.000
     6N    -0.40107 -0.58512   1.535  3.867  0.000
     7C     0.24447  0.39465   1.015  2.741  0.000
     8C     0.15889  0.19827   1.060  2.781  0.000
     9C    -0.09223 -0.23115   1.012  3.080  0.000
    10C    -0.08571 -0.22461   1.013  3.073  0.000
    11N    -0.44272 -0.77603   1.481  3.962  0.000
    12C     0.34921  0.43490   0.978  2.673  0.000
    13O    -0.74266 -0.78750   1.752  4.991  0.000
    14C     0.11308  0.20003   0.997  2.890  0.000
    15O    -0.43445 -0.48982   1.709  4.726  0.000
    16C     0.39185  0.50345   0.987  2.621  0.000
    17C    -0.11209 -0.24905   1.009  3.103  0.000
    18N    -0.37499 -0.49765   1.587  3.788  0.000
    19N    -0.21733 -0.38087   1.526  3.691  0.000
    20C     0.05510 -0.02730   0.988  2.957  0.000
    21N    -0.30961 -0.65304   1.436  3.874  0.000
    22C     0.42009  0.52427   1.010  2.570  0.000
    23O    -0.62664 -0.66357   1.738  4.888  0.000
    24C     0.28244  0.32749   1.034  2.684  0.000
    25O    -0.64439 -0.68208   1.745  4.899  0.000
    26H     0.02958  0.09124   0.970  0.000  0.000
    27H     0.03002  0.09167   0.970  0.000  0.000
    28H     0.02947  0.08973   0.971  0.000  0.000
    29H     0.03498  0.09349   0.965  0.000  0.000
    30H     0.01849  0.07682   0.982  0.000  0.000
    31H     0.02129  0.07823   0.979  0.000  0.000
    32H     0.01789  0.07584   0.982  0.000  0.000
    33H     0.04104  0.10208   0.959  0.000  0.000
    34H     0.01089  0.06628   0.989  0.000  0.000
    35H     0.19480  0.39920   0.805  0.000  0.000
    36H     0.05103  0.10552   0.949  0.000  0.000
    37H     0.05269  0.10743   0.947  0.000  0.000
    38H     0.04224  0.09851   0.958  0.000  0.000
    39H     0.01692  0.08187   0.983  0.000  0.000
    40H     0.00317  0.06704   0.997  0.000  0.000
    41H     0.00496  0.06948   0.995  0.000  0.000
    42H     0.24625  0.45232   0.754  0.000  0.000

Wiberg/Mayer (AO) data.
largest (>0.10) Wiberg bond orders for each atom

 ---------------------------------------------------------------------------
     #   Z sym  total        # sym  WBO       # sym  WBO       # sym  WBO
 ---------------------------------------------------------------------------
     1   6 C    3.903 --    28 H    0.987    26 H    0.980    27 H    0.980
                             2 O    0.932
     2   8 O    2.132 --     3 C    1.016     1 C    0.932     4 O    0.106
     3   6 C    3.848 --     4 O    1.582     5 C    1.131     2 O    1.016
     4   8 O    1.860 --     3 C    1.582     2 O    0.106
     5   6 C    3.919 --    24 C    1.273     6 N    1.146     3 C    1.131
                            25 O    0.130
     6   7 N    3.021 --     7 C    1.632     5 C    1.146
     7   6 C    3.926 --     6 N    1.632    21 N    1.096     8 C    0.976
     8   6 C    3.966 --     9 C    0.988    10 C    0.980     7 C    0.976
                            11 N    0.966
     9   6 C    3.996 --     8 C    0.988    31 H    0.987    30 H    0.985
                            29 H    0.984
    10   6 C    3.993 --    34 H    0.989    32 H    0.987     8 C    0.980
                            33 H    0.977
    11   7 N    3.075 --     8 C    0.966    12 C    0.946    35 H    0.941
    12   6 C    3.932 --    14 C    1.521    13 O    1.335    11 N    0.946
    13   8 O    1.700 --    12 C    1.335    14 C    0.172
    14   6 C    3.661 --    12 C    1.521    19 N    0.947    15 O    0.873
                            13 O    0.172
    15   8 O    2.190 --    16 C    1.088    14 C    0.873    18 N    0.133
    16   6 C    3.906 --    18 N    1.709    15 O    1.088    17 C    1.014
    17   6 C    3.995 --    16 C    1.014    38 H    0.987    37 H    0.973
                            36 H    0.972
    18   7 N    2.947 --    16 C    1.709    19 N    0.987    15 O    0.133
    19   7 N    3.063 --    18 N    0.987    20 C    0.969    14 C    0.947
    20   6 C    3.981 --    41 H    0.989    39 H    0.987    40 H    0.984
                            19 N    0.969
    21   7 N    3.438 --    22 C    1.178     7 C    1.096    42 H    0.892
                            23 O    0.136
    22   6 C    3.882 --    23 O    1.559    21 N    1.178    24 C    0.971
    23   8 O    1.838 --    22 C    1.559    21 N    0.136
    24   6 C    3.944 --    25 O    1.510     5 C    1.273    22 C    0.971
    25   8 O    1.814 --    24 C    1.510     5 C    0.130
    26   1 H    1.015 --     1 C    0.980
    27   1 H    1.015 --     1 C    0.980
    28   1 H    1.017 --     1 C    0.987
    29   1 H    1.017 --     9 C    0.984
    30   1 H    1.019 --     9 C    0.985
    31   1 H    1.008 --     9 C    0.987
    32   1 H    1.012 --    10 C    0.987
    33   1 H    1.032 --    10 C    0.977
    34   1 H    1.010 --    10 C    0.989
    35   1 H    0.981 --    11 N    0.941
    36   1 H    1.004 --    17 C    0.972
    37   1 H    1.003 --    17 C    0.973
    38   1 H    1.006 --    17 C    0.987
    39   1 H    1.034 --    20 C    0.987
    40   1 H    1.021 --    20 C    0.984
    41   1 H    1.025 --    20 C    0.989
    42   1 H    0.963 --    21 N    0.892
 ---------------------------------------------------------------------------

Topologies differ in total number of bonds
Writing topology from bond orders to xtbtopo.mol

 dipole moment from electron density (au)
     X       Y       Z   
   3.6056   2.3439   4.3669  total (Debye):   15.578

           -------------------------------------------------
          |                Geometry Summary                 |
           -------------------------------------------------

      molecular mass/u    :      351.3152409
   center of mass at/Å    :       -0.3466978      -0.0444529      -0.4038209
  moments of inertia/u·Å² :        0.1286834E+04   0.4977214E+04   0.5457783E+04
rotational constants/cm⁻¹ :        0.1310008E-01   0.3386962E-02   0.3088733E-02

 * 33 selected distances

     #   Z          #   Z                                           value/Å
     1   6 C        2   8 O                                       1.4179705
     2   8 O        3   6 C                                       1.3733360
     3   6 C        4   8 O                                       1.2235706
     6   7 N        7   6 C                                       1.2822051
     8   6 C        9   6 C                                       1.5368187
     8   6 C       10   6 C                                       1.5402370 (max)
     8   6 C       11   7 N                                       1.4650243
    12   6 C       14   6 C                                       1.3631713
    15   8 O       16   6 C                                       1.3367802
    16   6 C       17   6 C                                       1.4906084
    16   6 C       18   7 N                                       1.2782297
    19   7 N       20   6 C                                       1.4718190
     7   6 C       21   7 N                                       1.3795970
    21   7 N       22   6 C                                       1.3655432
    22   6 C       23   8 O                                       1.2327703
     5   6 C       24   6 C                                       1.4198383
     1   6 C       26   1 H                                       1.0952534
     1   6 C       27   1 H                                       1.0951991
     1   6 C       28   1 H                                       1.0893616
     9   6 C       29   1 H                                       1.0891270
     9   6 C       30   1 H                                       1.0901303
     9   6 C       31   1 H                                       1.0899619
    10   6 C       32   1 H                                       1.0899305
    10   6 C       33   1 H                                       1.0886296
    10   6 C       34   1 H                                       1.0906410
    11   7 N       35   1 H                                       1.0174496
    17   6 C       36   1 H                                       1.0898110
    17   6 C       37   1 H                                       1.0892624
    17   6 C       38   1 H                                       1.0871341
    20   6 C       39   1 H                                       1.0900239
    20   6 C       40   1 H                                       1.0949229
    20   6 C       41   1 H                                       1.0894047
    21   7 N       42   1 H                                       1.0113771 (min)

 * 5 distinct bonds (by element types)

   Z      Z             #   av. dist./Å        max./Å        min./Å
   1 H    6 C          15     1.0905862     1.0952534     1.0871341
   6 C    6 C           5     1.4701347     1.5402370     1.3631713
   1 H    7 N           2     1.0144134     1.0174496     1.0113771
   6 C    7 N           6     1.3737364     1.4718190     1.2782297
   6 C    8 O           5     1.3168855     1.4179705     1.2235706


optimized geometry written to: xtbopt.xyz


           -------------------------------------------------
          | TOTAL ENERGY              -83.634949996948 Eh   |
          | GRADIENT NORM               0.000673534836 Eh/α |
          | HOMO-LUMO GAP               0.777634379654 eV   |
           -------------------------------------------------

------------------------------------------------------------------------
 * finished run on 2023/06/21 at 17:10:43.981     
------------------------------------------------------------------------
 total:
 * wall-time:     0 d,  0 h,  0 min,  5.328 sec
 *  cpu-time:     0 d,  0 h,  0 min,  5.271 sec
 * ratio c/w:     0.989 speedup
 SCF:
 * wall-time:     0 d,  0 h,  0 min,  0.154 sec
 *  cpu-time:     0 d,  0 h,  0 min,  0.154 sec
 * ratio c/w:     0.998 speedup
 ANC optimizer:
 * wall-time:     0 d,  0 h,  0 min,  5.104 sec
 *  cpu-time:     0 d,  0 h,  0 min,  5.080 sec
 * ratio c/w:     0.995 speedup

