42
 energy: -82.986341977094 gnorm: 0.000398079613 xtb: 6.5.1 (579679a)
C            6.61259608471273        1.12147851836546       -0.96911965680204
O            5.20750361485357        1.41499991667463       -0.93827143057388
C            4.40998477642279        0.43142738801140       -0.50216673168431
O            4.82729366774014       -0.64545447102718       -0.15284617813645
C            2.96629875310273        0.80988760615386       -0.49055314103446
N            2.15591049831610       -0.14117380720961        0.01657405073784
C            0.86295509552042        0.07899913950266        0.07268239918852
C            0.00986520189289       -1.00963365793538        0.69050689844970
C            0.39646244835963       -2.36986731952210        0.09613341379360
C            0.24378831924345       -0.98521647641498        2.21004239641022
N           -1.39123872753826       -0.71001471548591        0.39439275172735
C           -2.40900468199967       -1.45394960869720        0.82924826095925
O           -2.31857131072197       -2.47648344631966        1.48898485774260
C           -3.80899416930539       -0.91118975136736        0.44426348809240
C           -4.58014830333537       -0.54399212925338        1.71180385600043
N           -4.52242880108991       -1.95862604688187       -0.28424281492980
N           -4.84049015185032       -1.55000905779371       -1.41044683773383
C           -4.40148352001916       -0.22660985546227       -1.58297278729408
C           -4.61150458332683        0.50798796712454       -2.67214482152400
O           -3.74373770958609        0.16965618803716       -0.45983226052918
N            0.26723272921129        1.21215697716690       -0.33175052951992
C            1.02833493233030        2.16532363956544       -0.82526696752938
O            0.46863356571198        3.30882287484552       -1.22036031043897
C            2.43743672265994        2.01234906208705       -0.94218482566528
O            3.12815034285092        3.03250612645848       -1.47084108718646
H            7.11391959412251        2.03494034535736       -1.27918543648040
H            6.94970236531656        0.81843382773605        0.02459594769635
H            6.80694996976485        0.31782141358430       -1.68259903930777
H            1.46610382230153       -2.52501339389868        0.23030477377853
H           -0.14691352993075       -3.17013099354718        0.59544899800645
H            0.16623316557356       -2.38892255215211       -0.96830187944396
H            1.30687123252086       -1.11164894137723        2.40940646635465
H           -0.30955635895964       -1.78938958673899        2.69168294555767
H           -0.08391008455420       -0.03050254169100        2.61801851170293
H           -1.57411708399770        0.15905753913141       -0.09027859365156
H           -4.09510935922424        0.30149358546650        2.19350466623821
H           -5.60031122327166       -0.27205286784170        1.45052648508260
H           -4.58543478883392       -1.39804392344654        2.38612486666007
H           -0.48342044146134        3.30148617059363       -1.05766602245329
H           -5.14353853231468        0.09269454247995       -3.51161021729094
H           -4.26552686414700        1.52537251450557       -2.74375919827110
H            4.08321032294807        2.85102780123555       -1.50958626672299
