33
 energy: -57.863314299400 gnorm: 0.000210593415 xtb: 6.5.1 (579679a)
C           -2.59465608864512       -3.77822183442149       -0.97640185633510
O           -1.68612046681746       -2.69442915687312       -0.71837053428519
C           -2.18054855249186       -1.48061284486263       -0.76437306831976
O           -3.33932375687491       -1.21933051964607       -1.02105942041305
C           -1.18137237416271       -0.40903458598617       -0.45493077454950
N            0.08574659588317       -0.78088621785853       -0.19831831334587
C            0.98197800908557        0.11900211843415        0.09342613661794
C            2.40209295389132       -0.26854983129739        0.45593380011234
C            2.55502291479434       -1.78952195902628        0.38823548453392
C            3.39912104950208        0.42542977320004       -0.47853154494659
N            2.65335571600374        0.17421780462416        1.82206544877986
N            0.63118555512238        1.43726401646509        0.14869468631394
C           -0.60674160285629        1.89058811999750       -0.09709638867764
O           -0.73471966678138        3.18620917029168        0.00962067390411
C           -1.97735907175123        3.88070748427876       -0.20135789131520
C           -1.59073504819438        0.92234839135692       -0.42896340578424
O           -2.83107557058275        1.31697402657303       -0.68660324634440
H           -2.01463847720880       -4.69326892848798       -0.87984622294315
H           -3.00410767145305       -3.68365469461538       -1.98367453371203
H           -3.40697000665430       -3.75581989705676       -0.24770791518733
H            1.83021343085017       -2.26813405946289        1.04518918622946
H            3.55961295324528       -2.06309239697826        0.70736355937030
H            2.39077151421744       -2.13971745671963       -0.62988905362745
H            3.23492152129612        0.11168198311142       -1.50824681384735
H            4.41237175042705        0.16133070629564       -0.17867115325593
H            3.28995558586345        1.50680036258634       -0.41819123523407
H            2.69047790584776        1.18111392059797        1.86842200349112
H            1.91786055967107       -0.14746803516951        2.43602141925739
H            1.32032570800478        2.13498078851492        0.40069457563487
H           -2.32208202453694        3.73084285525340       -1.22497193580118
H           -1.74933811307159        4.93106604401729       -0.02543795073033
H           -2.72900644964037        3.52984419902587        0.50622547830727
H           -3.40621878198458        0.53134165383631       -0.88856419389825
