      -----------------------------------------------------------      
     |                   =====================                   |     
     |                           x T B                           |     
     |                   =====================                   |     
     |                         S. Grimme                         |     
     |          Mulliken Center for Theoretical Chemistry        |     
     |                    University of Bonn                     |     
      -----------------------------------------------------------      

   * xtb version 6.5.1 (579679a) compiled by 'ehlert@majestix' on 2022-07-11

   xtb is free software: you can redistribute it and/or modify it under
   the terms of the GNU Lesser General Public License as published by
   the Free Software Foundation, either version 3 of the License, or
   (at your option) any later version.
   
   xtb is distributed in the hope that it will be useful,
   but WITHOUT ANY WARRANTY; without even the implied warranty of
   MERCHANTABILITY or FITNESS FOR A PARTICULAR PURPOSE.  See the
   GNU Lesser General Public License for more details.
   
   Cite this work as:
   * C. Bannwarth, E. Caldeweyher, S. Ehlert, A. Hansen, P. Pracht,
     J. Seibert, S. Spicher, S. Grimme, WIREs Comput. Mol. Sci., 2020, 11,
     e01493. DOI: 10.1002/wcms.1493
   
   for GFN2-xTB:
   * C. Bannwarth, S. Ehlert and S. Grimme., J. Chem. Theory Comput., 2019,
     15, 1652-1671. DOI: 10.1021/acs.jctc.8b01176
   for GFN1-xTB:
   * S. Grimme, C. Bannwarth, P. Shushkov, J. Chem. Theory Comput., 2017,
     13, 1989-2009. DOI: 10.1021/acs.jctc.7b00118
   for GFN0-xTB:
   * P. Pracht, E. Caldeweyher, S. Ehlert, S. Grimme, ChemRxiv, 2019, preprint.
     DOI: 10.26434/chemrxiv.8326202.v1
   for GFN-FF:
   * S. Spicher and S. Grimme, Angew. Chem. Int. Ed., 2020, 59, 15665-15673.
     DOI: 10.1002/anie.202004239
   
   for ALPB and GBSA implicit solvation:
   * S. Ehlert, M. Stahn, S. Spicher, S. Grimme, J. Chem. Theory Comput.,
     2021, 17, 4250-4261. DOI: 10.1021/acs.jctc.1c00471
   
   for DFT-D4:
   * E. Caldeweyher, C. Bannwarth and S. Grimme, J. Chem. Phys., 2017,
     147, 034112. DOI: 10.1063/1.4993215
   * E. Caldeweyher, S. Ehlert, A. Hansen, H. Neugebauer, S. Spicher,
     C. Bannwarth and S. Grimme, J. Chem. Phys., 2019, 150, 154122.
     DOI: 10.1063/1.5090222
   * E. Caldeweyher, J.-M. Mewes, S. Ehlert and S. Grimme, Phys. Chem. Chem. Phys.
     2020, 22, 8499-8512. DOI: 10.1039/D0CP00502A
   
   for sTDA-xTB:
   * S. Grimme and C. Bannwarth, J. Chem. Phys., 2016, 145, 054103.
     DOI: 10.1063/1.4959605
   
   in the mass-spec context:
   * V. Asgeirsson, C. Bauer and S. Grimme, Chem. Sci., 2017, 8, 4879.
     DOI: 10.1039/c7sc00601b
   * J. Koopman and S. Grimme, ACS Omega 2019, 4, 12, 15120-15133.
     DOI: 10.1021/acsomega.9b02011
   
   for metadynamics refer to:
   * S. Grimme, J. Chem. Theory Comput., 2019, 155, 2847-2862
     DOI: 10.1021/acs.jctc.9b00143
   
   for SPH calculations refer to:
   * S. Spicher and S. Grimme, J. Chem. Theory Comput., 2021, 17, 1701-1714
     DOI: 10.1021/acs.jctc.0c01306
   
   with help from (in alphabetical order)
   P. Atkinson, C. Bannwarth, F. Bohle, G. Brandenburg, E. Caldeweyher
   M. Checinski, S. Dohm, S. Ehlert, S. Ehrlich, I. Gerasimov, C. Hölzer
   A. Katbashev, J. Koopman, C. Lavigne, S. Lehtola, F. März, M. Müller,
   F. Musil, H. Neugebauer, J. Pisarek, C. Plett, P. Pracht, F. Pultar,
   J. Seibert, P. Shushkov, S. Spicher, M. Stahn, M. Steiner, T. Strunk,
   J. Stückrath, T. Rose, and J. Unsleber
   
 * started run on 2023/06/21 at 17:28:53.522     

           -------------------------------------------------
          |                Calculation Setup                |
           -------------------------------------------------

          program call               : /lustre/hpc/kemi/ree/PhD/git/ReactivityQM/dep/xtb-6.5.1/bin/xtb --gfn 1 /lustre/hpc/kemi/ree/PhD/git/ReactivityQM/calculations/R02oxygendeprot/reac01prodN13/conf01/R02oxygendeprot_reac01prodN13_conf01_gfn1.xyz --opt --vfukui --chrg 0 --uhf 0 --alpb DMSO
          hostname                   : node070
          coordinate file            : /lustre/hpc/kemi/ree/PhD/git/ReactivityQM/calculations/R02oxygendeprot/reac01prodN13/conf01/R02oxygendeprot_reac01prodN13_conf01_gfn1.xyz
          omp threads                :                     1

   ID    Z sym.   atoms
    1    6 C      1, 3, 5, 7-10, 12, 14, 17-19, 22, 24
    2    8 O      2, 4, 13, 20, 23, 25
    3    7 N      6, 11, 15, 16, 21
    4    1 H      26-42

           -------------------------------------------------
          |                 G F N 1 - x T B                 |
           -------------------------------------------------

        Reference                      10.1021/acs.jctc.7b00118
      * Hamiltonian:
        H0-scaling (s, p, d)           1.850000    2.250000    2.000000
        zeta-weighting                 0.000000
      * Dispersion:
        s8                             2.400000
        a1                             0.630000
        a2                             5.000000
        s9                             0.000000
      * Repulsion:
        kExp                           1.500000
        rExp                           1.000000
      * Coulomb:
        alpha                          2.000000
        third order                    atomic
        anisotropic                    false
      * Halogen bond correction:
        rad-scale                      1.300000
        damping                        0.440000

      * Solvation model:               ALPB
        Solvent                        DMSO
        Parameter file                 internal GFN1-xTB/ALPB
        Dielectric constant                4.6680E+01
        Reference state                gsolv [1 M gas/solution]
        Free energy shift                  7.6243E-03 Eh       4.7843E+00 kcal/mol
        Temperature                        2.9815E+02 K
        Density                            1.1000E+00 kg/L
        Solvent mass                       7.8130E+01 g/mol
        Interaction kernel             P16
        Born radius scaling (c1)           1.7672E+00
        Born radii integrator          GBOBC
        Born offset                        0.0000E+00 a0       0.0000E+00 AA
        H-bond correction              true
        Ion screening                  false
        Surface tension                    1.0000E-05 Eh       1.5569E+01 dyn/cm
        Grid points                               230 per atom

          ...................................................
          :                      SETUP                      :
          :.................................................:
          :  # basis functions                 134          :
          :  # atomic orbitals                 134          :
          :  # shells                           84          :
          :  # electrons                       134          :
          :  # halogen bonds                     0          :
          :  max. iterations                   250          :
          :  Hamiltonian                  GFN1-xTB          :
          :  restarted?                      false          :
          :  GBSA solvation                   true          :
          :  PC potential                    false          :
          :  electronic temp.          300.0000000     K    :
          :  accuracy                    1.0000000          :
          :  -> integral cutoff          0.2500000E+02      :
          :  -> integral neglect         0.1000000E-07      :
          :  -> SCF convergence          0.1000000E-05 Eh   :
          :  -> wf. convergence          0.2000000E-04 e    :
          :  Broyden damping             0.4000000          :
          ...................................................

 iter      E             dE          RMSdq      gap      omega  full diag
   1    -83.2401042 -0.832401E+02  0.848E+00    1.06       0.0  T
   2    -83.4412082 -0.201104E+00  0.523E+00    0.28       1.0  T
   3    -83.4364380  0.477012E-02  0.306E+00    0.40       1.0  T
   4    -83.6034542 -0.167016E+00  0.109E+00    1.57       1.0  T
   5    -83.6495595 -0.461053E-01  0.566E-01    0.04       1.0  T
   6    -83.6228052  0.267543E-01  0.808E-01    0.70       1.0  T
   7    -83.6328703 -0.100651E-01  0.685E-01    0.28       1.0  T
   8    -83.5023945  0.130476E+00  0.124E+00    0.23       1.0  T
   9    -83.6776995 -0.175305E+00  0.257E-01    0.08       1.0  T
  10    -83.6393624  0.383371E-01  0.625E-01    0.20       1.0  T
  11    -83.6751441 -0.357817E-01  0.286E-01    0.03       1.0  T
  12    -83.6776397 -0.249562E-02  0.251E-01    0.08       1.0  T
  13    -83.6841998 -0.656006E-02  0.923E-02    0.04       1.0  T
  14    -83.6851722 -0.972396E-03  0.246E-02    0.05       1.0  T
  15    -83.6851338  0.384057E-04  0.301E-02    0.04       1.0  T
  16    -83.6852414 -0.107635E-03  0.496E-03    0.05       3.1  T
  17    -83.6852411  0.335842E-06  0.525E-03    0.05       2.9  T
  18    -83.6852444 -0.334136E-05  0.279E-04    0.05      55.3  T
  19    -83.6852444  0.431520E-08  0.338E-04    0.05      45.6  T
  20    -83.6852444 -0.138531E-07  0.365E-05    0.05     422.2  T
  21    -83.6852444  0.151786E-09  0.508E-05    0.05     303.8  T

   *** convergence criteria satisfied after 21 iterations ***

         #    Occupation            Energy/Eh            Energy/eV
      -------------------------------------------------------------
         1        2.0000           -0.8702953             -23.6819
       ...           ...                  ...                  ...
        61        2.0000           -0.4807251             -13.0812
        62        2.0000           -0.4785153             -13.0211
        63        2.0000           -0.4718592             -12.8399
        64        2.0000           -0.4647203             -12.6457
        65        2.0000           -0.4622159             -12.5775
        66        2.0000           -0.4274285             -11.6309
        67        1.4238           -0.4116156             -11.2006 (HOMO)
        68        0.5762           -0.4098967             -11.1539 (LUMO)
        69                         -0.3263700              -8.8810
        70                         -0.3188119              -8.6753
        71                         -0.2933707              -7.9830
        72                         -0.2396464              -6.5211
       ...                                ...                  ...
       134                          0.7650491              20.8180
      -------------------------------------------------------------
                  HL-Gap            0.0017190 Eh            0.0468 eV
             Fermi-level           -0.4107561 Eh          -11.1772 eV

 SCC (total)                   0 d,  0 h,  0 min,  0.205 sec
 SCC setup                      ...        0 min,  0.002 sec (  0.840%)
 Dispersion                     ...        0 min,  0.000 sec (  0.139%)
 classical contributions        ...        0 min,  0.000 sec (  0.043%)
 integral evaluation            ...        0 min,  0.026 sec ( 12.641%)
 iterations                     ...        0 min,  0.119 sec ( 57.948%)
 molecular gradient             ...        0 min,  0.057 sec ( 27.753%)
 printout                       ...        0 min,  0.001 sec (  0.624%)

         :::::::::::::::::::::::::::::::::::::::::::::::::::::
         ::                     SUMMARY                     ::
         :::::::::::::::::::::::::::::::::::::::::::::::::::::
         :: total energy             -82.923782214507 Eh    ::
         :: total w/o Gsasa/hb       -82.903446507190 Eh    ::
         :: gradient norm              0.099199791852 Eh/a0 ::
         :: HOMO-LUMO gap              0.046775869960 eV    ::
         ::.................................................::
         :: SCC energy               -83.685244440067 Eh    ::
         :: -> electrostatic           0.379354798233 Eh    ::
         :: -> Gsolv                  -0.065160964194 Eh    ::
         ::    -> Gelec               -0.044825256876 Eh    ::
         ::    -> Gsasa               -0.023978358581 Eh    ::
         ::    -> Ghb                 -0.003981627741 Eh    ::
         ::    -> Gshift               0.007624279005 Eh    ::
         :: repulsion energy           0.786978873133 Eh    ::
         :: dispersion energy         -0.025516647573 Eh    ::
         :: halogen bond corr.         0.000000000000 Eh    ::
         :: add. restraining           0.000000000000 Eh    ::
         :: total charge              -0.000000000000 e     ::
         :::::::::::::::::::::::::::::::::::::::::::::::::::::

      ----------------------------------------------------------- 
     |                   =====================                   |
     |                        A N C O P T                        |
     |                   =====================                   |
     |               Approximate Normal Coordinate               |
     |                Rational Function Optimizer                |
      ----------------------------------------------------------- 

          ...................................................
          :                      SETUP                      :
          :.................................................:
          :   optimization level            normal          :
          :   max. optcycles                   200          :
          :   ANC micro-cycles                  20          :
          :   degrees of freedom               120          :
          :.................................................:
          :   RF solver                   davidson          :
          :   write xtbopt.log                true          :
          :   linear?                        false          :
          :   energy convergence         0.5000000E-05 Eh   :
          :   grad. convergence          0.1000000E-02 Eh/α :
          :   maximium RF displ.         1.0000000          :
          :   Hlow (freq-cutoff)         0.1000000E-01      :
          :   Hmax (freq-cutoff)         5.0000000          :
          :   S6 in model hess.         20.0000000          :
          ...................................................

generating ANC from model Hessian ...
Using Lindh-Hessian (1995)
 Shifting diagonal of input Hessian by   9.771154290110993E-003
 Lowest  eigenvalues of input Hessian
    0.000000    0.000000    0.000000    0.000000    0.000000    0.000000
    0.010000    0.010109    0.010363    0.010634    0.011944    0.012534
    0.012868    0.013666    0.014501    0.015233    0.016922    0.017886
 Highest eigenvalues
    2.084129    2.092355    2.236171    2.332307    2.361718    2.455182
 

........................................................................
.............................. CYCLE    1 ..............................
........................................................................
   1    -83.6852444 -0.836852E+02  0.361E-05    0.05       0.0  T
   2    -83.6852444  0.570481E-07  0.687E-04    0.05      22.5  T
   3    -83.6852444 -0.572057E-07  0.272E-07    0.05   56671.4  T
   4    -83.6852444  0.213163E-12  0.106E-06    0.05   14620.5  T
     SCC iter.                  ...        0 min,  0.022 sec
     gradient                   ...        0 min,  0.057 sec
 * total energy  :   -82.9237822 Eh     change       -0.3160636E-09 Eh
   gradient norm :     0.0991971 Eh/α   predicted     0.0000000E+00 (-100.00%)
   displ. norm   :     0.3102491 α      lambda       -0.1377603E-01
   maximum displ.:     0.1739536 α      in ANC's #21, #60, #23, ...

........................................................................
.............................. CYCLE    2 ..............................
........................................................................
   1    -83.6597374 -0.836597E+02  0.532E-01    0.15       0.0  T
   2    -83.4477634  0.211974E+00  0.162E+00    0.45       1.0  T
   3    -83.5027711 -0.550078E-01  0.128E+00    0.23       1.0  T
   4    -83.6771083 -0.174337E+00  0.377E-01    0.03       1.0  T
   5    -83.6891442 -0.120359E-01  0.207E-01    0.07       1.0  T
   6    -83.6927719 -0.362773E-02  0.113E-01    0.04       1.0  T
   7    -83.6942514 -0.147952E-02  0.213E-02    0.05       1.0  T
   8    -83.6941292  0.122195E-03  0.381E-02    0.05       1.0  T
   9    -83.6942991 -0.169918E-03  0.667E-03    0.05       2.3  T
  10    -83.6943036 -0.447925E-05  0.279E-03    0.05       5.5  T
  11    -83.6943043 -0.653668E-06  0.155E-03    0.05       9.9  T
  12    -83.6943046 -0.289110E-06  0.846E-05    0.05     182.3  T
  13    -83.6943046 -0.818048E-09  0.113E-05    0.05    1369.2  T
     SCC iter.                  ...        0 min,  0.070 sec
     gradient                   ...        0 min,  0.056 sec
 * total energy  :   -82.9338804 Eh     change       -0.1009821E-01 Eh
   gradient norm :     0.0505124 Eh/α   predicted    -0.7559588E-02 ( -25.14%)
   displ. norm   :     0.3488109 α      lambda       -0.6561282E-02
   maximum displ.:     0.2171622 α      in ANC's #21, #18, #13, ...

........................................................................
.............................. CYCLE    3 ..............................
........................................................................
   1    -83.6690553 -0.836691E+02  0.517E-01    0.15       0.0  T
   2    -83.4426007  0.226455E+00  0.165E+00    0.44       1.0  T
   3    -83.5039563 -0.613556E-01  0.129E+00    0.20       1.0  T
   4    -83.7008191 -0.196863E+00  0.320E-02    0.05       1.0  T
   5    -83.6996212  0.119798E-02  0.105E-01    0.06       1.0  T
   6    -83.6997006 -0.794690E-04  0.100E-01    0.04       1.0  T
   7    -83.7007654 -0.106476E-02  0.337E-02    0.05       1.0  T
   8    -83.7008761 -0.110705E-03  0.143E-02    0.05       1.1  T
   9    -83.7008923 -0.161731E-04  0.818E-03    0.05       1.9  T
  10    -83.7009002 -0.787667E-05  0.980E-04    0.05      15.7  T
  11    -83.7009002 -0.799763E-07  0.539E-04    0.05      28.6  T
  12    -83.7009003 -0.342766E-07  0.391E-05    0.05     394.5  T
  13    -83.7009003 -0.169081E-09  0.102E-05    0.05    1517.8  T
     SCC iter.                  ...        0 min,  0.069 sec
     gradient                   ...        0 min,  0.056 sec
 * total energy  :   -82.9377393 Eh     change       -0.3858914E-02 Eh
   gradient norm :     0.0136375 Eh/α   predicted    -0.3679793E-02 (  -4.64%)
   displ. norm   :     0.1775325 α      lambda       -0.7393879E-03
   maximum displ.:     0.0980795 α      in ANC's #21, #2, #13, ...

........................................................................
.............................. CYCLE    4 ..............................
........................................................................
   1    -83.6997295 -0.836997E+02  0.140E-01    0.07       0.0  T
   2    -83.4828134  0.216916E+00  0.139E+00    0.29       1.0  T
   3    -83.6999233 -0.217110E+00  0.133E-01    0.04       1.0  T
   4    -83.7001680 -0.244757E-03  0.127E-01    0.06       1.0  T
   5    -83.7020168 -0.184879E-02  0.195E-02    0.05       1.0  T
   6    -83.7020517 -0.348270E-04  0.766E-03    0.05       2.0  T
   7    -83.7020512  0.455819E-06  0.816E-03    0.05       1.9  T
   8    -83.7020590 -0.778103E-05  0.597E-04    0.05      25.8  T
   9    -83.7020590 -0.413358E-07  0.993E-05    0.05     155.3  T
  10    -83.7020590 -0.111343E-08  0.207E-05    0.05     744.0  T
     SCC iter.                  ...        0 min,  0.052 sec
     gradient                   ...        0 min,  0.055 sec
 * total energy  :   -82.9382513 Eh     change       -0.5119630E-03 Eh
   gradient norm :     0.0075946 Eh/α   predicted    -0.3813510E-03 ( -25.51%)
   displ. norm   :     0.1803638 α      lambda       -0.3642470E-03
   maximum displ.:     0.1068035 α      in ANC's #2, #13, #21, ...

........................................................................
.............................. CYCLE    5 ..............................
........................................................................
   1    -83.7031547 -0.837032E+02  0.249E-02    0.05       0.0  T
   2    -83.6744906  0.286642E-01  0.493E-01    0.03       1.0  T
   3    -83.7031924 -0.287018E-01  0.166E-02    0.05       1.0  T
   4    -83.7031793  0.130847E-04  0.192E-02    0.05       1.0  T
   5    -83.7032100 -0.307048E-04  0.938E-03    0.05       1.6  T
   6    -83.7032199 -0.986229E-05  0.594E-04    0.05      26.0  T
   7    -83.7032199 -0.333901E-07  0.194E-04    0.05      79.5  T
   8    -83.7032199 -0.400736E-08  0.423E-05    0.05     364.4  T
     SCC iter.                  ...        0 min,  0.042 sec
     gradient                   ...        0 min,  0.055 sec
 * total energy  :   -82.9385016 Eh     change       -0.2503301E-03 Eh
   gradient norm :     0.0048544 Eh/α   predicted    -0.1880519E-03 ( -24.88%)
   displ. norm   :     0.1787432 α      lambda       -0.1922978E-03
   maximum displ.:     0.1191989 α      in ANC's #2, #6, #13, ...

........................................................................
.............................. CYCLE    6 ..............................
........................................................................
   1    -83.7040365 -0.837040E+02  0.913E-03    0.05       0.0  T
   2    -83.7015050  0.253151E-02  0.148E-01    0.07       1.0  T
   3    -83.7040346 -0.252960E-02  0.102E-02    0.05       1.5  T
   4    -83.7040431 -0.857468E-05  0.495E-03    0.05       3.1  T
   5    -83.7040445 -0.140404E-05  0.297E-03    0.05       5.2  T
   6    -83.7040455 -0.977269E-06  0.427E-04    0.05      36.2  T
   7    -83.7040455 -0.213051E-07  0.596E-05    0.05     258.8  T
   8    -83.7040455 -0.347953E-09  0.166E-05    0.05     930.1  T
     SCC iter.                  ...        0 min,  0.042 sec
     gradient                   ...        0 min,  0.056 sec
 * total energy  :   -82.9386508 Eh     change       -0.1491435E-03 Eh
   gradient norm :     0.0046323 Eh/α   predicted    -0.9925133E-04 ( -33.45%)
   displ. norm   :     0.2338604 α      lambda       -0.2015925E-03
   maximum displ.:     0.1550441 α      in ANC's #2, #6, #13, ...

........................................................................
.............................. CYCLE    7 ..............................
........................................................................
   1    -83.7045998 -0.837046E+02  0.132E-02    0.05       0.0  T
   2    -83.6990838  0.551601E-02  0.218E-01    0.08       1.0  T
   3    -83.7046091 -0.552527E-02  0.993E-03    0.05       1.6  T
   4    -83.7046197 -0.106563E-04  0.263E-03    0.05       5.9  T
   5    -83.7046198 -0.707503E-07  0.226E-03    0.05       6.8  T
   6    -83.7046204 -0.559569E-06  0.494E-04    0.05      31.2  T
   7    -83.7046204 -0.283497E-07  0.273E-05    0.05     565.5  T
   8    -83.7046204 -0.324007E-11  0.196E-05    0.05     786.9  T
     SCC iter.                  ...        0 min,  0.041 sec
     gradient                   ...        0 min,  0.056 sec
 * total energy  :   -82.9388141 Eh     change       -0.1633637E-03 Eh
   gradient norm :     0.0045661 Eh/α   predicted    -0.1063104E-03 ( -34.92%)
   displ. norm   :     0.2903041 α      lambda       -0.2127165E-03
   maximum displ.:     0.1923387 α      in ANC's #2, #6, #1, ...

........................................................................
.............................. CYCLE    8 ..............................
........................................................................
   1    -83.7047903 -0.837048E+02  0.428E-03    0.05       0.0  T
   2    -83.7047898  0.552837E-06  0.383E-03    0.05       4.0  T
   3    -83.7046337  0.156037E-03  0.368E-02    0.05       1.0  T
   4    -83.7047902 -0.156415E-03  0.342E-03    0.05       4.5  T
   5    -83.7047911 -0.942434E-06  0.153E-03    0.05      10.1  T
   6    -83.7047913 -0.242479E-06  0.201E-04    0.05      76.8  T
   7    -83.7047913 -0.355632E-08  0.636E-05    0.05     242.7  T
   8    -83.7047913 -0.411220E-09  0.130E-05    0.05    1187.2  T
     SCC iter.                  ...        0 min,  0.041 sec
     gradient                   ...        0 min,  0.057 sec
 * total energy  :   -82.9389828 Eh     change       -0.1686999E-03 Eh
   gradient norm :     0.0043408 Eh/α   predicted    -0.1153256E-03 ( -31.64%)
   displ. norm   :     0.2769846 α      lambda       -0.1643478E-03
   maximum displ.:     0.1884877 α      in ANC's #2, #6, #1, ...

........................................................................
.............................. CYCLE    9 ..............................
........................................................................
   1    -83.7048361 -0.837048E+02  0.147E-02    0.05       0.0  T
   2    -83.6944515  0.103845E-01  0.298E-01    0.03       1.0  T
   3    -83.7048603 -0.104088E-01  0.221E-03    0.05       7.0  T
   4    -83.7048597  0.594844E-06  0.300E-03    0.05       5.1  T
   5    -83.7048603 -0.625537E-06  0.169E-03    0.05       9.1  T
   6    -83.7048606 -0.308330E-06  0.105E-04    0.05     146.6  T
   7    -83.7048606  0.124022E-08  0.131E-04    0.05     117.6  T
     SCC iter.                  ...        0 min,  0.037 sec
     gradient                   ...        0 min,  0.058 sec
 * total energy  :   -82.9391126 Eh     change       -0.1297419E-03 Eh
   gradient norm :     0.0036429 Eh/α   predicted    -0.8848618E-04 ( -31.80%)
   displ. norm   :     0.2272583 α      lambda       -0.1109329E-03
   maximum displ.:     0.1603278 α      in ANC's #2, #1, #3, ...

........................................................................
.............................. CYCLE   10 ..............................
........................................................................
   1    -83.7049869 -0.837050E+02  0.186E-02    0.05       0.0  T
   2    -83.6874293  0.175576E-01  0.386E-01    0.03       1.0  T
   3    -83.7050266 -0.175973E-01  0.208E-03    0.05       7.4  T
   4    -83.7050266  0.981130E-08  0.155E-03    0.05      10.0  T
   5    -83.7050268 -0.187831E-06  0.431E-04    0.05      35.8  T
   6    -83.7050268  0.312269E-09  0.163E-04    0.05      94.8  T
   7    -83.7050268 -0.248752E-08  0.668E-05    0.05     231.1  T
     SCC iter.                  ...        0 min,  0.037 sec
     gradient                   ...        0 min,  0.056 sec
 * total energy  :   -82.9392031 Eh     change       -0.9050374E-04 Eh
   gradient norm :     0.0026757 Eh/α   predicted    -0.5833294E-04 ( -35.55%)
   displ. norm   :     0.1848752 α      lambda       -0.8304490E-04
   maximum displ.:     0.1329891 α      in ANC's #2, #1, #3, ...

........................................................................
.............................. CYCLE   11 ..............................
........................................................................
   1    -83.7052193 -0.837052E+02  0.166E-02    0.05       0.0  T
   2    -83.6914647  0.137546E-01  0.342E-01    0.03       1.0  T
   3    -83.7052505 -0.137858E-01  0.247E-03    0.05       6.2  T
   4    -83.7052492  0.135230E-05  0.401E-03    0.05       3.9  T
   5    -83.7052508 -0.165210E-05  0.103E-03    0.05      14.9  T
   6    -83.7052509 -0.986047E-07  0.206E-04    0.05      74.9  T
   7    -83.7052509 -0.483145E-08  0.236E-05    0.05     653.9  T
   8    -83.7052509 -0.509743E-10  0.579E-06    0.05    2663.5  T
     SCC iter.                  ...        0 min,  0.041 sec
     gradient                   ...        0 min,  0.057 sec
 * total energy  :   -82.9392745 Eh     change       -0.7138645E-04 Eh
   gradient norm :     0.0020561 Eh/α   predicted    -0.4294543E-04 ( -39.84%)
   displ. norm   :     0.1885826 α      lambda       -0.8539523E-04
   maximum displ.:     0.1321916 α      in ANC's #2, #1, #3, ...

........................................................................
.............................. CYCLE   12 ..............................
........................................................................
   1    -83.7054470 -0.837054E+02  0.135E-02    0.05       0.0  T
   2    -83.6967809  0.866608E-02  0.271E-01    0.03       1.0  T
   3    -83.7054663 -0.868536E-02  0.352E-03    0.05       4.4  T
   4    -83.7054647  0.155295E-05  0.491E-03    0.05       3.1  T
   5    -83.7054673 -0.257928E-05  0.984E-04    0.05      15.7  T
   6    -83.7054674 -0.933573E-07  0.214E-04    0.05      72.2  T
   7    -83.7054674 -0.521119E-08  0.214E-05    0.05     721.0  T
   8    -83.7054674 -0.422062E-10  0.657E-06    0.05    2348.9  T
     SCC iter.                  ...        0 min,  0.043 sec
     gradient                   ...        0 min,  0.060 sec
 * total energy  :   -82.9393501 Eh     change       -0.7565407E-04 Eh
   gradient norm :     0.0022250 Eh/α   predicted    -0.4421894E-04 ( -41.55%)
   displ. norm   :     0.2547776 α      lambda       -0.1116656E-03
   maximum displ.:     0.1704706 α      in ANC's #2, #1, #3, ...

........................................................................
.............................. CYCLE   13 ..............................
........................................................................
   1    -83.7054896 -0.837055E+02  0.104E-02    0.05       0.0  T
   2    -83.7006971  0.479249E-02  0.202E-01    0.03       1.0  T
   3    -83.7054979 -0.480076E-02  0.575E-03    0.05       2.7  T
   4    -83.7054987 -0.810823E-06  0.489E-03    0.05       3.2  T
   5    -83.7055010 -0.231083E-05  0.170E-03    0.05       9.1  T
   6    -83.7055013 -0.313483E-06  0.155E-04    0.05      99.8  T
   7    -83.7055013 -0.244202E-08  0.275E-05    0.05     560.7  T
     SCC iter.                  ...        0 min,  0.038 sec
     gradient                   ...        0 min,  0.060 sec
 * total energy  :   -82.9394462 Eh     change       -0.9611959E-04 Eh
   gradient norm :     0.0028599 Eh/α   predicted    -0.5946554E-04 ( -38.13%)
   displ. norm   :     0.3189694 α      lambda       -0.1205966E-03
   maximum displ.:     0.2083083 α      in ANC's #2, #1, #3, ...

........................................................................
.............................. CYCLE   14 ..............................
........................................................................
   1    -83.7052647 -0.837053E+02  0.633E-03    0.05       0.0  T
   2    -83.7038641  0.140059E-02  0.109E-01    0.04       1.0  T
   3    -83.7052613 -0.139722E-02  0.803E-03    0.05       1.9  T
   4    -83.7052670 -0.569269E-05  0.369E-03    0.05       4.2  T
   5    -83.7052682 -0.122909E-05  0.143E-03    0.05      10.8  T
   6    -83.7052685 -0.221345E-06  0.201E-04    0.05      76.9  T
   7    -83.7052685 -0.383018E-08  0.488E-05    0.05     316.0  T
   8    -83.7052685 -0.195172E-09  0.233E-05    0.05     662.8  T
     SCC iter.                  ...        0 min,  0.043 sec
     gradient                   ...        0 min,  0.060 sec
 * total energy  :   -82.9395469 Eh     change       -0.1006635E-03 Eh
   gradient norm :     0.0032608 Eh/α   predicted    -0.6643638E-04 ( -34.00%)
   displ. norm   :     0.3460320 α      lambda       -0.1071550E-03
   maximum displ.:     0.2263109 α      in ANC's #2, #1, #3, ...

........................................................................
.............................. CYCLE   15 ..............................
........................................................................
   1    -83.7049469 -0.837049E+02  0.584E-03    0.05       0.0  T
   2    -83.7038067  0.114018E-02  0.987E-02    0.04       1.0  T
   3    -83.7049456 -0.113885E-02  0.633E-03    0.05       2.4  T
   4    -83.7049500 -0.446399E-05  0.106E-03    0.05      14.6  T
   5    -83.7049501 -0.719991E-07  0.279E-04    0.05      55.3  T
   6    -83.7049501 -0.298900E-08  0.572E-05    0.05     269.9  T
   7    -83.7049501  0.610640E-10  0.428E-05    0.05     360.8  T
     SCC iter.                  ...        0 min,  0.038 sec
     gradient                   ...        0 min,  0.060 sec
 * total energy  :   -82.9396351 Eh     change       -0.8819862E-04 Eh
   gradient norm :     0.0030731 Eh/α   predicted    -0.5999370E-04 ( -31.98%)
   displ. norm   :     0.3521528 α      lambda       -0.9174180E-04
   maximum displ.:     0.2330729 α      in ANC's #2, #1, #3, ...

........................................................................
.............................. CYCLE   16 ..............................
........................................................................
   1    -83.7047954 -0.837048E+02  0.104E-02    0.05       0.0  T
   2    -83.6998818  0.491360E-02  0.205E-01    0.03       1.0  T
   3    -83.7048073 -0.492552E-02  0.187E-03    0.05       8.3  T
   4    -83.7048067  0.569749E-06  0.283E-03    0.05       5.5  T
   5    -83.7048074 -0.687051E-06  0.122E-03    0.05      12.7  T
   6    -83.7048075 -0.146691E-06  0.257E-04    0.05      60.1  T
   7    -83.7048075 -0.740027E-08  0.175E-05    0.05     881.7  T
   8    -83.7048075  0.102318E-10  0.126E-05    0.05    1222.3  T
     SCC iter.                  ...        0 min,  0.043 sec
     gradient                   ...        0 min,  0.060 sec
 * total energy  :   -82.9397080 Eh     change       -0.7285736E-04 Eh
   gradient norm :     0.0023980 Eh/α   predicted    -0.5156329E-04 ( -29.23%)
   displ. norm   :     0.3153384 α      lambda       -0.6961362E-04
   maximum displ.:     0.2126411 α      in ANC's #2, #1, #3, ...

........................................................................
.............................. CYCLE   17 ..............................
........................................................................
   1    -83.7050538 -0.837051E+02  0.145E-02    0.05       0.0  T
   2    -83.6942181  0.108357E-01  0.304E-01    0.03       1.0  T
   3    -83.7050772 -0.108590E-01  0.457E-03    0.05       3.4  T
   4    -83.7050759  0.127793E-05  0.548E-03    0.05       2.8  T
   5    -83.7050785 -0.259262E-05  0.256E-03    0.05       6.0  T
   6    -83.7050792 -0.699732E-06  0.363E-04    0.05      42.5  T
   7    -83.7050792 -0.147917E-07  0.393E-05    0.05     393.0  T
   8    -83.7050792 -0.131834E-09  0.119E-05    0.05    1296.0  T
     SCC iter.                  ...        0 min,  0.043 sec
     gradient                   ...        0 min,  0.060 sec
 * total energy  :   -82.9397611 Eh     change       -0.5315393E-04 Eh
   gradient norm :     0.0016282 Eh/α   predicted    -0.3826861E-04 ( -28.00%)
   displ. norm   :     0.3716548 α      lambda       -0.4749966E-04
   maximum displ.:     0.2531291 α      in ANC's #2, #1, #3, ...

........................................................................
.............................. CYCLE   18 ..............................
........................................................................
   1    -83.7056249 -0.837056E+02  0.238E-02    0.05       0.0  T
   2    -83.6744822  0.311427E-01  0.516E-01    0.03       1.0  T
   3    -83.7056858 -0.312036E-01  0.889E-03    0.05       1.7  T
   4    -83.7056881 -0.231593E-05  0.742E-03    0.05       2.1  T
   5    -83.7056927 -0.459754E-05  0.367E-03    0.05       4.2  T
   6    -83.7056942 -0.145240E-05  0.442E-04    0.05      34.9  T
   7    -83.7056942 -0.214967E-07  0.774E-05    0.05     199.3  T
   8    -83.7056942 -0.590404E-09  0.215E-05    0.05     717.6  T
     SCC iter.                  ...        0 min,  0.044 sec
     gradient                   ...        0 min,  0.060 sec
 * total energy  :   -82.9398076 Eh     change       -0.4649847E-04 Eh
   gradient norm :     0.0019150 Eh/α   predicted    -0.2520985E-04 ( -45.78%)
   displ. norm   :     0.1915340 α      lambda       -0.2477084E-04
   maximum displ.:     0.1258216 α      in ANC's #2, #1, #3, ...

........................................................................
.............................. CYCLE   19 ..............................
........................................................................
   1    -83.7060722 -0.837061E+02  0.853E-03    0.05       0.0  T
   2    -83.7027766  0.329562E-02  0.168E-01    0.03       1.0  T
   3    -83.7060804 -0.330384E-02  0.958E-04    0.05      16.1  T
   4    -83.7060802  0.230461E-06  0.159E-03    0.05       9.7  T
   5    -83.7060804 -0.168633E-06  0.879E-04    0.05      17.6  T
   6    -83.7060805 -0.854769E-07  0.652E-05    0.05     236.7  T
   7    -83.7060805 -0.406189E-09  0.215E-05    0.05     716.4  T
     SCC iter.                  ...        0 min,  0.041 sec
     gradient                   ...        0 min,  0.065 sec
 * total energy  :   -82.9398365 Eh     change       -0.2893100E-04 Eh
   gradient norm :     0.0016943 Eh/α   predicted    -0.1259506E-04 ( -56.47%)
   displ. norm   :     0.2455180 α      lambda       -0.2907229E-04
   maximum displ.:     0.1562263 α      in ANC's #2, #1, #3, ...

........................................................................
.............................. CYCLE   20 ..............................
........................................................................
   1    -83.7059648 -0.837060E+02  0.109E-02    0.05       0.0  T
   2    -83.7010210  0.494384E-02  0.205E-01    0.03       1.0  T
   3    -83.7059696 -0.494858E-02  0.842E-03    0.05       1.8  T
   4    -83.7059721 -0.250448E-05  0.676E-03    0.05       2.3  T
   5    -83.7059759 -0.380421E-05  0.323E-03    0.05       4.8  T
   6    -83.7059771 -0.116879E-05  0.172E-04    0.05      89.8  T
   7    -83.7059771 -0.323769E-08  0.251E-05    0.05     615.9  T
   8    -83.7059771  0.214300E-10  0.282E-05    0.05     547.3  T
     SCC iter.                  ...        0 min,  0.048 sec
     gradient                   ...        0 min,  0.065 sec
 * total energy  :   -82.9398635 Eh     change       -0.2700118E-04 Eh
   gradient norm :     0.0014767 Eh/α   predicted    -0.1493059E-04 ( -44.70%)
   displ. norm   :     0.2496016 α      lambda        0.9832853E-05
   maximum displ.:     0.1588736 α      in ANC's #2, #1, #3, ...
 * RMSD in coord.:     0.6598044 α      energy gain  -0.1608133E-01 Eh

generating ANC from model Hessian ...
Using Lindh-Hessian (1995)
 Shifting diagonal of input Hessian by   9.793047551639384E-003
 Lowest  eigenvalues of input Hessian
    0.000000    0.000000    0.000000    0.000000    0.000000    0.000000
    0.010000    0.010219    0.010452    0.010642    0.011964    0.012561
    0.012722    0.014050    0.014316    0.016023    0.016915    0.019048
 Highest eigenvalues
    2.096212    2.105141    2.241139    2.379068    2.387356    2.428222
 

........................................................................
.............................. CYCLE   21 ..............................
........................................................................
   1    -83.7054068 -0.837054E+02  0.110E-02    0.05       0.0  T
   2    -83.7004062  0.500058E-02  0.206E-01    0.03       1.0  T
   3    -83.7054118 -0.500560E-02  0.835E-03    0.05       1.8  T
   4    -83.7054141 -0.229103E-05  0.681E-03    0.05       2.3  T
   5    -83.7054180 -0.389199E-05  0.320E-03    0.05       4.8  T
   6    -83.7054191 -0.115033E-05  0.158E-04    0.05      97.4  T
   7    -83.7054191 -0.269578E-08  0.239E-05    0.05     644.5  T
   8    -83.7054191  0.231211E-10  0.271E-05    0.05     568.9  T
     SCC iter.                  ...        0 min,  0.039 sec
     gradient                   ...        0 min,  0.053 sec
 * total energy  :   -82.9398568 Eh     change        0.6772620E-05 Eh
   gradient norm :     0.0029588 Eh/α   predicted     0.0000000E+00 (-100.00%)
   displ. norm   :     0.0176315 α      lambda       -0.2737388E-04
   maximum displ.:     0.0049135 α      in ANC's #45, #48, #64, ...

........................................................................
.............................. CYCLE   22 ..............................
........................................................................
   1    -83.7059903 -0.837060E+02  0.278E-03    0.05       0.0  T
   2    -83.7058010  0.189374E-03  0.402E-02    0.05       1.0  T
   3    -83.7059906 -0.189595E-03  0.211E-03    0.05       7.3  T
   4    -83.7059906 -0.794164E-07  0.178E-03    0.05       8.7  T
   5    -83.7059909 -0.263119E-06  0.752E-04    0.05      20.5  T
   6    -83.7059910 -0.627874E-07  0.637E-05    0.05     242.4  T
   7    -83.7059910 -0.459011E-09  0.556E-06    0.05    2773.9  T
     SCC iter.                  ...        0 min,  0.043 sec
     gradient                   ...        0 min,  0.066 sec
 * total energy  :   -82.9398705 Eh     change       -0.1372293E-04 Eh
   gradient norm :     0.0011890 Eh/α   predicted    -0.1369643E-04 (  -0.19%)
   displ. norm   :     0.0263132 α      lambda       -0.7374608E-05
   maximum displ.:     0.0138414 α      in ANC's #7, #5, #22, ...

........................................................................
.............................. CYCLE   23 ..............................
........................................................................
   1    -83.7063586 -0.837064E+02  0.239E-03    0.05       0.0  T
   2    -83.7062297  0.128948E-03  0.332E-02    0.05       1.0  T
   3    -83.7063588 -0.129109E-03  0.178E-03    0.05       8.7  T
   4    -83.7063588 -0.651060E-07  0.147E-03    0.05      10.5  T
   5    -83.7063590 -0.148246E-06  0.807E-04    0.05      19.1  T
   6    -83.7063591 -0.721005E-07  0.823E-05    0.05     187.4  T
   7    -83.7063591 -0.786343E-09  0.544E-06    0.05    2837.9  T
     SCC iter.                  ...        0 min,  0.043 sec
     gradient                   ...        0 min,  0.067 sec
 * total energy  :   -82.9398784 Eh     change       -0.7931823E-05 Eh
   gradient norm :     0.0008081 Eh/α   predicted    -0.3702599E-05 ( -53.32%)
   displ. norm   :     0.0495925 α      lambda       -0.7367077E-05
   maximum displ.:     0.0258310 α      in ANC's #7, #5, #6, ...

........................................................................
.............................. CYCLE   24 ..............................
........................................................................
   1    -83.7061686 -0.837062E+02  0.133E-03    0.05       0.0  T
   2    -83.7061624  0.626135E-05  0.736E-03    0.05       2.1  T
   3    -83.7061675 -0.512861E-05  0.328E-03    0.05       4.7  T
   4    -83.7061687 -0.120505E-05  0.423E-04    0.05      36.5  T
   5    -83.7061687  0.143442E-07  0.470E-04    0.05      32.8  T
   6    -83.7061687 -0.243496E-07  0.193E-05    0.05     800.1  T
   7    -83.7061687  0.465832E-10  0.254E-05    0.05     606.6  T
     SCC iter.                  ...        0 min,  0.043 sec
     gradient                   ...        0 min,  0.066 sec
 * total energy  :   -82.9398859 Eh     change       -0.7457100E-05 Eh
   gradient norm :     0.0008359 Eh/α   predicted    -0.3807653E-05 ( -48.94%)
   displ. norm   :     0.0435580 α      lambda       -0.3586722E-05
   maximum displ.:     0.0205252 α      in ANC's #7, #5, #3, ...

........................................................................
.............................. CYCLE   25 ..............................
........................................................................
   1    -83.7060705 -0.837061E+02  0.122E-03    0.05       0.0  T
   2    -83.7060131  0.573363E-04  0.222E-02    0.05       1.0  T
   3    -83.7060706 -0.574254E-04  0.885E-04    0.05      17.4  T
   4    -83.7060706 -0.347356E-07  0.640E-04    0.05      24.1  T
   5    -83.7060707 -0.434631E-07  0.875E-05    0.05     176.4  T
   6    -83.7060707 -0.482714E-09  0.406E-05    0.05     379.8  T
     SCC iter.                  ...        0 min,  0.037 sec
     gradient                   ...        0 min,  0.066 sec
 * total energy  :   -82.9398899 Eh     change       -0.4001436E-05 Eh
   gradient norm :     0.0007071 Eh/α   predicted    -0.1795726E-05 ( -55.12%)
   displ. norm   :     0.0633180 α      lambda       -0.4024977E-05
   maximum displ.:     0.0306592 α      in ANC's #5, #7, #3, ...

   *** GEOMETRY OPTIMIZATION CONVERGED AFTER 25 ITERATIONS ***

------------------------------------------------------------------------
 total energy gain   :        -0.0161077 Eh      -10.1077 kcal/mol
 total RMSD          :         0.6586330 a0        0.3485 Å
 total power (kW/mol):        -1.6916274 (step)  -12.6029 (real)
------------------------------------------------------------------------

 ANCopt (total)                0 d,  0 h,  0 min,  3.356 sec
 optimizer setup                ...        0 min,  0.001 sec (  0.017%)
 model hessian                  ...        0 min,  0.043 sec (  1.291%)
 ANC generation                 ...        0 min,  0.005 sec (  0.155%)
 coordinate transformation      ...        0 min,  0.001 sec (  0.017%)
 single point calculation       ...        0 min,  3.296 sec ( 98.227%)
 optimization log               ...        0 min,  0.006 sec (  0.165%)
 hessian update                 ...        0 min,  0.001 sec (  0.016%)
 rational function              ...        0 min,  0.002 sec (  0.064%)

================
 final structure:
================
42
 xtb: 6.5.1 (579679a)
C            2.13185498628824        3.53510968213389        0.81602962512825
O            2.18311275406512        2.18518301713677        0.35392259130676
C            3.36643642856250        1.77240940028076       -0.13451392532087
O            4.33521175515808        2.49690716964441       -0.18561781999002
C            3.31395835338195        0.36147359145029       -0.58180743270913
N            2.10798703328480       -0.24016411842102       -0.47436926121250
C            1.94047391330936       -1.48099290379298       -0.82607499336047
C            0.57337287371196       -2.11257340419438       -0.69690469809170
C            0.61942046366886       -3.28165290359280        0.29848047573569
C            0.07035175132710       -2.57627173044165       -2.07263197537797
N           -0.30824399242457       -1.06722339179373       -0.18748814182037
C           -1.61963586631729       -1.23103858518759        0.05510710345869
O           -2.25672024047359       -2.26060376489801       -0.07419348082632
C           -2.23262009089600        0.05053045802047        0.50764086137064
N           -1.55762443201229        1.20599623857373        0.65347046052643
N           -2.38123668259558        2.11578383311556        1.02291233087387
C           -3.69846509183724        1.54414288393585        1.12966216030656
C           -4.21597772620107        1.64436263461521        2.56648074491530
C           -4.64541531263044        2.20212213238273        0.12154869720196
O           -3.50414565821149        0.17322834800903        0.77805245803760
N            2.96144010687307       -2.23458250497986       -1.30855112072491
C            4.25480408839101       -1.76515918633769       -1.48468947434373
O            5.11312011847302       -2.50269630152004       -1.92579687836211
C            4.47521275563904       -0.31738567832407       -1.09188174222826
O            5.59140476716271        0.17970509007585       -1.21867307447385
H            1.11600740189900        3.70610976949439        1.16647134228507
H            2.37142339282068        4.22435091715352        0.00182903834282
H            2.84231082785029        3.68306302885456        1.63386462693955
H            1.32025510650618       -4.03565715406780       -0.05314048147050
H            0.93638795418054       -2.92530340522786        1.27725225199868
H           -0.36825625815080       -3.73076596138063        0.38224551000959
H           -0.91910763691055       -3.01754995619700       -1.97060057732566
H            0.01705482095767       -1.72844908092820       -2.75364172860575
H            0.74780552424413       -3.32277169855013       -2.48091080438457
H            0.12343194872137       -0.15700404492395       -0.04285958088173
H           -5.17978721192827        1.14569051719815        2.63434418030222
H           -4.32415494351449        2.69244946814575        2.83339983945384
H           -3.50915804500411        1.16577013382250        3.24075960769575
H           -4.74870235348219        3.25635915466271        0.36488540680255
H           -5.61586799580138        1.71457535697258        0.17244853689381
H           -4.23570414382708        2.09566071684185       -0.88060453418155
H            2.80798455573549       -3.19736876776499       -1.56585512390148
 
 Bond Distances (Angstroems)
 ---------------------------
C1-O2=1.4278         C1-H26=1.0881        C1-H27=1.0933        C1-H28=1.0934        O2-C1=1.4278         O2-C3=1.3451         
C3-O2=1.3451         C3-O4=1.2108         C3-C5=1.4811         O4-C3=1.2108         C5-C3=1.4811         C5-N6=1.3520         
C5-C24=1.4386        N6-C5=1.3520         N6-C7=1.3005         C7-N6=1.3005         C7-C8=1.5115         C7-N21=1.3576        
C8-C7=1.5115         C8-C9=1.5361         C8-C10=1.5364        C8-N11=1.4593        C9-C8=1.5361         C9-H29=1.0878        
C9-H30=1.0888        C9-H31=1.0882        C10-C8=1.5364        C10-H32=1.0882       C10-H33=1.0888       C10-H34=1.0876       
N11-C8=1.4593        N11-C12=1.3437       N11-H35=1.0177       C12-N11=1.3437       C12-O13=1.2176       C12-C14=1.4910       
O13-C12=1.2176       C14-C12=1.4910       C14-N15=1.3461       C14-O20=1.3057       N15-C14=1.3461       N15-N16=1.2816       
N16-N15=1.2816       N16-C17=1.4399       C17-N16=1.4399       C17-C18=1.5305       C17-C19=1.5316       C17-O20=1.4286       
C18-C17=1.5305       C18-H36=1.0873       C18-H37=1.0869       C18-H38=1.0878       C19-C17=1.5316       C19-H39=1.0869       
C19-H40=1.0872       C19-H41=1.0879       O20-C14=1.3057       O20-C17=1.4286       N21-C7=1.3576        N21-C22=1.3871       
N21-H42=1.0083       C22-N21=1.3871       C22-O23=1.2146       C22-C24=1.5162       O23-C22=1.2146       C24-C5=1.4386        
C24-C22=1.5162       C24-O25=1.2284       O25-C24=1.2284       H26-C1=1.0881        H27-C1=1.0933        H28-C1=1.0934        
H29-C9=1.0878        H30-C9=1.0888        H31-C9=1.0882        H32-C10=1.0882       H33-C10=1.0888       H34-C10=1.0876       
H35-N11=1.0177       H36-C18=1.0873       H37-C18=1.0869       H38-C18=1.0878       H39-C19=1.0869       H40-C19=1.0872       
H41-C19=1.0879       H42-N21=1.0083       
 C  H  Rav=1.0885 sigma=0.0020  Rmin=1.0869  Rmax=1.0934    15
 C  C  Rav=1.5081 sigma=0.0309  Rmin=1.4386  Rmax=1.5364     9
 N  H  Rav=1.0130 sigma=0.0047  Rmin=1.0083  Rmax=1.0177     2
 N  C  Rav=1.3733 sigma=0.0495  Rmin=1.3005  Rmax=1.4593     8
 N  N  Rav=1.2816 sigma=0.0000  Rmin=1.2816  Rmax=1.2816     1
 O  C  Rav=1.2973 sigma=0.0880  Rmin=1.2108  Rmax=1.4286     8
 
 selected bond angles (degree)
 --------------------
H26-C1-O2=106.64               H27-C1-O2=110.31               H27-C1-H26=110.20              H28-C1-O2=110.29               
H28-C1-H26=110.15              H28-C1-H27=109.23              C3-O2-C1=116.06                O4-C3-O2=122.38                
C5-C3-O2=111.77                C5-C3-O4=125.85                N6-C5-C3=115.57                C24-C5-C3=121.87               
C24-C5-N6=122.56               C7-N6-C5=121.20                C8-C7-N6=119.48                N21-C7-N6=121.93               
N21-C7-C8=118.60               C9-C8-C7=110.26                C10-C8-C7=110.23               C10-C8-C9=111.12               
N11-C8-C7=106.08               N11-C8-C9=109.70               N11-C8-C10=109.33              H29-C9-C8=109.72               
H30-C9-C8=110.01               H30-C9-H29=109.26              H31-C9-C8=109.68               H31-C9-H29=108.88              
H31-C9-H30=109.27              H32-C10-C8=109.64              H33-C10-C8=109.94              H33-C10-H32=109.26             
H34-C10-C8=109.84              H34-C10-H32=108.86             H34-C10-H33=109.28             
 
 selected dihedral angles (degree)
 ---------------------------------
C3-O2-C1-H26=179.59           C3-O2-C1-H27= 59.92           C3-O2-C1-H28=299.18           O4-C3-O2-C1=359.85            
C5-C3-O2-C1=179.84            N6-C5-C3-O2=  2.36            N6-C5-C3-O4=182.35            C24-C5-C3-O2=182.53           
C24-C5-C3-O4=  2.52           C7-N6-C5-C3=180.53            C7-N6-C5-C24=  0.35           C8-C7-N6-C5=180.35            
N21-C7-N6-C5=  0.40           C9-C8-C7-N6=242.54            C9-C8-C7-N21= 62.49           C10-C8-C7-N6=119.49           
C10-C8-C7-N21=299.44          N11-C8-C7-N6=  1.24           N11-C8-C7-N21=181.20          H29-C9-C8-C7=299.70           
H29-C9-C8-C10= 62.22          H29-C9-C8-N11=183.23          H30-C9-C8-C7= 59.93           H30-C9-C8-C10=182.45          
H30-C9-C8-N11=303.46          H31-C9-C8-C7=180.15           H31-C9-C8-C10=302.67          H31-C9-C8-N11= 63.68          
H32-C10-C8-C7=180.72          H32-C10-C8-C9= 58.18          H32-C10-C8-N11=296.95         H33-C10-C8-C7=300.86          
H33-C10-C8-C9=178.32          H33-C10-C8-N11= 57.09         H34-C10-C8-C7= 61.14          H34-C10-C8-C9=298.60          
H34-C10-C8-N11=177.38         
           -------------------------------------------------
          |                Final Singlepoint                |
           -------------------------------------------------

          ...................................................
          :                      SETUP                      :
          :.................................................:
          :  # basis functions                 134          :
          :  # atomic orbitals                 134          :
          :  # shells                           84          :
          :  # electrons                       134          :
          :  # halogen bonds                     0          :
          :  max. iterations                   250          :
          :  Hamiltonian                  GFN1-xTB          :
          :  restarted?                      false          :
          :  GBSA solvation                   true          :
          :  PC potential                    false          :
          :  electronic temp.          300.0000000     K    :
          :  accuracy                    1.0000000          :
          :  -> integral cutoff          0.2500000E+02      :
          :  -> integral neglect         0.1000000E-07      :
          :  -> SCF convergence          0.1000000E-05 Eh   :
          :  -> wf. convergence          0.2000000E-04 e    :
          :  Broyden damping             0.4000000          :
          ...................................................

 iter      E             dE          RMSdq      gap      omega  full diag
   1    -83.7060707 -0.837061E+02  0.100E-05    0.05       0.0  T
   2    -83.7060706  0.374720E-08  0.179E-04    0.05      86.2  T
   3    -83.7060707 -0.375574E-08  0.457E-06    0.05    3377.7  T

   *** convergence criteria satisfied after 3 iterations ***

         #    Occupation            Energy/Eh            Energy/eV
      -------------------------------------------------------------
         1        2.0000           -0.8833173             -24.0363
       ...           ...                  ...                  ...
        61        2.0000           -0.4826999             -13.1349
        62        2.0000           -0.4767749             -12.9737
        63        2.0000           -0.4695062             -12.7759
        64        2.0000           -0.4668554             -12.7038
        65        2.0000           -0.4641619             -12.6305
        66        2.0000           -0.4238527             -11.5336
        67        1.4434           -0.4083225             -11.1110 (HOMO)
        68        0.5566           -0.4065120             -11.0618 (LUMO)
        69                         -0.3239686              -8.8156
        70                         -0.3112727              -8.4702
        71                         -0.2861969              -7.7878
        72                         -0.2362915              -6.4298
       ...                                ...                  ...
       134                          0.7528892              20.4872
      -------------------------------------------------------------
                  HL-Gap            0.0018105 Eh            0.0493 eV
             Fermi-level           -0.4074172 Eh          -11.0864 eV

 SCC (total)                   0 d,  0 h,  0 min,  0.118 sec
 SCC setup                      ...        0 min,  0.002 sec (  1.556%)
 Dispersion                     ...        0 min,  0.000 sec (  0.229%)
 classical contributions        ...        0 min,  0.000 sec (  0.081%)
 integral evaluation            ...        0 min,  0.029 sec ( 24.484%)
 iterations                     ...        0 min,  0.019 sec ( 16.290%)
 molecular gradient             ...        0 min,  0.067 sec ( 56.155%)
 printout                       ...        0 min,  0.001 sec (  1.175%)

         :::::::::::::::::::::::::::::::::::::::::::::::::::::
         ::                     SUMMARY                     ::
         :::::::::::::::::::::::::::::::::::::::::::::::::::::
         :: total energy             -82.939889886277 Eh    ::
         :: total w/o Gsasa/hb       -82.920171087728 Eh    ::
         :: gradient norm              0.000707246619 Eh/a0 ::
         :: HOMO-LUMO gap              0.049266710187 eV    ::
         ::.................................................::
         :: SCC energy               -83.706070651058 Eh    ::
         :: -> electrostatic           0.381656310877 Eh    ::
         :: -> Gsolv                  -0.067528290620 Eh    ::
         ::    -> Gelec               -0.047809492071 Eh    ::
         ::    -> Gsasa               -0.023592858998 Eh    ::
         ::    -> Ghb                 -0.003750218556 Eh    ::
         ::    -> Gshift               0.007624279005 Eh    ::
         :: repulsion energy           0.792156600500 Eh    ::
         :: dispersion energy         -0.025975835720 Eh    ::
         :: halogen bond corr.         0.000000000000 Eh    ::
         :: add. restraining           0.000000000000 Eh    ::
         :: total charge               0.000000000000 e     ::
         :::::::::::::::::::::::::::::::::::::::::::::::::::::

           -------------------------------------------------
          |                Property Printout                |
           -------------------------------------------------

    * Orbital Energies and Occupations

         #    Occupation            Energy/Eh            Energy/eV
      -------------------------------------------------------------
         1        2.0000           -0.8833173             -24.0363
       ...           ...                  ...                  ...
        55        2.0000           -0.5150698             -14.0158
        56        2.0000           -0.5118637             -13.9285
        57        2.0000           -0.5114134             -13.9163
        58        2.0000           -0.5045551             -13.7296
        59        2.0000           -0.4944455             -13.4545
        60        2.0000           -0.4877776             -13.2731
        61        2.0000           -0.4826999             -13.1349
        62        2.0000           -0.4767749             -12.9737
        63        2.0000           -0.4695062             -12.7759
        64        2.0000           -0.4668554             -12.7038
        65        2.0000           -0.4641619             -12.6305
        66        2.0000           -0.4238527             -11.5336
        67        1.4434           -0.4083225             -11.1110 (HOMO)
        68        0.5566           -0.4065120             -11.0618 (LUMO)
        69                         -0.3239686              -8.8156
        70                         -0.3112727              -8.4702
        71                         -0.2861969              -7.7878
        72                         -0.2362915              -6.4298
        73                         -0.2226630              -6.0590
        74                         -0.1575322              -4.2867
        75                         -0.1451155              -3.9488
        76                         -0.1448856              -3.9425
        77                         -0.1395525              -3.7974
        78                         -0.1381759              -3.7600
       ...                                ...                  ...
       134                          0.7528892              20.4872
      -------------------------------------------------------------
                  HL-Gap            0.0018105 Eh            0.0493 eV
             Fermi-level           -0.4074172 Eh          -11.0864 eV

  Mulliken/CM5 charges         n(s)   n(p)   n(d)
     1C     0.16700  0.04678   0.978  2.855  0.000
     2O    -0.42495 -0.50665   1.689  4.736  0.000
     3C     0.56846  0.63483   0.968  2.463  0.000
     4O    -0.56172 -0.60711   1.725  4.837  0.000
     5C     0.06832  0.14945   1.062  2.869  0.000
     6N    -0.35668 -0.54893   1.523  3.834  0.000
     7C     0.27774  0.42812   1.018  2.704  0.000
     8C     0.15217  0.19308   1.065  2.782  0.000
     9C    -0.10708 -0.24679   1.023  3.084  0.000
    10C    -0.10815 -0.24785   1.023  3.085  0.000
    11N    -0.32122 -0.66939   1.435  3.886  0.000
    12C     0.46982  0.57973   0.966  2.564  0.000
    13O    -0.55834 -0.60404   1.723  4.835  0.000
    14C     0.39063  0.50961   1.039  2.570  0.000
    15N    -0.17702 -0.27947   1.550  3.627  0.000
    16N    -0.15489 -0.25087   1.590  3.565  0.000
    17C     0.34286  0.41030   1.047  2.610  0.000
    18C    -0.09699 -0.23559   1.025  3.072  0.000
    19C    -0.09629 -0.23479   1.025  3.071  0.000
    20O    -0.34115 -0.39953   1.692  4.649  0.000
    21N    -0.28845 -0.63582   1.438  3.851  0.000
    22C     0.44819  0.55019   1.011  2.541  0.000
    23O    -0.53978 -0.57861   1.727  4.812  0.000
    24C     0.31807  0.36475   1.037  2.645  0.000
    25O    -0.54085 -0.58016   1.736  4.805  0.000
    26H     0.04580  0.10660   0.954  0.000  0.000
    27H     0.04958  0.11131   0.950  0.000  0.000
    28H     0.04967  0.11129   0.950  0.000  0.000
    29H     0.05291  0.10923   0.947  0.000  0.000
    30H     0.05425  0.11103   0.946  0.000  0.000
    31H     0.07194  0.13207   0.928  0.000  0.000
    32H     0.07218  0.13238   0.928  0.000  0.000
    33H     0.05409  0.11094   0.946  0.000  0.000
    34H     0.05347  0.10985   0.947  0.000  0.000
    35H     0.25639  0.47421   0.744  0.000  0.000
    36H     0.07357  0.12891   0.926  0.000  0.000
    37H     0.06945  0.12516   0.931  0.000  0.000
    38H     0.07095  0.12916   0.929  0.000  0.000
    39H     0.06952  0.12528   0.930  0.000  0.000
    40H     0.07365  0.12900   0.926  0.000  0.000
    41H     0.07079  0.12920   0.929  0.000  0.000
    42H     0.28213  0.48312   0.718  0.000  0.000

Wiberg/Mayer (AO) data.
largest (>0.10) Wiberg bond orders for each atom

 ---------------------------------------------------------------------------
     #   Z sym  total        # sym  WBO       # sym  WBO       # sym  WBO
 ---------------------------------------------------------------------------
     1   6 C    3.877 --    26 H    0.987    27 H    0.979    28 H    0.979
                             2 O    0.904
     2   8 O    2.172 --     3 C    1.083     1 C    0.904     4 O    0.129
     3   6 C    3.840 --     4 O    1.647     2 O    1.083     5 C    1.031
     4   8 O    1.890 --     3 C    1.647     2 O    0.129
     5   6 C    3.714 --     6 N    1.279    24 C    1.168     3 C    1.031
     6   7 N    3.015 --     7 C    1.482     5 C    1.279
     7   6 C    3.802 --     6 N    1.482    21 N    1.190     8 C    0.990
     8   6 C    3.929 --     7 C    0.990     9 C    0.970    10 C    0.970
                            11 N    0.933
     9   6 C    3.975 --    30 H    0.985    29 H    0.983    31 H    0.978
                             8 C    0.970
    10   6 C    3.975 --    33 H    0.985    34 H    0.983    32 H    0.978
                             8 C    0.970
    11   7 N    3.348 --    12 C    1.266     8 C    0.933    35 H    0.867
                            13 O    0.194
    12   6 C    3.915 --    13 O    1.586    11 N    1.266    14 C    0.982
    13   8 O    1.901 --    12 C    1.586    11 N    0.194
    14   6 C    3.639 --    15 N    1.302    20 O    1.203    12 C    0.982
    15   7 N    3.010 --    16 N    1.545    14 C    1.302
    16   7 N    2.695 --    15 N    1.545    17 C    1.023
    17   6 C    3.836 --    16 N    1.023    18 C    0.938    19 C    0.935
                            20 O    0.877
    18   6 C    3.938 --    38 H    0.982    37 H    0.982    36 H    0.980
                            17 C    0.938
    19   6 C    3.936 --    41 H    0.982    39 H    0.982    40 H    0.980
                            17 C    0.935
    20   8 O    2.222 --    14 C    1.203    17 C    0.877
    21   7 N    3.422 --     7 C    1.190    22 C    1.104    42 H    0.882
                            23 O    0.113
    22   6 C    3.840 --    23 O    1.656    21 N    1.104    24 C    0.948
    23   8 O    1.879 --    22 C    1.656    21 N    0.113
    24   6 C    3.871 --    25 O    1.614     5 C    1.168    22 C    0.948
    25   8 O    1.796 --    24 C    1.614
    26   1 H    1.013 --     1 C    0.987
    27   1 H    1.007 --     1 C    0.979
    28   1 H    1.007 --     1 C    0.979
    29   1 H    0.998 --     9 C    0.983
    30   1 H    0.999 --     9 C    0.985
    31   1 H    1.005 --     9 C    0.978
    32   1 H    1.004 --    10 C    0.978
    33   1 H    0.999 --    10 C    0.985
    34   1 H    0.998 --    10 C    0.983
    35   1 H    0.966 --    11 N    0.867
    36   1 H    0.996 --    18 C    0.980
    37   1 H    0.997 --    18 C    0.982
    38   1 H    0.996 --    18 C    0.982
    39   1 H    0.997 --    19 C    0.982
    40   1 H    0.996 --    19 C    0.980
    41   1 H    0.996 --    19 C    0.982
    42   1 H    0.930 --    21 N    0.882
 ---------------------------------------------------------------------------

Topologies differ in total number of bonds
Writing topology from bond orders to xtbtopo.mol

 dipole moment from electron density (au)
     X       Y       Z   
  -7.9686   0.0332   1.7314  total (Debye):   20.727

           -------------------------------------------------
          |                Geometry Summary                 |
           -------------------------------------------------

      molecular mass/u    :      351.3152409
   center of mass at/Å    :        0.6552654      -0.0484805      -0.1514884
  moments of inertia/u·Å² :        0.1456843E+04   0.3834641E+04   0.5064723E+04
rotational constants/cm⁻¹ :        0.1157135E-01   0.4396143E-02   0.3328441E-02

 * 38 selected distances

     #   Z          #   Z                                           value/Å
     1   6 C        2   8 O                                       1.4277509
     2   8 O        3   6 C                                       1.3450679
     3   6 C        4   8 O                                       1.2107991
     5   6 C        6   7 N                                       1.3519904
     6   7 N        7   6 C                                       1.3005437
     8   6 C        9   6 C                                       1.5361183
     8   6 C       10   6 C                                       1.5364480 (max)
     8   6 C       11   7 N                                       1.4592843
    11   7 N       12   6 C                                       1.3436655
    12   6 C       13   8 O                                       1.2176206
    14   6 C       15   7 N                                       1.3461006
    15   7 N       16   7 N                                       1.2816155
    16   7 N       17   6 C                                       1.4398819
    17   6 C       18   6 C                                       1.5304612
    17   6 C       19   6 C                                       1.5316477
    14   6 C       20   8 O                                       1.3057392
    17   6 C       20   8 O                                       1.4285645
     7   6 C       21   7 N                                       1.3575908
    21   7 N       22   6 C                                       1.3871459
    22   6 C       23   8 O                                       1.2145960
    24   6 C       25   8 O                                       1.2284381
     1   6 C       26   1 H                                       1.0881162
     1   6 C       27   1 H                                       1.0933295
     1   6 C       28   1 H                                       1.0933856
     9   6 C       29   1 H                                       1.0878093
     9   6 C       30   1 H                                       1.0887827
     9   6 C       31   1 H                                       1.0882209
    10   6 C       32   1 H                                       1.0881944
    10   6 C       33   1 H                                       1.0887692
    10   6 C       34   1 H                                       1.0876110
    11   7 N       35   1 H                                       1.0177234
    18   6 C       36   1 H                                       1.0872940
    18   6 C       37   1 H                                       1.0869381
    18   6 C       38   1 H                                       1.0877946
    19   6 C       39   1 H                                       1.0868748
    19   6 C       40   1 H                                       1.0872310
    19   6 C       41   1 H                                       1.0878918
    21   7 N       42   1 H                                       1.0083211 (min)

 * 6 distinct bonds (by element types)

   Z      Z             #   av. dist./Å        max./Å        min./Å
   1 H    6 C          15     1.0885495     1.0933856     1.0868748
   6 C    6 C           4     1.5336688     1.5364480     1.5304612
   1 H    7 N           2     1.0130223     1.0177234     1.0083211
   6 C    7 N           8     1.3732754     1.4592843     1.3005437
   7 N    7 N           1     1.2816155     1.2816155     1.2816155
   6 C    8 O           8     1.2973220     1.4285645     1.2107991


optimized geometry written to: xtbopt.xyz


           -------------------------------------------------
          | TOTAL ENERGY              -82.939889886277 Eh   |
          | GRADIENT NORM               0.000707246619 Eh/α |
          | HOMO-LUMO GAP               0.049266710187 eV   |
           -------------------------------------------------

------------------------------------------------------------------------
 * finished run on 2023/06/21 at 17:28:57.293     
------------------------------------------------------------------------
 total:
 * wall-time:     0 d,  0 h,  0 min,  3.770 sec
 *  cpu-time:     0 d,  0 h,  0 min,  3.717 sec
 * ratio c/w:     0.986 speedup
 SCF:
 * wall-time:     0 d,  0 h,  0 min,  0.205 sec
 *  cpu-time:     0 d,  0 h,  0 min,  0.202 sec
 * ratio c/w:     0.986 speedup
 ANC optimizer:
 * wall-time:     0 d,  0 h,  0 min,  3.483 sec
 *  cpu-time:     0 d,  0 h,  0 min,  3.473 sec
 * ratio c/w:     0.997 speedup

