42
 energy: -82.991118591487 gnorm: 0.000401722597 xtb: 6.5.1 (579679a)
C           -6.48940613899171       -1.16939439018392       -0.30431476121931
O           -5.32116432959850       -0.67402025452401        0.35012903848663
C           -4.25156555661348       -0.47807511816437       -0.42622888230822
O           -4.28687079920560       -0.69563829652978       -1.62744150346491
C           -3.06146268701215       -0.04330311164735        0.31556274372595
C           -2.94284628027747       -0.27042439763705        1.71505244623552
O           -3.83762110185851       -0.66222882398290        2.46478599421187
C           -1.57153707721182       -0.03112054425596        2.29789710819773
O           -1.28385153813490       -0.10008217802425        3.47458219647385
N           -0.58175543137974        0.23650421056782        1.36566980639806
C           -0.74903420686746        0.48480641861920        0.04722895516493
C            0.54307358033151        0.84400739864808       -0.69003905767003
C            0.75058340057159        2.36130480566657       -0.59567806196138
C            0.62548611032845        0.33980853369905       -2.13912397833366
N            1.59326359455898        0.12154197674760        0.04697120018821
C            2.91224660448961        0.46971376179318        0.06412832503723
O            3.38003314533253        1.54116807637035       -0.25588828266228
C            3.72075005528325       -0.65616899893935        0.59309101277385
N            3.26765845925605       -1.81508999991551        0.96834606152473
N            4.34188587373609       -2.54415515768485        1.37402227809927
C            5.38545283769898       -1.78469495230292        1.21731503537817
C            6.79837094124013       -2.12135388543192        1.49685801511938
O            5.05623117377062       -0.58078773056453        0.72896952414395
N           -1.96896845209377        0.42763023818641       -0.43990958443932
C           -2.26403401254988        0.98231611064675       -1.76712041202294
H           -6.82538099943247       -0.45986537935947       -1.06448520370788
H           -7.25224860089141       -1.28672310195137        0.46356773240961
H           -6.27914064601547       -2.13094815887322       -0.77972885583657
H            0.35475514060620        0.33428954850243        1.73663693905707
H           -0.15847907967011        2.87618427101607       -0.90024561305908
H            1.56134077624664        2.67211503210666       -1.25015725097765
H            0.98809241932594        2.64392245092927        0.42808169718768
H            0.18680322993048       -0.65209152349642       -2.22727706717107
H            0.13746871064814        1.01713481820177       -2.83386461551479
H            1.67673946366674        0.28127455993068       -2.41809123890859
H            1.41819056786716       -0.86990917955948        0.15491737314715
H            7.33739340837282       -2.25674091108109        0.55854172621734
H            6.85004600426451       -3.04109700067632        2.07416248091172
H            7.27443875293380       -1.31013928499931        2.04569197436500
H           -1.55899540355945        1.77520664822229       -1.98839455445490
H           -2.21231673848513        0.20060815973986       -2.52180245067971
H           -3.26362717060383        1.40837136019600       -1.75241829006114
