      -----------------------------------------------------------      
     |                   =====================                   |     
     |                           x T B                           |     
     |                   =====================                   |     
     |                         S. Grimme                         |     
     |          Mulliken Center for Theoretical Chemistry        |     
     |                    University of Bonn                     |     
      -----------------------------------------------------------      

   * xtb version 6.5.1 (579679a) compiled by 'ehlert@majestix' on 2022-07-11

   xtb is free software: you can redistribute it and/or modify it under
   the terms of the GNU Lesser General Public License as published by
   the Free Software Foundation, either version 3 of the License, or
   (at your option) any later version.
   
   xtb is distributed in the hope that it will be useful,
   but WITHOUT ANY WARRANTY; without even the implied warranty of
   MERCHANTABILITY or FITNESS FOR A PARTICULAR PURPOSE.  See the
   GNU Lesser General Public License for more details.
   
   Cite this work as:
   * C. Bannwarth, E. Caldeweyher, S. Ehlert, A. Hansen, P. Pracht,
     J. Seibert, S. Spicher, S. Grimme, WIREs Comput. Mol. Sci., 2020, 11,
     e01493. DOI: 10.1002/wcms.1493
   
   for GFN2-xTB:
   * C. Bannwarth, S. Ehlert and S. Grimme., J. Chem. Theory Comput., 2019,
     15, 1652-1671. DOI: 10.1021/acs.jctc.8b01176
   for GFN1-xTB:
   * S. Grimme, C. Bannwarth, P. Shushkov, J. Chem. Theory Comput., 2017,
     13, 1989-2009. DOI: 10.1021/acs.jctc.7b00118
   for GFN0-xTB:
   * P. Pracht, E. Caldeweyher, S. Ehlert, S. Grimme, ChemRxiv, 2019, preprint.
     DOI: 10.26434/chemrxiv.8326202.v1
   for GFN-FF:
   * S. Spicher and S. Grimme, Angew. Chem. Int. Ed., 2020, 59, 15665-15673.
     DOI: 10.1002/anie.202004239
   
   for ALPB and GBSA implicit solvation:
   * S. Ehlert, M. Stahn, S. Spicher, S. Grimme, J. Chem. Theory Comput.,
     2021, 17, 4250-4261. DOI: 10.1021/acs.jctc.1c00471
   
   for DFT-D4:
   * E. Caldeweyher, C. Bannwarth and S. Grimme, J. Chem. Phys., 2017,
     147, 034112. DOI: 10.1063/1.4993215
   * E. Caldeweyher, S. Ehlert, A. Hansen, H. Neugebauer, S. Spicher,
     C. Bannwarth and S. Grimme, J. Chem. Phys., 2019, 150, 154122.
     DOI: 10.1063/1.5090222
   * E. Caldeweyher, J.-M. Mewes, S. Ehlert and S. Grimme, Phys. Chem. Chem. Phys.
     2020, 22, 8499-8512. DOI: 10.1039/D0CP00502A
   
   for sTDA-xTB:
   * S. Grimme and C. Bannwarth, J. Chem. Phys., 2016, 145, 054103.
     DOI: 10.1063/1.4959605
   
   in the mass-spec context:
   * V. Asgeirsson, C. Bauer and S. Grimme, Chem. Sci., 2017, 8, 4879.
     DOI: 10.1039/c7sc00601b
   * J. Koopman and S. Grimme, ACS Omega 2019, 4, 12, 15120-15133.
     DOI: 10.1021/acsomega.9b02011
   
   for metadynamics refer to:
   * S. Grimme, J. Chem. Theory Comput., 2019, 155, 2847-2862
     DOI: 10.1021/acs.jctc.9b00143
   
   for SPH calculations refer to:
   * S. Spicher and S. Grimme, J. Chem. Theory Comput., 2021, 17, 1701-1714
     DOI: 10.1021/acs.jctc.0c01306
   
   with help from (in alphabetical order)
   P. Atkinson, C. Bannwarth, F. Bohle, G. Brandenburg, E. Caldeweyher
   M. Checinski, S. Dohm, S. Ehlert, S. Ehrlich, I. Gerasimov, C. Hölzer
   A. Katbashev, J. Koopman, C. Lavigne, S. Lehtola, F. März, M. Müller,
   F. Musil, H. Neugebauer, J. Pisarek, C. Plett, P. Pracht, F. Pultar,
   J. Seibert, P. Shushkov, S. Spicher, M. Stahn, M. Steiner, T. Strunk,
   J. Stückrath, T. Rose, and J. Unsleber
   
 * started run on 2023/06/20 at 15:15:52.569     

           -------------------------------------------------
          |                Calculation Setup                |
           -------------------------------------------------

          program call               : /lustre/hpc/kemi/ree/PhD/git/ReactivityQM/dep/xtb-6.5.1/bin/xtb --gfn 1 /lustre/hpc/kemi/ree/PhD/git/ReactivityQM/calculations/R02/reac01prodE13/conf03/R02_reac01prodE13_conf03_gfn1.xyz --opt --vfukui --chrg -1 --uhf 0 --alpb DMSO
          hostname                   : node315
          coordinate file            : /lustre/hpc/kemi/ree/PhD/git/ReactivityQM/calculations/R02/reac01prodE13/conf03/R02_reac01prodE13_conf03_gfn1.xyz
          omp threads                :                     1

   ID    Z sym.   atoms
    1    6 C      1, 3, 5, 6, 8, 10, 12-15, 17, 19, 22, 23
    2    8 O      2, 4, 7, 9, 18, 24
    3    7 N      11, 16, 20, 21, 25
    4    1 H      26-43

           -------------------------------------------------
          |                 G F N 1 - x T B                 |
           -------------------------------------------------

        Reference                      10.1021/acs.jctc.7b00118
      * Hamiltonian:
        H0-scaling (s, p, d)           1.850000    2.250000    2.000000
        zeta-weighting                 0.000000
      * Dispersion:
        s8                             2.400000
        a1                             0.630000
        a2                             5.000000
        s9                             0.000000
      * Repulsion:
        kExp                           1.500000
        rExp                           1.000000
      * Coulomb:
        alpha                          2.000000
        third order                    atomic
        anisotropic                    false
      * Halogen bond correction:
        rad-scale                      1.300000
        damping                        0.440000

      * Solvation model:               ALPB
        Solvent                        DMSO
        Parameter file                 internal GFN1-xTB/ALPB
        Dielectric constant                4.6680E+01
        Reference state                gsolv [1 M gas/solution]
        Free energy shift                  7.6243E-03 Eh       4.7843E+00 kcal/mol
        Temperature                        2.9815E+02 K
        Density                            1.1000E+00 kg/L
        Solvent mass                       7.8130E+01 g/mol
        Interaction kernel             P16
        Born radius scaling (c1)           1.7672E+00
        Born radii integrator          GBOBC
        Born offset                        0.0000E+00 a0       0.0000E+00 AA
        H-bond correction              true
        Ion screening                  false
        Surface tension                    1.0000E-05 Eh       1.5569E+01 dyn/cm
        Grid points                               230 per atom

          ...................................................
          :                      SETUP                      :
          :.................................................:
          :  # basis functions                 136          :
          :  # atomic orbitals                 136          :
          :  # shells                           86          :
          :  # electrons                       136          :
          :  # halogen bonds                     0          :
          :  max. iterations                   250          :
          :  Hamiltonian                  GFN1-xTB          :
          :  restarted?                      false          :
          :  GBSA solvation                   true          :
          :  PC potential                    false          :
          :  electronic temp.          300.0000000     K    :
          :  accuracy                    1.0000000          :
          :  -> integral cutoff          0.2500000E+02      :
          :  -> integral neglect         0.1000000E-07      :
          :  -> SCF convergence          0.1000000E-05 Eh   :
          :  -> wf. convergence          0.2000000E-04 e    :
          :  Broyden damping             0.4000000          :
          ...................................................

 iter      E             dE          RMSdq      gap      omega  full diag
   1    -84.3101034 -0.843101E+02  0.858E+00    0.53       0.0  T
   2    -84.2308767  0.792267E-01  0.532E+00    0.59       1.0  T
   3    -83.5581407  0.672736E+00  0.356E+00    0.04       1.0  T
   4    -84.4784424 -0.920302E+00  0.126E+00    2.05       1.0  T
   5    -84.5378420 -0.593995E-01  0.727E-01    1.27       1.0  T
   6    -84.5494690 -0.116271E-01  0.418E-01    0.52       1.0  T
   7    -84.2798331  0.269636E+00  0.143E+00    0.30       1.0  T
   8    -84.5498848 -0.270052E+00  0.413E-01    0.52       1.0  T
   9    -84.5513615 -0.147671E-02  0.371E-01    0.38       1.0  T
  10    -84.5544397 -0.307819E-02  0.315E-01    0.23       1.0  T
  11    -84.5651254 -0.106857E-01  0.120E-01    0.06       1.0  T
  12    -84.5667113 -0.158596E-02  0.628E-02    0.07       1.0  T
  13    -84.5673114 -0.600083E-03  0.205E-03    0.08       7.4  T
  14    -84.5672842  0.271758E-04  0.139E-02    0.09       1.1  T
  15    -84.5673010 -0.167361E-04  0.854E-03    0.08       1.8  T
  16    -84.5673087 -0.777383E-05  0.448E-03    0.08       3.4  T
  17    -84.5673116 -0.281934E-05  0.712E-04    0.08      21.4  T
  18    -84.5673115  0.375341E-07  0.885E-04    0.08      17.2  T
  19    -84.5673116 -0.109965E-06  0.161E-04    0.08      94.8  T
  20    -84.5673116 -0.322351E-08  0.610E-05    0.08     250.1  T

   *** convergence criteria satisfied after 20 iterations ***

         #    Occupation            Energy/Eh            Energy/eV
      -------------------------------------------------------------
         1        2.0000           -0.8290669             -22.5601
       ...           ...                  ...                  ...
        62        2.0000           -0.4269590             -11.6181
        63        2.0000           -0.4170043             -11.3473
        64        2.0000           -0.4136501             -11.2560
        65        2.0000           -0.4077125             -11.0944
        66        2.0000           -0.3930136             -10.6944
        67        2.0000           -0.3863763             -10.5138
        68        1.6614           -0.2865744              -7.7981 (HOMO)
        69        0.3386           -0.2835522              -7.7158 (LUMO)
        70                         -0.2371324              -6.4527
        71                         -0.2308462              -6.2816
        72                         -0.1927523              -5.2451
        73                         -0.1673784              -4.5546
       ...                                ...                  ...
       136                          0.7174400              19.5225
      -------------------------------------------------------------
                  HL-Gap            0.0030222 Eh            0.0822 eV
             Fermi-level           -0.2850633 Eh           -7.7570 eV

 SCC (total)                   0 d,  0 h,  0 min,  0.176 sec
 SCC setup                      ...        0 min,  0.002 sec (  0.888%)
 Dispersion                     ...        0 min,  0.000 sec (  0.162%)
 classical contributions        ...        0 min,  0.000 sec (  0.059%)
 integral evaluation            ...        0 min,  0.020 sec ( 11.410%)
 iterations                     ...        0 min,  0.069 sec ( 39.022%)
 molecular gradient             ...        0 min,  0.084 sec ( 47.963%)
 printout                       ...        0 min,  0.001 sec (  0.476%)

         :::::::::::::::::::::::::::::::::::::::::::::::::::::
         ::                     SUMMARY                     ::
         :::::::::::::::::::::::::::::::::::::::::::::::::::::
         :: total energy             -83.826487795927 Eh    ::
         :: total w/o Gsasa/hb       -83.803283011177 Eh    ::
         :: gradient norm              0.163309826609 Eh/a0 ::
         :: HOMO-LUMO gap              0.082239009605 eV    ::
         ::.................................................::
         :: SCC energy               -84.567311627954 Eh    ::
         :: -> electrostatic           0.417015883041 Eh    ::
         :: -> Gsolv                  -0.109633633765 Eh    ::
         ::    -> Gelec               -0.086428849015 Eh    ::
         ::    -> Gsasa               -0.025586147839 Eh    ::
         ::    -> Ghb                 -0.005242915915 Eh    ::
         ::    -> Gshift               0.007624279005 Eh    ::
         :: repulsion energy           0.766518766909 Eh    ::
         :: dispersion energy         -0.025694934882 Eh    ::
         :: halogen bond corr.         0.000000000000 Eh    ::
         :: add. restraining           0.000000000000 Eh    ::
         :: total charge              -1.000000000000 e     ::
         :::::::::::::::::::::::::::::::::::::::::::::::::::::

      ----------------------------------------------------------- 
     |                   =====================                   |
     |                        A N C O P T                        |
     |                   =====================                   |
     |               Approximate Normal Coordinate               |
     |                Rational Function Optimizer                |
      ----------------------------------------------------------- 

          ...................................................
          :                      SETUP                      :
          :.................................................:
          :   optimization level            normal          :
          :   max. optcycles                   200          :
          :   ANC micro-cycles                  20          :
          :   degrees of freedom               123          :
          :.................................................:
          :   RF solver                   davidson          :
          :   write xtbopt.log                true          :
          :   linear?                        false          :
          :   energy convergence         0.5000000E-05 Eh   :
          :   grad. convergence          0.1000000E-02 Eh/α :
          :   maximium RF displ.         1.0000000          :
          :   Hlow (freq-cutoff)         0.1000000E-01      :
          :   Hmax (freq-cutoff)         5.0000000          :
          :   S6 in model hess.         20.0000000          :
          ...................................................

generating ANC from model Hessian ...
Using Lindh-Hessian (1995)
 Shifting diagonal of input Hessian by   9.812101624578877E-003
 Lowest  eigenvalues of input Hessian
    0.000000    0.000000    0.000000    0.000000    0.000000    0.000000
    0.010000    0.010008    0.010645    0.011138    0.011716    0.011966
    0.012536    0.013433    0.013658    0.014312    0.015679    0.016051
 Highest eigenvalues
    1.965346    2.093940    2.109678    2.177458    2.255247    2.315968
 

........................................................................
.............................. CYCLE    1 ..............................
........................................................................
   1    -84.5673116 -0.845673E+02  0.300E-05    0.08       0.0  T
   2    -84.5673116  0.184800E-07  0.358E-04    0.08      42.6  T
   3    -84.5673116 -0.186106E-07  0.278E-07    0.08   54765.7  T
   4    -84.5673116  0.156319E-12  0.727E-07    0.08   20964.7  T
     SCC iter.                  ...        0 min,  0.014 sec
     gradient                   ...        0 min,  0.084 sec
 * total energy  :   -83.8264878 Eh     change       -0.5345129E-09 Eh
   gradient norm :     0.1633040 Eh/α   predicted     0.0000000E+00 (-100.00%)
   displ. norm   :     0.3405640 α      lambda       -0.2103137E-01
   maximum displ.:     0.1346195 α      in ANC's #11, #32, #31, ...

........................................................................
.............................. CYCLE    2 ..............................
........................................................................
   1    -84.5743191 -0.845743E+02  0.302E-01    0.26       0.0  T
   2    -84.2678091  0.306510E+00  0.153E+00    0.50       1.0  T
   3    -84.5808465 -0.313037E+00  0.194E-01    0.15       1.0  T
   4    -84.5848885 -0.404202E-02  0.748E-02    0.11       1.0  T
   5    -84.5853933 -0.504789E-03  0.396E-02    0.08       1.0  T
   6    -84.5853244  0.688829E-04  0.465E-02    0.10       1.0  T
   7    -84.5856272 -0.302764E-03  0.380E-03    0.09       4.0  T
   8    -84.5856261  0.107722E-05  0.459E-03    0.09       3.3  T
   9    -84.5856282 -0.206766E-05  0.261E-03    0.09       5.8  T
  10    -84.5856291 -0.958611E-06  0.476E-04    0.09      32.0  T
  11    -84.5856292 -0.308212E-07  0.920E-05    0.09     165.8  T
  12    -84.5856292 -0.115745E-08  0.357E-06    0.09    4267.4  T
     SCC iter.                  ...        0 min,  0.029 sec
     gradient                   ...        0 min,  0.044 sec
 * total energy  :   -83.8420650 Eh     change       -0.1557716E-01 Eh
   gradient norm :     0.0802001 Eh/α   predicted    -0.1175289E-01 ( -24.55%)
   displ. norm   :     0.3509195 α      lambda       -0.1020926E-01
   maximum displ.:     0.1278783 α      in ANC's #11, #6, #32, ...

........................................................................
.............................. CYCLE    3 ..............................
........................................................................
   1    -84.5929867 -0.845930E+02  0.265E-01    0.32       0.0  T
   2    -84.2653014  0.327685E+00  0.156E+00    0.37       1.0  T
   3    -84.5956661 -0.330365E+00  0.217E-01    0.22       1.0  T
   4    -84.5978307 -0.216462E-02  0.165E-01    0.17       1.0  T
   5    -84.6014523 -0.362155E-02  0.233E-02    0.11       1.0  T
   6    -84.6013972  0.550270E-04  0.283E-02    0.10       1.0  T
   7    -84.6014093 -0.120191E-04  0.271E-02    0.11       1.0  T
   8    -84.6014966 -0.873349E-04  0.107E-02    0.10       1.4  T
   9    -84.6015131 -0.164876E-04  0.765E-04    0.10      19.9  T
  10    -84.6015129  0.164150E-06  0.130E-03    0.10      11.7  T
  11    -84.6015131 -0.230768E-06  0.321E-04    0.10      47.6  T
  12    -84.6015132 -0.143897E-07  0.524E-05    0.10     290.8  T
  13    -84.6015132 -0.388098E-09  0.135E-06    0.10   11326.1  T
     SCC iter.                  ...        0 min,  0.031 sec
     gradient                   ...        0 min,  0.044 sec
 * total energy  :   -83.8480621 Eh     change       -0.5997116E-02 Eh
   gradient norm :     0.0221921 Eh/α   predicted    -0.5733238E-02 (  -4.40%)
   displ. norm   :     0.2967817 α      lambda       -0.1857328E-02
   maximum displ.:     0.1248124 α      in ANC's #6, #11, #5, ...

........................................................................
.............................. CYCLE    4 ..............................
........................................................................
   1    -84.5979554 -0.845980E+02  0.158E-01    0.18       0.0  T
   2    -84.2696829  0.328273E+00  0.153E+00    0.25       1.0  T
   3    -84.6010312 -0.331348E+00  0.633E-02    0.13       1.0  T
   4    -84.6014779 -0.446714E-03  0.258E-02    0.12       1.0  T
   5    -84.6015636 -0.857301E-04  0.107E-02    0.11       1.4  T
   6    -84.6015684 -0.477024E-05  0.835E-03    0.11       1.8  T
   7    -84.6015773 -0.890794E-05  0.168E-03    0.11       9.1  T
   8    -84.6015776 -0.354144E-06  0.360E-04    0.11      42.4  T
   9    -84.6015776 -0.992263E-08  0.205E-04    0.11      74.5  T
  10    -84.6015777 -0.507636E-08  0.597E-05    0.11     255.2  T
  11    -84.6015777 -0.369880E-09  0.221E-05    0.11     689.2  T
     SCC iter.                  ...        0 min,  0.027 sec
     gradient                   ...        0 min,  0.044 sec
 * total energy  :   -83.8494867 Eh     change       -0.1424652E-02 Eh
   gradient norm :     0.0165406 Eh/α   predicted    -0.1010480E-02 ( -29.07%)
   displ. norm   :     0.4204418 α      lambda       -0.1681642E-02
   maximum displ.:     0.1936236 α      in ANC's #6, #5, #8, ...

........................................................................
.............................. CYCLE    5 ..............................
........................................................................
   1    -84.5978808 -0.845979E+02  0.143E-01    0.19       0.0  T
   2    -84.2708691  0.327012E+00  0.152E+00    0.21       1.0  T
   3    -84.6002390 -0.329370E+00  0.672E-02    0.14       1.0  T
   4    -84.6006502 -0.411218E-03  0.362E-02    0.13       1.0  T
   5    -84.6008407 -0.190442E-03  0.423E-03    0.12       3.6  T
   6    -84.6008251  0.155510E-04  0.108E-02    0.11       1.4  T
   7    -84.6008392 -0.140616E-04  0.378E-03    0.11       4.0  T
   8    -84.6008411 -0.194781E-05  0.615E-04    0.12      24.8  T
   9    -84.6008412 -0.425529E-07  0.232E-04    0.12      65.7  T
  10    -84.6008412 -0.630732E-08  0.875E-05    0.12     174.4  T
  11    -84.6008412 -0.980336E-09  0.117E-05    0.12    1306.6  T
     SCC iter.                  ...        0 min,  0.027 sec
     gradient                   ...        0 min,  0.044 sec
 * total energy  :   -83.8506915 Eh     change       -0.1204796E-02 Eh
   gradient norm :     0.0099047 Eh/α   predicted    -0.9894603E-03 ( -17.87%)
   displ. norm   :     0.3980445 α      lambda       -0.9148398E-03
   maximum displ.:     0.2079021 α      in ANC's #5, #6, #8, ...

........................................................................
.............................. CYCLE    6 ..............................
........................................................................
   1    -84.5997319 -0.845997E+02  0.852E-02    0.15       0.0  T
   2    -84.3820199  0.217712E+00  0.123E+00    0.09       1.0  T
   3    -84.6005703 -0.218550E+00  0.400E-02    0.13       1.0  T
   4    -84.6006764 -0.106077E-03  0.269E-02    0.13       1.0  T
   5    -84.6007622 -0.857844E-04  0.112E-02    0.12       1.4  T
   6    -84.6007785 -0.163320E-04  0.143E-03    0.12      10.6  T
   7    -84.6007782  0.293792E-06  0.194E-03    0.12       7.8  T
   8    -84.6007787 -0.502741E-06  0.559E-04    0.12      27.3  T
   9    -84.6007788 -0.452587E-07  0.186E-05    0.12     819.2  T
  10    -84.6007788  0.515541E-09  0.622E-05    0.12     245.1  T
     SCC iter.                  ...        0 min,  0.025 sec
     gradient                   ...        0 min,  0.051 sec
 * total energy  :   -83.8513787 Eh     change       -0.6872090E-03 Eh
   gradient norm :     0.0115239 Eh/α   predicted    -0.5299352E-03 ( -22.89%)
   displ. norm   :     0.4239531 α      lambda       -0.7496505E-03
   maximum displ.:     0.2400141 α      in ANC's #5, #6, #7, ...

........................................................................
.............................. CYCLE    7 ..............................
........................................................................
   1    -84.6013250 -0.846013E+02  0.326E-02    0.13       0.0  T
   2    -84.5845168  0.168083E-01  0.342E-01    0.06       1.0  T
   3    -84.6014512 -0.169345E-01  0.115E-02    0.13       1.3  T
   4    -84.6014583 -0.708028E-05  0.772E-03    0.12       2.0  T
   5    -84.6014649 -0.663257E-05  0.274E-03    0.12       5.6  T
   6    -84.6014656 -0.710667E-06  0.400E-04    0.12      38.1  T
   7    -84.6014656 -0.107159E-07  0.663E-05    0.12     230.0  T
   8    -84.6014656  0.169052E-09  0.536E-05    0.12     284.7  T
     SCC iter.                  ...        0 min,  0.020 sec
     gradient                   ...        0 min,  0.045 sec
 * total energy  :   -83.8519511 Eh     change       -0.5723880E-03 Eh
   gradient norm :     0.0130262 Eh/α   predicted    -0.4421956E-03 ( -22.75%)
   displ. norm   :     0.3990170 α      lambda       -0.6454470E-03
   maximum displ.:     0.2306467 α      in ANC's #5, #6, #7, ...

........................................................................
.............................. CYCLE    8 ..............................
........................................................................
   1    -84.6029912 -0.846030E+02  0.241E-02    0.12       0.0  T
   2    -84.6012937  0.169746E-02  0.114E-01    0.18       1.0  T
   3    -84.6030561 -0.176239E-02  0.113E-02    0.13       1.3  T
   4    -84.6030719 -0.158537E-04  0.271E-03    0.12       5.6  T
   5    -84.6030721 -0.158262E-06  0.171E-03    0.12       8.9  T
   6    -84.6030724 -0.293338E-06  0.292E-04    0.12      52.2  T
   7    -84.6030724 -0.670391E-08  0.631E-05    0.12     241.7  T
   8    -84.6030724 -0.732854E-10  0.340E-05    0.12     448.5  T
     SCC iter.                  ...        0 min,  0.020 sec
     gradient                   ...        0 min,  0.044 sec
 * total energy  :   -83.8524449 Eh     change       -0.4938359E-03 Eh
   gradient norm :     0.0118277 Eh/α   predicted    -0.3741072E-03 ( -24.24%)
   displ. norm   :     0.3782033 α      lambda       -0.5676842E-03
   maximum displ.:     0.2226550 α      in ANC's #5, #7, #6, ...

........................................................................
.............................. CYCLE    9 ..............................
........................................................................
   1    -84.6045665 -0.846046E+02  0.421E-02    0.11       0.0  T
   2    -84.6014961  0.307037E-02  0.157E-01    0.22       1.0  T
   3    -84.6047182 -0.322205E-02  0.268E-02    0.13       1.0  T
   4    -84.6048091 -0.909014E-04  0.991E-03    0.12       1.5  T
   5    -84.6048126 -0.345571E-05  0.777E-03    0.13       2.0  T
   6    -84.6048172 -0.467081E-05  0.530E-03    0.12       2.9  T
   7    -84.6048207 -0.346331E-05  0.148E-03    0.13      10.3  T
   8    -84.6048210 -0.294692E-06  0.300E-04    0.13      50.8  T
   9    -84.6048210 -0.103601E-07  0.119E-04    0.13     127.8  T
  10    -84.6048210 -0.186934E-08  0.271E-05    0.13     563.5  T
     SCC iter.                  ...        0 min,  0.036 sec
     gradient                   ...        0 min,  0.055 sec
 * total energy  :   -83.8528699 Eh     change       -0.4249667E-03 Eh
   gradient norm :     0.0094294 Eh/α   predicted    -0.3244427E-03 ( -23.65%)
   displ. norm   :     0.3532256 α      lambda       -0.4251702E-03
   maximum displ.:     0.2069733 α      in ANC's #5, #7, #9, ...

........................................................................
.............................. CYCLE   10 ..............................
........................................................................
   1    -84.6048347 -0.846048E+02  0.213E-02    0.13       0.0  T
   2    -84.6048513 -0.166047E-04  0.183E-02    0.13       1.0  T
   3    -84.6048080  0.433491E-04  0.201E-02    0.14       1.0  T
   4    -84.6048346 -0.266608E-04  0.170E-02    0.12       1.0  T
   5    -84.6048660 -0.313756E-04  0.468E-03    0.13       3.3  T
   6    -84.6048678 -0.174343E-05  0.848E-04    0.13      18.0  T
   7    -84.6048679 -0.882689E-07  0.144E-04    0.13     106.1  T
   8    -84.6048679 -0.833765E-09  0.390E-05    0.13     391.2  T
     SCC iter.                  ...        0 min,  0.026 sec
     gradient                   ...        0 min,  0.064 sec
 * total energy  :   -83.8531822 Eh     change       -0.3122541E-03 Eh
   gradient norm :     0.0112894 Eh/α   predicted    -0.2391096E-03 ( -23.42%)
   displ. norm   :     0.2871209 α      lambda       -0.3815198E-03
   maximum displ.:     0.1656470 α      in ANC's #5, #9, #2, ...

........................................................................
.............................. CYCLE   11 ..............................
........................................................................
   1    -84.6066278 -0.846066E+02  0.512E-02    0.15       0.0  T
   2    -84.5743383  0.322895E-01  0.479E-01    0.06       1.0  T
   3    -84.6067546 -0.324163E-01  0.352E-02    0.15       1.0  T
   4    -84.6069270 -0.172363E-03  0.623E-03    0.14       2.4  T
   5    -84.6069255  0.149780E-05  0.803E-03    0.13       1.9  T
   6    -84.6069184  0.707265E-05  0.996E-03    0.13       1.5  T
   7    -84.6069298 -0.113572E-04  0.424E-03    0.13       3.6  T
   8    -84.6069322 -0.241984E-05  0.762E-04    0.13      20.0  T
   9    -84.6069323 -0.721363E-07  0.227E-04    0.13      67.3  T
  10    -84.6069323 -0.328664E-08  0.159E-04    0.13      96.0  T
  11    -84.6069323 -0.341261E-08  0.204E-05    0.13     746.6  T
     SCC iter.                  ...        0 min,  0.027 sec
     gradient                   ...        0 min,  0.045 sec
 * total energy  :   -83.8534210 Eh     change       -0.2388242E-03 Eh
   gradient norm :     0.0102423 Eh/α   predicted    -0.2064869E-03 ( -13.54%)
   displ. norm   :     0.3126975 α      lambda       -0.3355278E-03
   maximum displ.:     0.1762147 α      in ANC's #5, #9, #2, ...

........................................................................
.............................. CYCLE   12 ..............................
........................................................................
   1    -84.6026391 -0.846026E+02  0.717E-02    0.18       0.0  T
   2    -84.5157858  0.868534E-01  0.784E-01    0.06       1.0  T
   3    -84.6030373 -0.872515E-01  0.429E-02    0.16       1.0  T
   4    -84.6032669 -0.229565E-03  0.144E-02    0.15       1.1  T
   5    -84.6032615  0.535096E-05  0.159E-02    0.14       1.0  T
   6    -84.6032502  0.113544E-04  0.172E-02    0.14       1.0  T
   7    -84.6032839 -0.337678E-04  0.733E-03    0.14       2.1  T
   8    -84.6032910 -0.710577E-05  0.147E-03    0.14      10.4  T
   9    -84.6032913 -0.243797E-06  0.573E-04    0.14      26.6  T
  10    -84.6032913 -0.193441E-07  0.419E-04    0.14      36.4  T
  11    -84.6032913 -0.228652E-07  0.894E-05    0.14     170.5  T
  12    -84.6032913 -0.846740E-09  0.415E-05    0.14     367.8  T
     SCC iter.                  ...        0 min,  0.030 sec
     gradient                   ...        0 min,  0.085 sec
 * total energy  :   -83.8535710 Eh     change       -0.1500384E-03 Eh
   gradient norm :     0.0154272 Eh/α   predicted    -0.1841694E-03 (  22.75%)
   displ. norm   :     0.1653834 α      lambda       -0.3770948E-03
   maximum displ.:     0.0982309 α      in ANC's #7, #2, #13, ...

........................................................................
.............................. CYCLE   13 ..............................
........................................................................
   1    -84.6055611 -0.846056E+02  0.695E-02    0.18       0.0  T
   2    -84.5210061  0.845551E-01  0.771E-01    0.06       1.0  T
   3    -84.6059615 -0.849555E-01  0.417E-02    0.17       1.0  T
   4    -84.6061257 -0.164184E-03  0.241E-02    0.16       1.0  T
   5    -84.6061851 -0.593417E-04  0.122E-02    0.16       1.2  T
   6    -84.6062063 -0.212067E-04  0.997E-04    0.15      15.3  T
   7    -84.6062056  0.640999E-06  0.232E-03    0.15       6.6  T
   8    -84.6062063 -0.672805E-06  0.705E-04    0.15      21.6  T
   9    -84.6062064 -0.679651E-07  0.910E-05    0.15     167.5  T
  10    -84.6062064  0.658787E-09  0.113E-04    0.15     135.4  T
     SCC iter.                  ...        0 min,  0.034 sec
     gradient                   ...        0 min,  0.085 sec
 * total energy  :   -83.8538356 Eh     change       -0.2645876E-03 Eh
   gradient norm :     0.0075154 Eh/α   predicted    -0.1937050E-03 ( -26.79%)
   displ. norm   :     0.2168425 α      lambda       -0.2743292E-03
   maximum displ.:     0.1261407 α      in ANC's #7, #2, #4, ...

........................................................................
.............................. CYCLE   14 ..............................
........................................................................
   1    -84.6058687 -0.846059E+02  0.607E-02    0.19       0.0  T
   2    -84.5636925  0.421762E-01  0.548E-01    0.07       1.0  T
   3    -84.6061330 -0.424405E-01  0.382E-02    0.18       1.0  T
   4    -84.6062665 -0.133425E-03  0.220E-02    0.17       1.0  T
   5    -84.6063234 -0.569386E-04  0.784E-03    0.16       1.9  T
   6    -84.6063289 -0.553512E-05  0.447E-03    0.16       3.4  T
   7    -84.6063309 -0.200204E-05  0.239E-03    0.16       6.4  T
   8    -84.6063317 -0.746160E-06  0.562E-04    0.16      27.2  T
   9    -84.6063317 -0.436223E-07  0.214E-05    0.16     711.3  T
  10    -84.6063317  0.512784E-09  0.626E-05    0.16     243.7  T
     SCC iter.                  ...        0 min,  0.034 sec
     gradient                   ...        0 min,  0.064 sec
 * total energy  :   -83.8540323 Eh     change       -0.1967042E-03 Eh
   gradient norm :     0.0063750 Eh/α   predicted    -0.1436173E-03 ( -26.99%)
   displ. norm   :     0.2041380 α      lambda       -0.1959561E-03
   maximum displ.:     0.1286462 α      in ANC's #7, #2, #4, ...

........................................................................
.............................. CYCLE   15 ..............................
........................................................................
   1    -84.6071182 -0.846071E+02  0.426E-02    0.18       0.0  T
   2    -84.5950368  0.120814E-01  0.296E-01    0.09       1.0  T
   3    -84.6072846 -0.122478E-01  0.217E-02    0.17       1.0  T
   4    -84.6073371 -0.524747E-04  0.885E-03    0.17       1.7  T
   5    -84.6073469 -0.982626E-05  0.231E-03    0.16       6.6  T
   6    -84.6073440  0.296367E-05  0.479E-03    0.16       3.2  T
   7    -84.6073468 -0.283729E-05  0.155E-03    0.16       9.8  T
   8    -84.6073471 -0.308902E-06  0.330E-04    0.16      46.2  T
   9    -84.6073471 -0.139700E-07  0.557E-05    0.16     273.9  T
  10    -84.6073471 -0.270163E-09  0.353E-05    0.16     431.9  T
     SCC iter.                  ...        0 min,  0.025 sec
     gradient                   ...        0 min,  0.084 sec
 * total energy  :   -83.8541741 Eh     change       -0.1417480E-03 Eh
   gradient norm :     0.0064045 Eh/α   predicted    -0.1020656E-03 ( -28.00%)
   displ. norm   :     0.1874079 α      lambda       -0.1465803E-03
   maximum displ.:     0.1146671 α      in ANC's #7, #2, #4, ...

........................................................................
.............................. CYCLE   16 ..............................
........................................................................
   1    -84.6066600 -0.846067E+02  0.100E-02    0.16       0.0  T
   2    -84.6066293  0.307518E-04  0.180E-02    0.17       1.0  T
   3    -84.6066542 -0.249221E-04  0.111E-02    0.16       1.4  T
   4    -84.6066675 -0.132384E-04  0.399E-03    0.17       3.8  T
   5    -84.6066687 -0.121631E-05  0.983E-04    0.17      15.5  T
   6    -84.6066687  0.545647E-08  0.369E-04    0.16      41.4  T
   7    -84.6066687 -0.172660E-07  0.796E-05    0.17     191.5  T
   8    -84.6066687 -0.483041E-09  0.184E-05    0.16     828.9  T
     SCC iter.                  ...        0 min,  0.027 sec
     gradient                   ...        0 min,  0.084 sec
 * total energy  :   -83.8542739 Eh     change       -0.9982216E-04 Eh
   gradient norm :     0.0051841 Eh/α   predicted    -0.7586906E-04 ( -24.00%)
   displ. norm   :     0.1825401 α      lambda       -0.1177402E-03
   maximum displ.:     0.1150069 α      in ANC's #2, #7, #4, ...

........................................................................
.............................. CYCLE   17 ..............................
........................................................................
   1    -84.6079912 -0.846080E+02  0.137E-02    0.17       0.0  T
   2    -84.6076939  0.297291E-03  0.501E-02    0.15       1.0  T
   3    -84.6080066 -0.312696E-03  0.682E-03    0.17       2.2  T
   4    -84.6080087 -0.214491E-05  0.558E-03    0.17       2.7  T
   5    -84.6080099 -0.122689E-05  0.353E-03    0.17       4.3  T
   6    -84.6080112 -0.122393E-05  0.650E-04    0.17      23.4  T
   7    -84.6080112 -0.550710E-07  0.637E-05    0.17     239.3  T
   8    -84.6080112 -0.769518E-10  0.229E-05    0.17     665.7  T
     SCC iter.                  ...        0 min,  0.025 sec
     gradient                   ...        0 min,  0.076 sec
 * total energy  :   -83.8543484 Eh     change       -0.7449267E-04 Eh
   gradient norm :     0.0055499 Eh/α   predicted    -0.6083611E-04 ( -18.33%)
   displ. norm   :     0.1433907 α      lambda       -0.7945140E-04
   maximum displ.:     0.0925939 α      in ANC's #2, #7, #4, ...

........................................................................
.............................. CYCLE   18 ..............................
........................................................................
   1    -84.6074426 -0.846074E+02  0.269E-02    0.15       0.0  T
   2    -84.6065684  0.874283E-03  0.870E-02    0.22       1.0  T
   3    -84.6075264 -0.957991E-03  0.130E-02    0.17       1.2  T
   4    -84.6075481 -0.217170E-04  0.243E-03    0.16       6.3  T
   5    -84.6075488 -0.755352E-06  0.650E-04    0.17      23.5  T
   6    -84.6075488  0.461647E-07  0.670E-04    0.17      22.8  T
   7    -84.6075488 -0.554591E-07  0.135E-04    0.17     113.1  T
   8    -84.6075488 -0.191163E-08  0.443E-05    0.17     344.1  T
     SCC iter.                  ...        0 min,  0.028 sec
     gradient                   ...        0 min,  0.085 sec
 * total energy  :   -83.8544062 Eh     change       -0.5777756E-04 Eh
   gradient norm :     0.0035252 Eh/α   predicted    -0.4054572E-04 ( -29.82%)
   displ. norm   :     0.1732822 α      lambda       -0.7493102E-04
   maximum displ.:     0.1183455 α      in ANC's #2, #7, #4, ...

........................................................................
.............................. CYCLE   19 ..............................
........................................................................
   1    -84.6062434 -0.846062E+02  0.154E-02    0.16       0.0  T
   2    -84.6059166  0.326716E-03  0.510E-02    0.19       1.0  T
   3    -84.6062738 -0.357150E-03  0.352E-03    0.17       4.3  T
   4    -84.6062742 -0.376677E-06  0.178E-03    0.17       8.6  T
   5    -84.6062741  0.101321E-06  0.153E-03    0.17      10.0  T
   6    -84.6062742 -0.183866E-06  0.311E-04    0.17      49.0  T
   7    -84.6062743 -0.121881E-07  0.603E-05    0.17     252.9  T
   8    -84.6062743 -0.344599E-09  0.159E-05    0.17     961.9  T
     SCC iter.                  ...        0 min,  0.028 sec
     gradient                   ...        0 min,  0.086 sec
 * total energy  :   -83.8544581 Eh     change       -0.5197623E-04 Eh
   gradient norm :     0.0037889 Eh/α   predicted    -0.3859243E-04 ( -25.75%)
   displ. norm   :     0.1494757 α      lambda       -0.7055440E-04
   maximum displ.:     0.1043358 α      in ANC's #2, #7, #5, ...

........................................................................
.............................. CYCLE   20 ..............................
........................................................................
   1    -84.6074768 -0.846075E+02  0.190E-02    0.16       0.0  T
   2    -84.6069861  0.490659E-03  0.640E-02    0.20       1.0  T
   3    -84.6075187 -0.532599E-03  0.527E-03    0.17       2.9  T
   4    -84.6075203 -0.157912E-05  0.212E-03    0.17       7.2  T
   5    -84.6075197  0.561249E-06  0.211E-03    0.16       7.2  T
   6    -84.6075203 -0.582122E-06  0.440E-04    0.17      34.7  T
   7    -84.6075203 -0.223093E-07  0.129E-04    0.17     118.3  T
   8    -84.6075203 -0.146794E-08  0.517E-05    0.17     294.9  T
     SCC iter.                  ...        0 min,  0.028 sec
     gradient                   ...        0 min,  0.090 sec
 * total energy  :   -83.8544946 Eh     change       -0.3642233E-04 Eh
   gradient norm :     0.0048041 Eh/α   predicted    -0.3606906E-04 (  -0.97%)
   displ. norm   :     0.1381429 α      lambda       -0.5420457E-04
   maximum displ.:     0.0947880 α      in ANC's #2, #3, #4, ...
 * RMSD in coord.:     0.5447770 α      energy gain  -0.2800677E-01 Eh

generating ANC from model Hessian ...
Using Lindh-Hessian (1995)
 Shifting diagonal of input Hessian by   9.804386523625967E-003
 Lowest  eigenvalues of input Hessian
    0.000000    0.000000    0.000000    0.000000    0.000000    0.000000
    0.010000    0.010024    0.010573    0.011075    0.011716    0.011963
    0.012482    0.013203    0.013876    0.014465    0.015523    0.016546
 Highest eigenvalues
    2.016090    2.074624    2.135860    2.167172    2.263552    2.361133
 

........................................................................
.............................. CYCLE   21 ..............................
........................................................................
   1    -84.6064771 -0.846065E+02  0.558E-03    0.17       0.0  T
   2    -84.6064741  0.293220E-05  0.637E-03    0.17       2.4  T
   3    -84.6064700  0.414586E-05  0.839E-03    0.16       1.8  T
   4    -84.6064788 -0.880693E-05  0.163E-03    0.17       9.4  T
   5    -84.6064789 -0.952414E-07  0.536E-04    0.17      28.4  T
   6    -84.6064789 -0.394745E-08  0.639E-05    0.17     238.6  T
   7    -84.6064789 -0.496811E-10  0.313E-05    0.17     487.5  T
     SCC iter.                  ...        0 min,  0.021 sec
     gradient                   ...        0 min,  0.081 sec
 * total energy  :   -83.8545358 Eh     change       -0.4126674E-04 Eh
   gradient norm :     0.0041305 Eh/α   predicted     0.0000000E+00 (-100.00%)
   displ. norm   :     0.0360642 α      lambda       -0.2085129E-04
   maximum displ.:     0.0178684 α      in ANC's #1, #3, #5, ...

........................................................................
.............................. CYCLE   22 ..............................
........................................................................
   1    -84.6074227 -0.846074E+02  0.548E-03    0.17       0.0  T
   2    -84.6073627  0.599377E-04  0.212E-02    0.16       1.0  T
   3    -84.6074258 -0.630562E-04  0.237E-03    0.17       6.4  T
   4    -84.6074261 -0.267326E-06  0.119E-03    0.17      12.8  T
   5    -84.6074261 -0.866172E-07  0.503E-04    0.17      30.3  T
   6    -84.6074262 -0.170456E-07  0.664E-05    0.17     229.7  T
   7    -84.6074262 -0.303316E-09  0.154E-05    0.17     991.1  T
     SCC iter.                  ...        0 min,  0.018 sec
     gradient                   ...        0 min,  0.085 sec
 * total energy  :   -83.8545631 Eh     change       -0.2728050E-04 Eh
   gradient norm :     0.0022872 Eh/α   predicted    -0.1678343E-04 ( -38.48%)
   displ. norm   :     0.1000845 α      lambda       -0.5322642E-04
   maximum displ.:     0.0519181 α      in ANC's #1, #3, #5, ...

........................................................................
.............................. CYCLE   23 ..............................
........................................................................
   1    -84.6084002 -0.846084E+02  0.905E-03    0.17       0.0  T
   2    -84.6082620  0.138221E-03  0.321E-02    0.15       1.0  T
   3    -84.6084062 -0.144265E-03  0.600E-03    0.17       2.5  T
   4    -84.6084085 -0.227178E-05  0.282E-03    0.17       5.4  T
   5    -84.6084090 -0.523459E-06  0.136E-03    0.17      11.2  T
   6    -84.6084092 -0.160117E-06  0.143E-04    0.17     106.7  T
   7    -84.6084092 -0.147087E-08  0.256E-05    0.17     594.8  T
     SCC iter.                  ...        0 min,  0.024 sec
     gradient                   ...        0 min,  0.085 sec
 * total energy  :   -83.8545989 Eh     change       -0.3579898E-04 Eh
   gradient norm :     0.0017003 Eh/α   predicted    -0.2687998E-04 ( -24.91%)
   displ. norm   :     0.1385183 α      lambda       -0.2635471E-04
   maximum displ.:     0.0762717 α      in ANC's #1, #3, #2, ...

........................................................................
.............................. CYCLE   24 ..............................
........................................................................
   1    -84.6084190 -0.846084E+02  0.589E-03    0.17       0.0  T
   2    -84.6083981  0.209007E-04  0.128E-02    0.16       1.2  T
   3    -84.6084160 -0.179206E-04  0.768E-03    0.17       2.0  T
   4    -84.6084217 -0.570582E-05  0.243E-03    0.17       6.3  T
   5    -84.6084221 -0.341193E-06  0.122E-03    0.17      12.5  T
   6    -84.6084222 -0.126145E-06  0.950E-05    0.17     160.5  T
   7    -84.6084222 -0.427434E-09  0.227E-05    0.17     672.1  T
     SCC iter.                  ...        0 min,  0.025 sec
     gradient                   ...        0 min,  0.133 sec
 * total energy  :   -83.8546289 Eh     change       -0.3002782E-04 Eh
   gradient norm :     0.0034484 Eh/α   predicted    -0.1337561E-04 ( -55.46%)
   displ. norm   :     0.1157831 α      lambda       -0.3436059E-04
   maximum displ.:     0.0653370 α      in ANC's #1, #3, #2, ...

........................................................................
.............................. CYCLE   25 ..............................
........................................................................
   1    -84.6080088 -0.846080E+02  0.337E-03    0.17       0.0  T
   2    -84.6079961  0.127380E-04  0.106E-02    0.17       1.4  T
   3    -84.6080097 -0.136349E-04  0.167E-03    0.17       9.1  T
   4    -84.6080099 -0.151624E-06  0.125E-03    0.17      12.2  T
   5    -84.6080100 -0.118132E-06  0.306E-04    0.17      49.8  T
   6    -84.6080100 -0.564732E-08  0.450E-05    0.17     339.2  T
   7    -84.6080100 -0.596145E-10  0.186E-05    0.17     820.4  T
     SCC iter.                  ...        0 min,  0.024 sec
     gradient                   ...        0 min,  0.084 sec
 * total energy  :   -83.8546604 Eh     change       -0.3146394E-04 Eh
   gradient norm :     0.0033437 Eh/α   predicted    -0.1747582E-04 ( -44.46%)
   displ. norm   :     0.2547443 α      lambda       -0.7440570E-04
   maximum displ.:     0.1441216 α      in ANC's #1, #3, #2, ...

........................................................................
.............................. CYCLE   26 ..............................
........................................................................
   1    -84.6069351 -0.846069E+02  0.119E-02    0.16       0.0  T
   2    -84.6067124  0.222756E-03  0.431E-02    0.19       1.0  T
   3    -84.6069528 -0.240490E-03  0.300E-03    0.17       5.1  T
   4    -84.6069528  0.600724E-07  0.232E-03    0.17       6.6  T
   5    -84.6069532 -0.388198E-06  0.778E-04    0.17      19.6  T
   6    -84.6069532 -0.721804E-07  0.307E-04    0.17      49.6  T
   7    -84.6069533 -0.991449E-08  0.101E-04    0.17     151.3  T
   8    -84.6069533 -0.998497E-09  0.389E-05    0.17     392.0  T
     SCC iter.                  ...        0 min,  0.029 sec
     gradient                   ...        0 min,  0.085 sec
 * total energy  :   -83.8547210 Eh     change       -0.6055655E-04 Eh
   gradient norm :     0.0028696 Eh/α   predicted    -0.3962632E-04 ( -34.56%)
   displ. norm   :     0.2982202 α      lambda       -0.6844706E-04
   maximum displ.:     0.1732493 α      in ANC's #1, #3, #2, ...

........................................................................
.............................. CYCLE   27 ..............................
........................................................................
   1    -84.6058782 -0.846059E+02  0.183E-02    0.16       0.0  T
   2    -84.6053920  0.486225E-03  0.640E-02    0.21       1.0  T
   3    -84.6059202 -0.528257E-03  0.566E-03    0.17       2.7  T
   4    -84.6059230 -0.279964E-05  0.227E-03    0.17       6.7  T
   5    -84.6059233 -0.219102E-06  0.135E-03    0.17      11.3  T
   6    -84.6059234 -0.179147E-06  0.788E-04    0.17      19.4  T
   7    -84.6059235 -0.753948E-07  0.199E-04    0.17      76.6  T
   8    -84.6059235 -0.463949E-08  0.534E-05    0.17     285.7  T
     SCC iter.                  ...        0 min,  0.028 sec
     gradient                   ...        0 min,  0.082 sec
 * total energy  :   -83.8547732 Eh     change       -0.5224468E-04 Eh
   gradient norm :     0.0033726 Eh/α   predicted    -0.3726824E-04 ( -28.67%)
   displ. norm   :     0.2179338 α      lambda       -0.5161703E-04
   maximum displ.:     0.1333279 α      in ANC's #1, #2, #3, ...

........................................................................
.............................. CYCLE   28 ..............................
........................................................................
   1    -84.6060516 -0.846061E+02  0.148E-02    0.16       0.0  T
   2    -84.6056915  0.360071E-03  0.543E-02    0.20       1.0  T
   3    -84.6060800 -0.388442E-03  0.358E-03    0.17       4.3  T
   4    -84.6060815 -0.151073E-05  0.665E-04    0.17      22.9  T
   5    -84.6060815  0.244795E-07  0.592E-04    0.17      25.7  T
   6    -84.6060815 -0.235067E-07  0.389E-04    0.17      39.2  T
   7    -84.6060815 -0.191846E-07  0.850E-05    0.17     179.3  T
   8    -84.6060815 -0.841140E-09  0.206E-05    0.17     741.3  T
     SCC iter.                  ...        0 min,  0.029 sec
     gradient                   ...        0 min,  0.084 sec
 * total energy  :   -83.8548169 Eh     change       -0.4372610E-04 Eh
   gradient norm :     0.0032079 Eh/α   predicted    -0.2703467E-04 ( -38.17%)
   displ. norm   :     0.2345483 α      lambda       -0.6881444E-04
   maximum displ.:     0.1490448 α      in ANC's #1, #2, #3, ...

........................................................................
.............................. CYCLE   29 ..............................
........................................................................
   1    -84.6071748 -0.846072E+02  0.151E-02    0.16       0.0  T
   2    -84.6068007  0.374154E-03  0.551E-02    0.20       1.0  T
   3    -84.6072045 -0.403809E-03  0.327E-03    0.17       4.7  T
   4    -84.6072057 -0.116317E-05  0.136E-03    0.17      11.2  T
   5    -84.6072058 -0.146325E-06  0.512E-04    0.17      29.8  T
   6    -84.6072058 -0.115739E-07  0.322E-04    0.17      47.4  T
   7    -84.6072058 -0.142351E-07  0.217E-05    0.17     702.0  T
   8    -84.6072058 -0.121503E-10  0.110E-05    0.17    1386.3  T
     SCC iter.                  ...        0 min,  0.028 sec
     gradient                   ...        0 min,  0.084 sec
 * total energy  :   -83.8548744 Eh     change       -0.5744082E-04 Eh
   gradient norm :     0.0026179 Eh/α   predicted    -0.3630055E-04 ( -36.80%)
   displ. norm   :     0.3210179 α      lambda       -0.7769998E-04
   maximum displ.:     0.2039475 α      in ANC's #1, #2, #3, ...

........................................................................
.............................. CYCLE   30 ..............................
........................................................................
   1    -84.6075301 -0.846075E+02  0.179E-02    0.16       0.0  T
   2    -84.6070206  0.509527E-03  0.648E-02    0.21       1.0  T
   3    -84.6075713 -0.550720E-03  0.564E-03    0.17       2.7  T
   4    -84.6075754 -0.414108E-05  0.910E-04    0.17      16.8  T
   5    -84.6075755 -0.624615E-07  0.361E-04    0.17      42.2  T
   6    -84.6075755  0.175862E-07  0.430E-04    0.17      35.5  T
   7    -84.6075755 -0.247726E-07  0.220E-05    0.17     692.7  T
   8    -84.6075755  0.430589E-11  0.149E-05    0.17    1020.9  T
     SCC iter.                  ...        0 min,  0.028 sec
     gradient                   ...        0 min,  0.084 sec
 * total energy  :   -83.8549389 Eh     change       -0.6449976E-04 Eh
   gradient norm :     0.0029570 Eh/α   predicted    -0.4285501E-04 ( -33.56%)
   displ. norm   :     0.3098282 α      lambda       -0.6891825E-04
   maximum displ.:     0.2029113 α      in ANC's #1, #2, #3, ...

........................................................................
.............................. CYCLE   31 ..............................
........................................................................
   1    -84.6079816 -0.846080E+02  0.919E-03    0.17       0.0  T
   2    -84.6078153  0.166268E-03  0.364E-02    0.19       1.0  T
   3    -84.6079931 -0.177784E-03  0.233E-03    0.17       6.5  T
   4    -84.6079937 -0.612288E-06  0.599E-04    0.17      25.5  T
   5    -84.6079937 -0.648095E-08  0.296E-04    0.17      51.4  T
   6    -84.6079937 -0.129532E-09  0.974E-05    0.17     156.6  T
   7    -84.6079937 -0.997161E-09  0.179E-05    0.17     849.6  T
     SCC iter.                  ...        0 min,  0.025 sec
     gradient                   ...        0 min,  0.084 sec
 * total energy  :   -83.8549947 Eh     change       -0.5585475E-04 Eh
   gradient norm :     0.0030171 Eh/α   predicted    -0.3776921E-04 ( -32.38%)
   displ. norm   :     0.2836688 α      lambda       -0.5505189E-04
   maximum displ.:     0.1877034 α      in ANC's #1, #2, #3, ...

........................................................................
.............................. CYCLE   32 ..............................
........................................................................
   1    -84.6078896 -0.846079E+02  0.306E-03    0.17       0.0  T
   2    -84.6078893  0.282682E-06  0.300E-03    0.18       5.1  T
   3    -84.6078879  0.141918E-05  0.422E-03    0.17       3.6  T
   4    -84.6078902 -0.231096E-05  0.835E-04    0.17      18.3  T
   5    -84.6078903 -0.497351E-07  0.303E-04    0.17      50.3  T
   6    -84.6078903 -0.215618E-08  0.789E-05    0.17     193.3  T
   7    -84.6078903 -0.591385E-09  0.229E-05    0.17     666.4  T
     SCC iter.                  ...        0 min,  0.026 sec
     gradient                   ...        0 min,  0.084 sec
 * total energy  :   -83.8550419 Eh     change       -0.4720073E-04 Eh
   gradient norm :     0.0027294 Eh/α   predicted    -0.2974143E-04 ( -36.99%)
   displ. norm   :     0.2916890 α      lambda       -0.5676464E-04
   maximum displ.:     0.1963799 α      in ANC's #1, #2, #3, ...

........................................................................
.............................. CYCLE   33 ..............................
........................................................................
   1    -84.6080294 -0.846080E+02  0.955E-03    0.18       0.0  T
   2    -84.6078448  0.184618E-03  0.381E-02    0.16       1.0  T
   3    -84.6080380 -0.193214E-03  0.380E-03    0.18       4.0  T
   4    -84.6080397 -0.165878E-05  0.785E-04    0.18      19.4  T
   5    -84.6080397  0.899576E-09  0.461E-04    0.18      33.1  T
   6    -84.6080397  0.395563E-08  0.265E-04    0.18      57.6  T
   7    -84.6080397 -0.867814E-08  0.301E-05    0.18     507.1  T
   8    -84.6080397 -0.244569E-10  0.881E-06    0.18    1730.8  T
     SCC iter.                  ...        0 min,  0.031 sec
     gradient                   ...        0 min,  0.084 sec
 * total energy  :   -83.8550895 Eh     change       -0.4757618E-04 Eh
   gradient norm :     0.0020873 Eh/α   predicted    -0.3079824E-04 ( -35.27%)
   displ. norm   :     0.3404571 α      lambda       -0.5485939E-04
   maximum displ.:     0.2284191 α      in ANC's #1, #2, #3, ...

........................................................................
.............................. CYCLE   34 ..............................
........................................................................
   1    -84.6071396 -0.846071E+02  0.969E-03    0.18       0.0  T
   2    -84.6069962  0.143430E-03  0.338E-02    0.17       1.0  T
   3    -84.6071459 -0.149715E-03  0.506E-03    0.18       3.0  T
   4    -84.6071489 -0.297943E-05  0.114E-03    0.18      13.4  T
   5    -84.6071489 -0.107840E-07  0.515E-04    0.18      29.6  T
   6    -84.6071489  0.396489E-08  0.250E-04    0.18      60.9  T
   7    -84.6071489 -0.739493E-08  0.327E-05    0.18     465.9  T
   8    -84.6071489 -0.310081E-10  0.981E-06    0.18    1554.3  T
     SCC iter.                  ...        0 min,  0.031 sec
     gradient                   ...        0 min,  0.085 sec
 * total energy  :   -83.8551334 Eh     change       -0.4388380E-04 Eh
   gradient norm :     0.0024382 Eh/α   predicted    -0.3060984E-04 ( -30.25%)
   displ. norm   :     0.3131600 α      lambda       -0.5396748E-04
   maximum displ.:     0.2170245 α      in ANC's #1, #2, #3, ...

........................................................................
.............................. CYCLE   35 ..............................
........................................................................
   1    -84.6080437 -0.846080E+02  0.164E-02    0.19       0.0  T
   2    -84.6074089  0.634837E-03  0.705E-02    0.16       1.0  T
   3    -84.6080730 -0.664107E-03  0.512E-03    0.19       3.0  T
   4    -84.6080759 -0.297712E-05  0.143E-03    0.18      10.7  T
   5    -84.6080758  0.131612E-06  0.134E-03    0.18      11.3  T
   6    -84.6080759 -0.101215E-06  0.635E-04    0.18      24.0  T
   7    -84.6080760 -0.507670E-07  0.662E-05    0.18     230.3  T
   8    -84.6080760 -0.357446E-09  0.160E-05    0.18     955.3  T
     SCC iter.                  ...        0 min,  0.028 sec
     gradient                   ...        0 min,  0.084 sec
 * total energy  :   -83.8551671 Eh     change       -0.3372216E-04 Eh
   gradient norm :     0.0026139 Eh/α   predicted    -0.2964022E-04 ( -12.10%)
   displ. norm   :     0.2229749 α      lambda       -0.2556150E-04
   maximum displ.:     0.1519451 α      in ANC's #1, #2, #3, ...

........................................................................
.............................. CYCLE   36 ..............................
........................................................................
   1    -84.6073950 -0.846074E+02  0.336E-03    0.18       0.0  T
   2    -84.6073950 -0.110361E-07  0.241E-03    0.18       6.3  T
   3    -84.6073937  0.129593E-05  0.378E-03    0.18       4.0  T
   4    -84.6073955 -0.174097E-05  0.981E-04    0.18      15.6  T
   5    -84.6073955 -0.548604E-07  0.318E-04    0.18      48.0  T
   6    -84.6073955 -0.274872E-08  0.670E-05    0.18     227.6  T
   7    -84.6073955 -0.230045E-09  0.204E-05    0.18     746.7  T
     SCC iter.                  ...        0 min,  0.025 sec
     gradient                   ...        0 min,  0.084 sec
 * total energy  :   -83.8551852 Eh     change       -0.1807671E-04 Eh
   gradient norm :     0.0025222 Eh/α   predicted    -0.1341960E-04 ( -25.76%)
   displ. norm   :     0.1587841 α      lambda       -0.2440176E-04
   maximum displ.:     0.1110146 α      in ANC's #1, #2, #10, ...

........................................................................
.............................. CYCLE   37 ..............................
........................................................................
   1    -84.6079957 -0.846080E+02  0.263E-03    0.18       0.0  T
   2    -84.6079940  0.170873E-05  0.383E-03    0.19       4.0  T
   3    -84.6079947 -0.681404E-06  0.350E-03    0.18       4.4  T
   4    -84.6079960 -0.136851E-05  0.822E-04    0.18      18.6  T
   5    -84.6079961 -0.314812E-07  0.443E-04    0.18      34.4  T
   6    -84.6079961 -0.142436E-07  0.739E-05    0.18     206.4  T
   7    -84.6079961 -0.446093E-09  0.965E-06    0.18    1580.4  T
     SCC iter.                  ...        0 min,  0.026 sec
     gradient                   ...        0 min,  0.084 sec
 * total energy  :   -83.8552053 Eh     change       -0.2016345E-04 Eh
   gradient norm :     0.0017735 Eh/α   predicted    -0.1250975E-04 ( -37.96%)
   displ. norm   :     0.3284380 α      lambda       -0.3198841E-04
   maximum displ.:     0.2271186 α      in ANC's #1, #2, #5, ...

........................................................................
.............................. CYCLE   38 ..............................
........................................................................
   1    -84.6087475 -0.846087E+02  0.118E-02    0.18       0.0  T
   2    -84.6085556  0.191847E-03  0.395E-02    0.20       1.0  T
   3    -84.6087648 -0.209214E-03  0.151E-03    0.18      10.1  T
   4    -84.6087648  0.153264E-07  0.133E-03    0.18      11.5  T
   5    -84.6087649 -0.126553E-06  0.438E-04    0.18      34.8  T
   6    -84.6087650 -0.835172E-08  0.939E-05    0.18     162.5  T
   7    -84.6087650 -0.257202E-09  0.211E-05    0.18     724.4  T
     SCC iter.                  ...        0 min,  0.026 sec
     gradient                   ...        0 min,  0.084 sec
 * total energy  :   -83.8552374 Eh     change       -0.3203618E-04 Eh
   gradient norm :     0.0018522 Eh/α   predicted    -0.1676303E-04 ( -47.67%)
   displ. norm   :     0.2758116 α      lambda       -0.1804617E-04
   maximum displ.:     0.1925224 α      in ANC's #1, #2, #5, ...

........................................................................
.............................. CYCLE   39 ..............................
........................................................................
   1    -84.6085055 -0.846085E+02  0.394E-03    0.18       0.0  T
   2    -84.6084815  0.239895E-04  0.138E-02    0.19       1.1  T
   3    -84.6085073 -0.258201E-04  0.747E-04    0.18      20.4  T
   4    -84.6085073 -0.821397E-08  0.428E-04    0.18      35.7  T
   5    -84.6085073 -0.472151E-08  0.148E-04    0.18     103.3  T
   6    -84.6085073 -0.463928E-09  0.592E-05    0.18     257.7  T
     SCC iter.                  ...        0 min,  0.022 sec
     gradient                   ...        0 min,  0.084 sec
 * total energy  :   -83.8552597 Eh     change       -0.2235640E-04 Eh
   gradient norm :     0.0023658 Eh/α   predicted    -0.9332592E-05 ( -58.26%)
   displ. norm   :     0.1778565 α      lambda       -0.2357815E-04
   maximum displ.:     0.1227371 α      in ANC's #1, #2, #5, ...

........................................................................
.............................. CYCLE   40 ..............................
........................................................................
   1    -84.6088510 -0.846089E+02  0.404E-03    0.18       0.0  T
   2    -84.6088227  0.283817E-04  0.149E-02    0.17       1.0  T
   3    -84.6088527 -0.300478E-04  0.145E-03    0.18      10.5  T
   4    -84.6088529 -0.156615E-06  0.567E-04    0.18      26.9  T
   5    -84.6088529 -0.172283E-07  0.190E-04    0.18      80.4  T
   6    -84.6088529 -0.423242E-09  0.590E-05    0.18     258.5  T
     SCC iter.                  ...        0 min,  0.022 sec
     gradient                   ...        0 min,  0.084 sec
 * total energy  :   -83.8552807 Eh     change       -0.2096340E-04 Eh
   gradient norm :     0.0020677 Eh/α   predicted    -0.1216519E-04 ( -41.97%)
   displ. norm   :     0.3182194 α      lambda       -0.4132003E-04
   maximum displ.:     0.2186387 α      in ANC's #1, #2, #5, ...

........................................................................
.............................. CYCLE   41 ..............................
........................................................................
   1    -84.6088323 -0.846088E+02  0.118E-02    0.18       0.0  T
   2    -84.6084633  0.369056E-03  0.530E-02    0.16       1.0  T
   3    -84.6088490 -0.385680E-03  0.324E-03    0.18       4.7  T
   4    -84.6088497 -0.769281E-06  0.148E-03    0.18      10.3  T
   5    -84.6088499 -0.204246E-06  0.381E-04    0.18      40.1  T
   6    -84.6088499 -0.160185E-08  0.975E-05    0.18     156.4  T
   7    -84.6088499 -0.435506E-09  0.309E-05    0.18     494.0  T
     SCC iter.                  ...        0 min,  0.027 sec
     gradient                   ...        0 min,  0.084 sec
 * total energy  :   -83.8553140 Eh     change       -0.3330312E-04 Eh
   gradient norm :     0.0014921 Eh/α   predicted    -0.2275618E-04 ( -31.67%)
   displ. norm   :     0.4511573 α      lambda       -0.2982321E-04
   maximum displ.:     0.3147956 α      in ANC's #1, #2, #5, ...

........................................................................
.............................. CYCLE   42 ..............................
........................................................................
   1    -84.6083638 -0.846084E+02  0.218E-02    0.18       0.0  T
   2    -84.6066511  0.171279E-02  0.113E-01    0.14       1.0  T
   3    -84.6084194 -0.176836E-02  0.696E-03    0.18       2.2  T
   4    -84.6084237 -0.425296E-05  0.327E-03    0.18       4.7  T
   5    -84.6084249 -0.127399E-05  0.545E-04    0.17      28.0  T
   6    -84.6084249  0.996666E-08  0.343E-04    0.17      44.4  T
   7    -84.6084249 -0.131009E-07  0.453E-05    0.17     336.4  T
   8    -84.6084249 -0.100286E-09  0.253E-05    0.17     603.2  T
     SCC iter.                  ...        0 min,  0.028 sec
     gradient                   ...        0 min,  0.085 sec
 * total energy  :   -83.8553388 Eh     change       -0.2476405E-04 Eh
   gradient norm :     0.0020421 Eh/α   predicted    -0.1626545E-04 ( -34.32%)
   displ. norm   :     0.0451724 α      lambda       -0.1103958E-04
   maximum displ.:     0.0339629 α      in ANC's #1, #2, #3, ...
 * RMSD in coord.:     0.7508532 α      energy gain  -0.8442068E-03 Eh

generating ANC from model Hessian ...
Using Lindh-Hessian (1995)
 Shifting diagonal of input Hessian by   9.812266946046597E-003
 Lowest  eigenvalues of input Hessian
    0.000000    0.000000    0.000000    0.000000    0.000000    0.000000
    0.010000    0.010048    0.010577    0.011071    0.011822    0.012010
    0.012592    0.013021    0.013885    0.014325    0.015638    0.016578
 Highest eigenvalues
    2.017986    2.073374    2.137518    2.167689    2.266316    2.364444
 

........................................................................
.............................. CYCLE   43 ..............................
........................................................................
   1    -84.6091274 -0.846091E+02  0.370E-03    0.18       0.0  T
   2    -84.6090971  0.302491E-04  0.155E-02    0.17       1.0  T
   3    -84.6091291 -0.319701E-04  0.579E-04    0.17      26.3  T
   4    -84.6091291  0.185761E-07  0.551E-04    0.17      27.7  T
   5    -84.6091291 -0.222869E-07  0.185E-04    0.17      82.3  T
   6    -84.6091291 -0.260540E-08  0.362E-05    0.17     420.8  T
     SCC iter.                  ...        0 min,  0.023 sec
     gradient                   ...        0 min,  0.084 sec
 * total energy  :   -83.8553480 Eh     change       -0.9187892E-05 Eh
   gradient norm :     0.0016818 Eh/α   predicted     0.0000000E+00 (-100.00%)
   displ. norm   :     0.0332899 α      lambda       -0.1022953E-04
   maximum displ.:     0.0163161 α      in ANC's #1, #13, #5, ...

........................................................................
.............................. CYCLE   44 ..............................
........................................................................
   1    -84.6090542 -0.846091E+02  0.395E-03    0.17       0.0  T
   2    -84.6090286  0.255759E-04  0.142E-02    0.18       1.1  T
   3    -84.6090560 -0.273840E-04  0.760E-04    0.17      20.1  T
   4    -84.6090560 -0.192819E-07  0.459E-04    0.17      33.2  T
   5    -84.6090560 -0.594120E-08  0.250E-04    0.17      61.0  T
   6    -84.6090560 -0.531308E-08  0.239E-05    0.17     637.4  T
   7    -84.6090560 -0.919442E-11  0.116E-05    0.17    1312.8  T
     SCC iter.                  ...        0 min,  0.025 sec
     gradient                   ...        0 min,  0.084 sec
 * total energy  :   -83.8553610 Eh     change       -0.1302288E-04 Eh
   gradient norm :     0.0006979 Eh/α   predicted    -0.5597894E-05 ( -57.01%)
   displ. norm   :     0.0835060 α      lambda       -0.1643318E-04
   maximum displ.:     0.0430047 α      in ANC's #1, #5, #3, ...

........................................................................
.............................. CYCLE   45 ..............................
........................................................................
   1    -84.6089107 -0.846089E+02  0.603E-03    0.17       0.0  T
   2    -84.6088531  0.575697E-04  0.213E-02    0.19       1.0  T
   3    -84.6089151 -0.619698E-04  0.143E-03    0.17      10.7  T
   4    -84.6089151 -0.271412E-07  0.933E-04    0.17      16.3  T
   5    -84.6089152 -0.417342E-07  0.503E-04    0.17      30.3  T
   6    -84.6089152 -0.191145E-07  0.511E-05    0.17     298.3  T
   7    -84.6089152 -0.987797E-10  0.176E-05    0.17     865.4  T
     SCC iter.                  ...        0 min,  0.026 sec
     gradient                   ...        0 min,  0.084 sec
 * total energy  :   -83.8553769 Eh     change       -0.1593866E-04 Eh
   gradient norm :     0.0011191 Eh/α   predicted    -0.8242713E-05 ( -48.28%)
   displ. norm   :     0.0692583 α      lambda       -0.7684072E-05
   maximum displ.:     0.0393946 α      in ANC's #1, #5, #3, ...

........................................................................
.............................. CYCLE   46 ..............................
........................................................................
   1    -84.6087996 -0.846088E+02  0.169E-03    0.17       0.0  T
   2    -84.6087975  0.215396E-05  0.417E-03    0.18       3.7  T
   3    -84.6087997 -0.220161E-05  0.163E-03    0.17       9.4  T
   4    -84.6087999 -0.239389E-06  0.467E-04    0.17      32.6  T
   5    -84.6087999 -0.762172E-08  0.198E-04    0.17      77.2  T
   6    -84.6087999 -0.283107E-08  0.227E-05    0.17     671.4  T
     SCC iter.                  ...        0 min,  0.023 sec
     gradient                   ...        0 min,  0.084 sec
 * total energy  :   -83.8553852 Eh     change       -0.8278399E-05 Eh
   gradient norm :     0.0011799 Eh/α   predicted    -0.3851393E-05 ( -53.48%)
   displ. norm   :     0.0815644 α      lambda       -0.8090403E-05
   maximum displ.:     0.0484023 α      in ANC's #1, #5, #3, ...

........................................................................
.............................. CYCLE   47 ..............................
........................................................................
   1    -84.6087031 -0.846087E+02  0.367E-03    0.18       0.0  T
   2    -84.6086754  0.277266E-04  0.149E-02    0.17       1.0  T
   3    -84.6087047 -0.292849E-04  0.853E-04    0.17      17.9  T
   4    -84.6087048 -0.632505E-07  0.333E-04    0.17      45.8  T
   5    -84.6087048 -0.462771E-08  0.120E-04    0.17     126.6  T
   6    -84.6087048 -0.431982E-09  0.264E-05    0.17     577.7  T
     SCC iter.                  ...        0 min,  0.024 sec
     gradient                   ...        0 min,  0.084 sec
 * total energy  :   -83.8553943 Eh     change       -0.9057948E-05 Eh
   gradient norm :     0.0008491 Eh/α   predicted    -0.4059547E-05 ( -55.18%)
   displ. norm   :     0.0913485 α      lambda       -0.8375408E-05
   maximum displ.:     0.0569386 α      in ANC's #1, #3, #5, ...

........................................................................
.............................. CYCLE   48 ..............................
........................................................................
   1    -84.6087457 -0.846087E+02  0.771E-03    0.18       0.0  T
   2    -84.6085797  0.165965E-03  0.358E-02    0.16       1.0  T
   3    -84.6087537 -0.173968E-03  0.638E-04    0.17      23.9  T
   4    -84.6087537 -0.371002E-07  0.254E-04    0.17      60.0  T
   5    -84.6087537 -0.103543E-08  0.126E-04    0.17     120.8  T
   6    -84.6087537 -0.667413E-09  0.162E-05    0.17     942.0  T
     SCC iter.                  ...        0 min,  0.022 sec
     gradient                   ...        0 min,  0.084 sec
 * total energy  :   -83.8554041 Eh     change       -0.9871205E-05 Eh
   gradient norm :     0.0007048 Eh/α   predicted    -0.4207561E-05 ( -57.38%)
   displ. norm   :     0.1117163 α      lambda       -0.8906430E-05
   maximum displ.:     0.0712833 α      in ANC's #1, #3, #5, ...

........................................................................
.............................. CYCLE   49 ..............................
........................................................................
   1    -84.6087574 -0.846088E+02  0.106E-02    0.18       0.0  T
   2    -84.6083984  0.359015E-03  0.523E-02    0.15       1.0  T
   3    -84.6087730 -0.374630E-03  0.984E-04    0.17      15.5  T
   4    -84.6087731 -0.740884E-07  0.335E-04    0.17      45.5  T
   5    -84.6087731  0.756387E-09  0.264E-04    0.17      57.7  T
   6    -84.6087731 -0.501973E-08  0.715E-05    0.17     213.2  T
   7    -84.6087731 -0.374129E-09  0.166E-05    0.17     920.5  T
     SCC iter.                  ...        0 min,  0.025 sec
     gradient                   ...        0 min,  0.084 sec
 * total energy  :   -83.8554149 Eh     change       -0.1075420E-04 Eh
   gradient norm :     0.0010094 Eh/α   predicted    -0.4483467E-05 ( -58.31%)
   displ. norm   :     0.1282248 α      lambda       -0.9249480E-05
   maximum displ.:     0.0844239 α      in ANC's #1, #3, #4, ...

........................................................................
.............................. CYCLE   50 ..............................
........................................................................
   1    -84.6088375 -0.846088E+02  0.112E-02    0.17       0.0  T
   2    -84.6084195  0.418052E-03  0.563E-02    0.15       1.0  T
   3    -84.6088550 -0.435554E-03  0.124E-03    0.17      12.3  T
   4    -84.6088551 -0.946617E-07  0.402E-04    0.17      37.9  T
   5    -84.6088551  0.680856E-08  0.380E-04    0.17      40.2  T
   6    -84.6088551 -0.945140E-08  0.128E-04    0.17     118.7  T
   7    -84.6088551 -0.163710E-08  0.289E-05    0.17     527.4  T
     SCC iter.                  ...        0 min,  0.025 sec
     gradient                   ...        0 min,  0.084 sec
 * total energy  :   -83.8554258 Eh     change       -0.1096155E-04 Eh
   gradient norm :     0.0010857 Eh/α   predicted    -0.4659864E-05 ( -57.49%)
   displ. norm   :     0.1169297 α      lambda       -0.7978391E-05
   maximum displ.:     0.0810347 α      in ANC's #1, #3, #4, ...

........................................................................
.............................. CYCLE   51 ..............................
........................................................................
   1    -84.6090331 -0.846090E+02  0.997E-03    0.17       0.0  T
   2    -84.6086979  0.335242E-03  0.506E-02    0.15       1.0  T
   3    -84.6090473 -0.349434E-03  0.105E-03    0.17      14.5  T
   4    -84.6090473 -0.232669E-07  0.575E-04    0.17      26.5  T
   5    -84.6090473  0.263092E-07  0.624E-04    0.17      24.4  T
   6    -84.6090473 -0.365654E-07  0.164E-04    0.17      92.7  T
   7    -84.6090473 -0.290026E-08  0.399E-05    0.17     381.9  T
     SCC iter.                  ...        0 min,  0.020 sec
     gradient                   ...        0 min,  0.085 sec
 * total energy  :   -83.8554353 Eh     change       -0.9486232E-05 Eh
   gradient norm :     0.0008041 Eh/α   predicted    -0.4017005E-05 ( -57.65%)
   displ. norm   :     0.1046884 α      lambda       -0.6633675E-05
   maximum displ.:     0.0764010 α      in ANC's #1, #3, #4, ...

........................................................................
.............................. CYCLE   52 ..............................
........................................................................
   1    -84.6091477 -0.846091E+02  0.658E-03    0.17       0.0  T
   2    -84.6090214  0.126311E-03  0.312E-02    0.15       1.0  T
   3    -84.6091536 -0.132221E-03  0.823E-04    0.16      18.5  T
   4    -84.6091537 -0.127538E-07  0.463E-04    0.16      32.9  T
   5    -84.6091537  0.433813E-08  0.398E-04    0.16      38.3  T
   6    -84.6091537 -0.139174E-07  0.621E-05    0.16     245.7  T
   7    -84.6091537 -0.284615E-09  0.242E-05    0.16     631.5  T
     SCC iter.                  ...        0 min,  0.024 sec
     gradient                   ...        0 min,  0.084 sec
 * total energy  :   -83.8554432 Eh     change       -0.7880298E-05 Eh
   gradient norm :     0.0004346 Eh/α   predicted    -0.3334141E-05 ( -57.69%)
   displ. norm   :     0.0789606 α      lambda       -0.5028727E-05
   maximum displ.:     0.0609716 α      in ANC's #1, #3, #2, ...

........................................................................
.............................. CYCLE   53 ..............................
........................................................................
   1    -84.6093180 -0.846093E+02  0.485E-03    0.17       0.0  T
   2    -84.6092497  0.683232E-04  0.230E-02    0.15       1.0  T
   3    -84.6093213 -0.715882E-04  0.599E-04    0.16      25.5  T
   4    -84.6093213  0.237610E-07  0.627E-04    0.16      24.3  T
   5    -84.6093213 -0.222297E-07  0.341E-04    0.16      44.7  T
   6    -84.6093213 -0.120033E-07  0.333E-05    0.16     457.7  T
   7    -84.6093213 -0.639488E-10  0.164E-05    0.16     929.9  T
     SCC iter.                  ...        0 min,  0.024 sec
     gradient                   ...        0 min,  0.084 sec
 * total energy  :   -83.8554495 Eh     change       -0.6253945E-05 Eh
   gradient norm :     0.0004732 Eh/α   predicted    -0.2522160E-05 ( -59.67%)
   displ. norm   :     0.0712580 α      lambda       -0.4475098E-05
   maximum displ.:     0.0559681 α      in ANC's #1, #2, #12, ...

........................................................................
.............................. CYCLE   54 ..............................
........................................................................
   1    -84.6093172 -0.846093E+02  0.288E-03    0.16       0.0  T
   2    -84.6092975  0.196776E-04  0.124E-02    0.16       1.2  T
   3    -84.6093182 -0.206828E-04  0.435E-04    0.16      35.0  T
   4    -84.6093182 -0.966504E-08  0.322E-04    0.16      47.3  T
   5    -84.6093182 -0.686668E-08  0.133E-04    0.16     114.5  T
   6    -84.6093182 -0.106911E-08  0.445E-05    0.16     342.3  T
     SCC iter.                  ...        0 min,  0.021 sec
     gradient                   ...        0 min,  0.085 sec
 * total energy  :   -83.8554552 Eh     change       -0.5752066E-05 Eh
   gradient norm :     0.0005419 Eh/α   predicted    -0.2245107E-05 ( -60.97%)
   displ. norm   :     0.0640292 α      lambda       -0.4287163E-05
   maximum displ.:     0.0506874 α      in ANC's #1, #2, #12, ...

........................................................................
.............................. CYCLE   55 ..............................
........................................................................
   1    -84.6094209 -0.846094E+02  0.207E-03    0.16       0.0  T
   2    -84.6094119  0.907871E-05  0.846E-03    0.16       1.8  T
   3    -84.6094214 -0.954466E-05  0.478E-04    0.16      31.9  T
   4    -84.6094214 -0.203378E-07  0.244E-04    0.16      62.5  T
   5    -84.6094214 -0.303764E-08  0.860E-05    0.16     177.3  T
   6    -84.6094214 -0.278575E-09  0.362E-05    0.16     421.6  T
     SCC iter.                  ...        0 min,  0.021 sec
     gradient                   ...        0 min,  0.084 sec
 * total energy  :   -83.8554607 Eh     change       -0.5470277E-05 Eh
   gradient norm :     0.0005287 Eh/α   predicted    -0.2147948E-05 ( -60.73%)
   displ. norm   :     0.0646632 α      lambda       -0.4024530E-05
   maximum displ.:     0.0502846 α      in ANC's #1, #2, #12, ...

........................................................................
.............................. CYCLE   56 ..............................
........................................................................
   1    -84.6092708 -0.846093E+02  0.146E-03    0.16       0.0  T
   2    -84.6092681  0.276179E-05  0.472E-03    0.16       3.2  T
   3    -84.6092709 -0.285990E-05  0.810E-04    0.16      18.8  T
   4    -84.6092710 -0.750340E-07  0.250E-04    0.16      61.1  T
   5    -84.6092710 -0.224725E-08  0.702E-05    0.16     217.1  T
   6    -84.6092710 -0.306386E-10  0.217E-05    0.16     702.4  T
     SCC iter.                  ...        0 min,  0.021 sec
     gradient                   ...        0 min,  0.084 sec
 * total energy  :   -83.8554657 Eh     change       -0.5050152E-05 Eh
   gradient norm :     0.0003676 Eh/α   predicted    -0.2017812E-05 ( -60.04%)
   displ. norm   :     0.0604236 α      lambda       -0.3542942E-05
   maximum displ.:     0.0454127 α      in ANC's #1, #2, #8, ...

........................................................................
.............................. CYCLE   57 ..............................
[...]
 N  C  Rav=1.3662 sigma=0.0655  Rmin=1.2729  Rmax=1.4666     8
 N  N  Rav=1.3663 sigma=0.0000  Rmin=1.3663  Rmax=1.3663     1
 O  H  Rav=1.0131 sigma=0.0000  Rmin=1.0131  Rmax=1.0131     1
 O  C  Rav=1.3540 sigma=0.0616  Rmin=1.2282  Rmax=1.4182     9
 
 selected bond angles (degree)
 --------------------
H26-C1-O2=111.26               H27-C1-O2=107.23               H27-C1-H26=109.22              H28-C1-O2=111.41               
H28-C1-H26=108.41              H28-C1-H27=109.26              C3-O2-C1=114.92                O4-C3-O2=118.62                
C5-C3-O2=116.00                C5-C3-O4=125.37                C6-C5-C3=120.48                N25-C5-C3=121.34               
N25-C5-C6=117.99               O7-C6-C5=117.98                C8-C6-C5=119.42                C8-C6-O7=122.57                
H29-O7-C6=104.96               O9-C8-C6=129.42                N11-C8-C6=119.74               N11-C8-O9=110.81               
C10-O9-C8=117.86               H30-C10-O9=106.67              H31-C10-O9=111.50              H31-C10-H30=108.94             
H32-C10-O9=111.60              H32-C10-H30=109.14             H32-C10-H31=108.91             
 
 selected dihedral angles (degree)
 ---------------------------------
C3-O2-C1-H26=299.95           C3-O2-C1-H27=180.57           C3-O2-C1-H28= 61.05           O4-C3-O2-C1=357.74            
C5-C3-O2-C1=178.27            C6-C5-C3-O2=182.33            C6-C5-C3-O4=  2.90            N25-C5-C3-O2=357.26           
N25-C5-C3-O4=177.84           O7-C6-C5-C3=  2.63            O7-C6-C5-N25=187.53           C8-C6-C5-C3=180.66            
C8-C6-C5-N25=  5.56           H29-O7-C6-C5=356.36           H29-O7-C6-C8=178.40           O9-C8-C6-C5=182.28            
O9-C8-C6-O7=  0.22            N11-C8-C6-C5=  4.45           N11-C8-C6-O7=182.38           C10-O9-C8-C6=330.17           
C10-O9-C8-N11=148.16          H30-C10-O9-C8=194.47          H31-C10-O9-C8= 75.64          H32-C10-O9-C8=313.59          
           -------------------------------------------------
          |                Final Singlepoint                |
           -------------------------------------------------

          ...................................................
          :                      SETUP                      :
          :.................................................:
          :  # basis functions                 136          :
          :  # atomic orbitals                 136          :
          :  # shells                           86          :
          :  # electrons                       136          :
          :  # halogen bonds                     0          :
          :  max. iterations                   250          :
          :  Hamiltonian                  GFN1-xTB          :
          :  restarted?                      false          :
          :  GBSA solvation                   true          :
          :  PC potential                    false          :
          :  electronic temp.          300.0000000     K    :
          :  accuracy                    1.0000000          :
          :  -> integral cutoff          0.2500000E+02      :
          :  -> integral neglect         0.1000000E-07      :
          :  -> SCF convergence          0.1000000E-05 Eh   :
          :  -> wf. convergence          0.2000000E-04 e    :
          :  Broyden damping             0.4000000          :
          ...................................................

 iter      E             dE          RMSdq      gap      omega  full diag
   1    -84.6094622 -0.846095E+02  0.610E-06    0.16       0.0  T
   2    -84.6094622  0.000000E+00  0.376E-06    0.16    4056.9  T
   3    -84.6094622  0.594014E-11  0.735E-06    0.16    2073.7  T

   *** convergence criteria satisfied after 3 iterations ***

         #    Occupation            Energy/Eh            Energy/eV
      -------------------------------------------------------------
         1        2.0000           -0.8469003             -23.0453
       ...           ...                  ...                  ...
        62        2.0000           -0.4341364             -11.8135
        63        2.0000           -0.4272090             -11.6249
        64        2.0000           -0.4226886             -11.5019
        65        2.0000           -0.4047040             -11.0126
        66        2.0000           -0.3858878             -10.5005
        67        2.0000           -0.3790671             -10.3149
        68        1.9173           -0.2993422              -8.1455 (HOMO)
        69        0.0827           -0.2933698              -7.9830 (LUMO)
        70                         -0.2425519              -6.6002
        71                         -0.2231952              -6.0735
        72                         -0.1861448              -5.0653
        73                         -0.1778762              -4.8403
       ...                                ...                  ...
       136                          0.7238056              19.6958
      -------------------------------------------------------------
                  HL-Gap            0.0059724 Eh            0.1625 eV
             Fermi-level           -0.2963560 Eh           -8.0643 eV

 SCC (total)                   0 d,  0 h,  0 min,  0.128 sec
 SCC setup                      ...        0 min,  0.002 sec (  1.444%)
 Dispersion                     ...        0 min,  0.000 sec (  0.286%)
 classical contributions        ...        0 min,  0.000 sec (  0.088%)
 integral evaluation            ...        0 min,  0.036 sec ( 28.345%)
 iterations                     ...        0 min,  0.012 sec (  9.179%)
 molecular gradient             ...        0 min,  0.077 sec ( 60.059%)
 printout                       ...        0 min,  0.001 sec (  0.567%)

         :::::::::::::::::::::::::::::::::::::::::::::::::::::
         ::                     SUMMARY                     ::
         :::::::::::::::::::::::::::::::::::::::::::::::::::::
         :: total energy             -83.855470121393 Eh    ::
         :: total w/o Gsasa/hb       -83.832228515902 Eh    ::
         :: gradient norm              0.000389288047 Eh/a0 ::
         :: HOMO-LUMO gap              0.162518368926 eV    ::
         ::.................................................::
         :: SCC energy               -84.609462159648 Eh    ::
         :: -> electrostatic           0.442423696008 Eh    ::
         :: -> Gsolv                  -0.123956375958 Eh    ::
         ::    -> Gelec               -0.100714770467 Eh    ::
         ::    -> Gsasa               -0.025725417992 Eh    ::
         ::    -> Ghb                 -0.005140466503 Eh    ::
         ::    -> Gshift               0.007624279005 Eh    ::
         :: repulsion energy           0.779872820894 Eh    ::
         :: dispersion energy         -0.025880782639 Eh    ::
         :: halogen bond corr.         0.000000000000 Eh    ::
         :: add. restraining           0.000000000000 Eh    ::
         :: total charge              -1.000000000000 e     ::
         :::::::::::::::::::::::::::::::::::::::::::::::::::::

           -------------------------------------------------
          |                Property Printout                |
           -------------------------------------------------

    * Orbital Energies and Occupations

         #    Occupation            Energy/Eh            Energy/eV
      -------------------------------------------------------------
         1        2.0000           -0.8469003             -23.0453
       ...           ...                  ...                  ...
        56        2.0000           -0.4644336             -12.6379
        57        2.0000           -0.4614001             -12.5553
        58        2.0000           -0.4552971             -12.3893
        59        2.0000           -0.4456347             -12.1263
        60        2.0000           -0.4421025             -12.0302
        61        2.0000           -0.4405042             -11.9867
        62        2.0000           -0.4341364             -11.8135
        63        2.0000           -0.4272090             -11.6249
        64        2.0000           -0.4226886             -11.5019
        65        2.0000           -0.4047040             -11.0126
        66        2.0000           -0.3858878             -10.5005
        67        2.0000           -0.3790671             -10.3149
        68        1.9173           -0.2993422              -8.1455 (HOMO)
        69        0.0827           -0.2933698              -7.9830 (LUMO)
        70                         -0.2425519              -6.6002
        71                         -0.2231952              -6.0735
        72                         -0.1861448              -5.0653
        73                         -0.1778762              -4.8403
        74                         -0.1364145              -3.7120
        75                         -0.1203573              -3.2751
        76                         -0.1161920              -3.1617
        77                         -0.1111638              -3.0249
        78                         -0.1083920              -2.9495
        79                         -0.0953325              -2.5941
       ...                                ...                  ...
       136                          0.7238056              19.6958
      -------------------------------------------------------------
                  HL-Gap            0.0059724 Eh            0.1625 eV
             Fermi-level           -0.2963560 Eh           -8.0643 eV

  Mulliken/CM5 charges         n(s)   n(p)   n(d)
     1C     0.18137  0.06311   0.965  2.854  0.000
     2O    -0.47664 -0.55596   1.698  4.778  0.000
     3C     0.46906  0.52421   0.964  2.567  0.000
     4O    -0.69464 -0.76895   1.745  4.950  0.000
     5C    -0.04925  0.02063   1.018  3.032  0.000
     6C     0.17000  0.19951   1.011  2.819  0.000
     7O    -0.58991 -0.77199   1.719  4.871  0.000
     8C     0.25668  0.33808   0.966  2.777  0.000
     9O    -0.46757 -0.54891   1.687  4.780  0.000
    10C     0.17593  0.05713   0.970  2.854  0.000
    11N    -0.37870 -0.70878   1.447  3.931  0.000
    12C     0.25503  0.40448   1.008  2.737  0.000
    13C     0.15227  0.19231   1.064  2.784  0.000
    14C    -0.10931 -0.25021   1.021  3.088  0.000
    15C    -0.08987 -0.22795   1.012  3.078  0.000
    16N    -0.35201 -0.70714   1.432  3.920  0.000
    17C     0.44961  0.55821   0.973  2.578  0.000
    18O    -0.60945 -0.64895   1.732  4.878  0.000
    19C     0.31691  0.44026   1.009  2.674  0.000
    20N    -0.25486 -0.35679   1.571  3.684  0.000
    21N    -0.28262 -0.39060   1.566  3.716  0.000
    22C     0.38330  0.49221   1.003  2.614  0.000
    23C    -0.11144 -0.24894   1.011  3.101  0.000
    24O    -0.37082 -0.42705   1.700  4.671  0.000
    25N    -0.39496 -0.57735   1.539  3.856  0.000
    26H     0.02029  0.08164   0.980  0.000  0.000
    27H     0.01655  0.07656   0.983  0.000  0.000
    28H     0.01975  0.08112   0.980  0.000  0.000
    29H     0.37601  0.56799   0.624  0.000  0.000
    30H     0.02423  0.08419   0.976  0.000  0.000
    31H     0.02622  0.08870   0.974  0.000  0.000
    32H     0.02038  0.08116   0.980  0.000  0.000
    33H     0.22432  0.42937   0.776  0.000  0.000
    34H     0.04391  0.09937   0.956  0.000  0.000
    35H     0.04265  0.10005   0.957  0.000  0.000
    36H     0.04327  0.09798   0.957  0.000  0.000
    37H     0.04377  0.10549   0.956  0.000  0.000
    38H     0.03256  0.09031   0.967  0.000  0.000
    39H     0.02807  0.08374   0.972  0.000  0.000
    40H     0.25079  0.45777   0.749  0.000  0.000
    41H     0.06280  0.11864   0.937  0.000  0.000
    42H     0.07282  0.12735   0.927  0.000  0.000
    43H     0.07348  0.12802   0.927  0.000  0.000

Wiberg/Mayer (AO) data.
largest (>0.10) Wiberg bond orders for each atom

 ---------------------------------------------------------------------------
     #   Z sym  total        # sym  WBO       # sym  WBO       # sym  WBO
 ---------------------------------------------------------------------------
     1   6 C    3.915 --    27 H    0.987    26 H    0.981    28 H    0.981
                             2 O    0.945
     2   8 O    2.069 --     3 C    0.953     1 C    0.945
     3   6 C    3.844 --     5 C    1.383     4 O    1.356     2 O    0.953
     4   8 O    1.787 --     3 C    1.356    29 H    0.126     5 C    0.108
     5   6 C    3.824 --     3 C    1.383    25 N    1.079     6 C    1.071
                             4 O    0.108
     6   6 C    3.898 --     8 C    1.624     5 C    1.071     7 O    1.034
     7   8 O    1.973 --     6 C    1.034    29 H    0.744
     8   6 C    3.803 --     6 C    1.624    11 N    0.980     9 O    0.965
     9   8 O    2.054 --     8 C    0.965    10 C    0.932
    10   6 C    3.907 --    30 H    0.985    32 H    0.982    31 H    0.981
                             9 O    0.932
    11   7 N    3.204 --    12 C    1.052     8 C    0.980    33 H    0.915
                            25 N    0.103
    12   6 C    3.936 --    25 N    1.707    11 N    1.052    13 C    0.968
    13   6 C    3.934 --    15 C    0.993    14 C    0.989    12 C    0.968
                            16 N    0.921
    14   6 C    3.992 --    13 C    0.989    36 H    0.985    34 H    0.985
                            35 H    0.984
    15   6 C    3.993 --    13 C    0.993    39 H    0.988    38 H    0.984
                            37 H    0.981
    16   7 N    3.315 --    17 C    1.229    13 C    0.921    40 H    0.902
                            18 O    0.163
    17   6 C    3.889 --    18 O    1.543    16 N    1.229    19 C    1.020
    18   8 O    1.838 --    17 C    1.543    16 N    0.163
    19   6 C    3.822 --    20 N    1.571    24 O    1.027    17 C    1.020
    20   7 N    2.926 --    19 C    1.571    21 N    1.189
    21   7 N    2.980 --    22 C    1.622    20 N    1.189
    22   6 C    3.854 --    21 N    1.622    24 O    1.064    23 C    1.029
    23   6 C    3.989 --    22 C    1.029    41 H    0.984    43 H    0.966
                            42 H    0.965
    24   8 O    2.280 --    22 C    1.064    19 C    1.027
    25   7 N    3.025 --    12 C    1.707     5 C    1.079    11 N    0.103
    26   1 H    1.018 --     1 C    0.981
    27   1 H    1.019 --     1 C    0.987
    28   1 H    1.019 --     1 C    0.981
    29   1 H    0.883 --     7 O    0.744     4 O    0.126
    30   1 H    1.018 --    10 C    0.985
    31   1 H    1.024 --    10 C    0.981
    32   1 H    1.013 --    10 C    0.982
    33   1 H    0.961 --    11 N    0.915
    34   1 H    1.000 --    14 C    0.985
    35   1 H    1.001 --    14 C    0.984
    36   1 H    1.005 --    14 C    0.985
    37   1 H    1.019 --    15 C    0.981
    38   1 H    1.017 --    15 C    0.984
    39   1 H    1.005 --    15 C    0.988
    40   1 H    0.945 --    16 N    0.902
    41   1 H    1.000 --    23 C    0.984
    42   1 H    0.998 --    23 C    0.965
    43   1 H    0.998 --    23 C    0.966
 ---------------------------------------------------------------------------

Topologies differ in total number of bonds
Writing topology from bond orders to xtbtopo.mol

 dipole moment from electron density (au)
     X       Y       Z   
   6.0086  -3.6972  -2.2659  total (Debye):   18.834

           -------------------------------------------------
          |                Geometry Summary                 |
           -------------------------------------------------

      molecular mass/u    :      352.3231817
   center of mass at/Å    :       -0.0180660       0.2103213       0.2047796
  moments of inertia/u·Å² :        0.1348030E+04   0.4233818E+04   0.4885682E+04
rotational constants/cm⁻¹ :        0.1250539E-01   0.3981662E-02   0.3450416E-02

 * 35 selected distances

     #   Z          #   Z                                           value/Å
     1   6 C        2   8 O                                       1.4143185
     3   6 C        5   6 C                                       1.3856926
     6   6 C        7   8 O                                       1.3694803
     6   6 C        8   6 C                                       1.3438876
     8   6 C        9   8 O                                       1.3852604
     9   8 O       10   6 C                                       1.4181816
    11   7 N       12   6 C                                       1.4042474
    13   6 C       14   6 C                                       1.5331469 (max)
    13   6 C       15   6 C                                       1.5320886
    13   6 C       16   7 N                                       1.4666225
    16   7 N       17   6 C                                       1.3555896
    17   6 C       18   8 O                                       1.2282319
    19   6 C       20   7 N                                       1.3055327
    21   7 N       22   6 C                                       1.2942770
    22   6 C       23   6 C                                       1.4801486
    19   6 C       24   8 O                                       1.3589921
    22   6 C       24   8 O                                       1.3464394
    12   6 C       25   7 N                                       1.2729194
     1   6 C       26   1 H                                       1.0970563
     1   6 C       27   1 H                                       1.0914210
     1   6 C       28   1 H                                       1.0972171
    10   6 C       30   1 H                                       1.0923730
    10   6 C       31   1 H                                       1.0964613
    10   6 C       32   1 H                                       1.0971152
    11   7 N       33   1 H                                       1.0089035
    14   6 C       34   1 H                                       1.0887009
    14   6 C       35   1 H                                       1.0889558
    14   6 C       36   1 H                                       1.0891391
    15   6 C       37   1 H                                       1.0897751
    15   6 C       38   1 H                                       1.0895878
    15   6 C       39   1 H                                       1.0883560
    16   7 N       40   1 H                                       1.0042082 (min)
    23   6 C       41   1 H                                       1.0870211
    23   6 C       42   1 H                                       1.0893903
    23   6 C       43   1 H                                       1.0895796

 * 5 distinct bonds (by element types)

   Z      Z             #   av. dist./Å        max./Å        min./Å
   1 H    6 C          15     1.0914766     1.0972171     1.0870211
   6 C    6 C           5     1.4549929     1.5331469     1.3438876
   1 H    7 N           2     1.0065559     1.0089035     1.0042082
   6 C    7 N           6     1.3498648     1.4666225     1.2729194
   6 C    8 O           7     1.3601292     1.4181816     1.2282319


optimized geometry written to: xtbopt.xyz


           -------------------------------------------------
          | TOTAL ENERGY              -83.855470121393 Eh   |
          | GRADIENT NORM               0.000389288047 Eh/α |
          | HOMO-LUMO GAP               0.162518368926 eV   |
           -------------------------------------------------

------------------------------------------------------------------------
 * finished run on 2023/06/20 at 15:16:01.041     
------------------------------------------------------------------------
 total:
 * wall-time:     0 d,  0 h,  0 min,  8.472 sec
 *  cpu-time:     0 d,  0 h,  0 min,  8.370 sec
 * ratio c/w:     0.988 speedup
 SCF:
 * wall-time:     0 d,  0 h,  0 min,  0.176 sec
 *  cpu-time:     0 d,  0 h,  0 min,  0.176 sec
 * ratio c/w:     1.000 speedup
 ANC optimizer:
 * wall-time:     0 d,  0 h,  0 min,  8.236 sec
 *  cpu-time:     0 d,  0 h,  0 min,  8.157 sec
 * ratio c/w:     0.990 speedup

