38
 energy: -79.627195037856 gnorm: 0.000606788742 xtb: 6.5.1 (579679a)
C           -6.52914764897955        0.68131341304571       -0.45239142178716
O           -5.24748281054883        0.33613103760979       -0.95506482109042
C           -4.26432774222918        0.20488079851707       -0.02713770358941
O           -4.50408576686003        0.38606413916731        1.16190678445942
C           -2.96322206324451       -0.15892105389659       -0.56560556208442
N           -1.99134879728052       -0.26831582872730        0.41491615786968
C           -0.79146728223489       -0.58395752881267        0.10614457224832
C            0.27100717804648       -0.74632372235944        1.17385473447556
C            0.50807863729154       -2.23722691070594        1.43481373199748
C           -0.15657963675637       -0.03112930495505        2.45829038794604
N            1.53780427116830       -0.18584302113296        0.68365053055397
C            1.65632888243930        1.08936443169430        0.26533654813464
O            0.74145683075123        1.89220117292793        0.18265458729574
C            3.04667443222050        1.43784775665697       -0.13101713867394
N            3.47110072839787        2.56230939455252       -0.61780755232529
N            4.80832686796904        2.41391995208711       -0.84361203753654
C            5.11601906936881        1.20843941307968       -0.48109201932904
C            6.44208771776560        0.55529417232863       -0.52847583092520
O            4.04714938585887        0.53666345158269       -0.02177046757527
N           -0.41198588054670       -0.84897537247172       -1.19436381801742
C           -1.26529810441952       -0.77427979070704       -2.26365189155646
O           -0.85286616295416       -1.02779294921609       -3.39375045950885
C           -2.69012936934678       -0.37638534726223       -1.94163391906369
O           -3.50306919063046       -0.27702258481243       -2.88006100050924
H           -6.90641647678571       -0.09840590990745        0.21648992308602
H           -7.19278820453507        0.78284235559738       -1.31028366465691
H           -6.48967796038596        1.62636459172036        0.09855668084377
H            1.27231970379145       -2.36860144202179        2.19815116567908
H           -0.41544873152763       -2.70185742593768        1.77742650074766
H            0.83440341320861       -2.73225535093762        0.52174546157797
H           -0.31811827644803        1.02869668707869        2.26383977578393
H           -1.08813699849869       -0.46769829490019        2.81666880836169
H            0.61152089407552       -0.14403428159454        3.22010861851724
H            2.36763988616164       -0.74048880973247        0.78990133248820
H            6.69835239353088        0.16367553638821        0.45494789495677
H            6.41981753313783       -0.28104818074217       -1.22711251051188
H            7.19465078354347        1.27270390455175       -0.84587241746601
H            0.53685949548420       -1.12814909775309       -1.37861996082163
