      -----------------------------------------------------------      
     |                   =====================                   |     
     |                           x T B                           |     
     |                   =====================                   |     
     |                         S. Grimme                         |     
     |          Mulliken Center for Theoretical Chemistry        |     
     |                    University of Bonn                     |     
      -----------------------------------------------------------      

   * xtb version 6.5.1 (579679a) compiled by 'ehlert@majestix' on 2022-07-11

   xtb is free software: you can redistribute it and/or modify it under
   the terms of the GNU Lesser General Public License as published by
   the Free Software Foundation, either version 3 of the License, or
   (at your option) any later version.
   
   xtb is distributed in the hope that it will be useful,
   but WITHOUT ANY WARRANTY; without even the implied warranty of
   MERCHANTABILITY or FITNESS FOR A PARTICULAR PURPOSE.  See the
   GNU Lesser General Public License for more details.
   
   Cite this work as:
   * C. Bannwarth, E. Caldeweyher, S. Ehlert, A. Hansen, P. Pracht,
     J. Seibert, S. Spicher, S. Grimme, WIREs Comput. Mol. Sci., 2020, 11,
     e01493. DOI: 10.1002/wcms.1493
   
   for GFN2-xTB:
   * C. Bannwarth, S. Ehlert and S. Grimme., J. Chem. Theory Comput., 2019,
     15, 1652-1671. DOI: 10.1021/acs.jctc.8b01176
   for GFN1-xTB:
   * S. Grimme, C. Bannwarth, P. Shushkov, J. Chem. Theory Comput., 2017,
     13, 1989-2009. DOI: 10.1021/acs.jctc.7b00118
   for GFN0-xTB:
   * P. Pracht, E. Caldeweyher, S. Ehlert, S. Grimme, ChemRxiv, 2019, preprint.
     DOI: 10.26434/chemrxiv.8326202.v1
   for GFN-FF:
   * S. Spicher and S. Grimme, Angew. Chem. Int. Ed., 2020, 59, 15665-15673.
     DOI: 10.1002/anie.202004239
   
   for ALPB and GBSA implicit solvation:
   * S. Ehlert, M. Stahn, S. Spicher, S. Grimme, J. Chem. Theory Comput.,
     2021, 17, 4250-4261. DOI: 10.1021/acs.jctc.1c00471
   
   for DFT-D4:
   * E. Caldeweyher, C. Bannwarth and S. Grimme, J. Chem. Phys., 2017,
     147, 034112. DOI: 10.1063/1.4993215
   * E. Caldeweyher, S. Ehlert, A. Hansen, H. Neugebauer, S. Spicher,
     C. Bannwarth and S. Grimme, J. Chem. Phys., 2019, 150, 154122.
     DOI: 10.1063/1.5090222
   * E. Caldeweyher, J.-M. Mewes, S. Ehlert and S. Grimme, Phys. Chem. Chem. Phys.
     2020, 22, 8499-8512. DOI: 10.1039/D0CP00502A
   
   for sTDA-xTB:
   * S. Grimme and C. Bannwarth, J. Chem. Phys., 2016, 145, 054103.
     DOI: 10.1063/1.4959605
   
   in the mass-spec context:
   * V. Asgeirsson, C. Bauer and S. Grimme, Chem. Sci., 2017, 8, 4879.
     DOI: 10.1039/c7sc00601b
   * J. Koopman and S. Grimme, ACS Omega 2019, 4, 12, 15120-15133.
     DOI: 10.1021/acsomega.9b02011
   
   for metadynamics refer to:
   * S. Grimme, J. Chem. Theory Comput., 2019, 155, 2847-2862
     DOI: 10.1021/acs.jctc.9b00143
   
   for SPH calculations refer to:
   * S. Spicher and S. Grimme, J. Chem. Theory Comput., 2021, 17, 1701-1714
     DOI: 10.1021/acs.jctc.0c01306
   
   with help from (in alphabetical order)
   P. Atkinson, C. Bannwarth, F. Bohle, G. Brandenburg, E. Caldeweyher
   M. Checinski, S. Dohm, S. Ehlert, S. Ehrlich, I. Gerasimov, C. Hölzer
   A. Katbashev, J. Koopman, C. Lavigne, S. Lehtola, F. März, M. Müller,
   F. Musil, H. Neugebauer, J. Pisarek, C. Plett, P. Pracht, F. Pultar,
   J. Seibert, P. Shushkov, S. Spicher, M. Stahn, M. Steiner, T. Strunk,
   J. Stückrath, T. Rose, and J. Unsleber
   
 * started run on 2023/06/20 at 14:51:34.199     

           -------------------------------------------------
          |                Calculation Setup                |
           -------------------------------------------------

          program call               : /lustre/hpc/kemi/ree/PhD/git/ReactivityQM/dep/xtb-6.5.1/bin/xtb --gfn 1 /lustre/hpc/kemi/ree/PhD/git/ReactivityQM/calculations/RaltegravirCLI/reac01/conf03/RaltegravirCLI_reac01_conf03_gfn1.xyz --opt --vfukui --chrg 0 --uhf 0 --alpb DMSO
          hostname                   : node308
          coordinate file            : /lustre/hpc/kemi/ree/PhD/git/ReactivityQM/calculations/RaltegravirCLI/reac01/conf03/RaltegravirCLI_reac01_conf03_gfn1.xyz
          omp threads                :                     1

   ID    Z sym.   atoms
    1    6 C      1, 2, 5, 6
    2    7 N      3, 4
    3    8 O      7, 9
    4   17 Cl     8
    5    1 H      10-12

           -------------------------------------------------
          |                 G F N 1 - x T B                 |
           -------------------------------------------------

        Reference                      10.1021/acs.jctc.7b00118
      * Hamiltonian:
        H0-scaling (s, p, d)           1.850000    2.250000    2.000000
        zeta-weighting                 0.000000
      * Dispersion:
        s8                             2.400000
        a1                             0.630000
        a2                             5.000000
        s9                             0.000000
      * Repulsion:
        kExp                           1.500000
        rExp                           1.000000
      * Coulomb:
        alpha                          2.000000
        third order                    atomic
        anisotropic                    false
      * Halogen bond correction:
        rad-scale                      1.300000
        damping                        0.440000

      * Solvation model:               ALPB
        Solvent                        DMSO
        Parameter file                 internal GFN1-xTB/ALPB
        Dielectric constant                4.6680E+01
        Reference state                gsolv [1 M gas/solution]
        Free energy shift                  7.6243E-03 Eh       4.7843E+00 kcal/mol
        Temperature                        2.9815E+02 K
        Density                            1.1000E+00 kg/L
        Solvent mass                       7.8130E+01 g/mol
        Interaction kernel             P16
        Born radius scaling (c1)           1.7672E+00
        Born radii integrator          GBOBC
        Born offset                        0.0000E+00 a0       0.0000E+00 AA
        H-bond correction              true
        Ion screening                  false
        Surface tension                    1.0000E-05 Eh       1.5569E+01 dyn/cm
        Grid points                               230 per atom

          ...................................................
          :                      SETUP                      :
          :.................................................:
          :  # basis functions                  48          :
          :  # atomic orbitals                  47          :
          :  # shells                           25          :
          :  # electrons                        48          :
          :  # halogen bonds                     4          :
          :  max. iterations                   250          :
          :  Hamiltonian                  GFN1-xTB          :
          :  restarted?                      false          :
          :  GBSA solvation                   true          :
          :  PC potential                    false          :
          :  electronic temp.          300.0000000     K    :
          :  accuracy                    1.0000000          :
          :  -> integral cutoff          0.2500000E+02      :
          :  -> integral neglect         0.1000000E-07      :
          :  -> SCF convergence          0.1000000E-05 Eh   :
          :  -> wf. convergence          0.2000000E-04 e    :
          :  Broyden damping             0.4000000          :
          ...................................................

 iter      E             dE          RMSdq      gap      omega  full diag
   1    -30.1986249 -0.301986E+02  0.839E+00    3.11       0.0  T
   2    -30.3071520 -0.108527E+00  0.506E+00    2.73       1.0  T
   3    -30.3057815  0.137052E-02  0.205E+00    3.25       1.0  T
   4    -30.3161921 -0.104106E-01  0.127E-01    3.00       1.0  T
   5    -30.3163483 -0.156235E-03  0.357E-02    3.01       1.0  T
   6    -30.3163591 -0.107896E-04  0.143E-02    3.00       2.0  T
   7    -30.3163599 -0.735235E-06  0.300E-03    3.00       9.6  T
   8    -30.3163599 -0.661146E-07  0.905E-04    3.00      31.9  T
   9    -30.3163599 -0.239124E-08  0.264E-04    3.00     109.2  T
  10    -30.3163599 -0.372896E-09  0.408E-05    3.00     706.8  T
  11    -30.3163599 -0.531841E-11  0.190E-05    3.00    1516.4  T

   *** convergence criteria satisfied after 11 iterations ***

         #    Occupation            Energy/Eh            Energy/eV
      -------------------------------------------------------------
         1        2.0000           -0.9430735             -25.6623
       ...           ...                  ...                  ...
        18        2.0000           -0.5255450             -14.3008
        19        2.0000           -0.4998536             -13.6017
        20        2.0000           -0.4924879             -13.4013
        21        2.0000           -0.4873543             -13.2616
        22        2.0000           -0.4821700             -13.1205
        23        2.0000           -0.4632882             -12.6067
        24        2.0000           -0.4577360             -12.4556 (HOMO)
        25                         -0.3473132              -9.4509 (LUMO)
        26                         -0.2726592              -7.4194
        27                         -0.2320807              -6.3152
        28                         -0.2092416              -5.6938
        29                         -0.1493971              -4.0653
       ...                                ...                  ...
        47                          0.6703652              18.2416
      -------------------------------------------------------------
                  HL-Gap            0.1104228 Eh            3.0048 eV
             Fermi-level           -0.4025246 Eh          -10.9533 eV

 SCC (total)                   0 d,  0 h,  0 min,  0.256 sec
 SCC setup                      ...        0 min,  0.007 sec (  2.805%)
 Dispersion                     ...        0 min,  0.004 sec (  1.442%)
 classical contributions        ...        0 min,  0.001 sec (  0.512%)
 integral evaluation            ...        0 min,  0.184 sec ( 71.973%)
 iterations                     ...        0 min,  0.045 sec ( 17.573%)
 molecular gradient             ...        0 min,  0.011 sec (  4.351%)
 printout                       ...        0 min,  0.003 sec (  1.325%)

         :::::::::::::::::::::::::::::::::::::::::::::::::::::
         ::                     SUMMARY                     ::
         :::::::::::::::::::::::::::::::::::::::::::::::::::::
         :: total energy             -30.091910736492 Eh    ::
         :: total w/o Gsasa/hb       -30.084500273337 Eh    ::
         :: gradient norm              0.068128017384 Eh/a0 ::
         :: HOMO-LUMO gap              3.004756849729 eV    ::
         ::.................................................::
         :: SCC energy               -30.316359941747 Eh    ::
         :: -> electrostatic           0.107699167062 Eh    ::
         :: -> Gsolv                  -0.019372275868 Eh    ::
         ::    -> Gelec               -0.011961812713 Eh    ::
         ::    -> Gsasa               -0.014195989277 Eh    ::
         ::    -> Ghb                 -0.000838752882 Eh    ::
         ::    -> Gshift               0.007624279005 Eh    ::
         :: repulsion energy           0.229513396962 Eh    ::
         :: dispersion energy         -0.005064191707 Eh    ::
         :: halogen bond corr.         0.000000000000 Eh    ::
         :: add. restraining           0.000000000000 Eh    ::
         :: total charge              -0.000000000000 e     ::
         :::::::::::::::::::::::::::::::::::::::::::::::::::::

      ----------------------------------------------------------- 
     |                   =====================                   |
     |                        A N C O P T                        |
     |                   =====================                   |
     |               Approximate Normal Coordinate               |
     |                Rational Function Optimizer                |
      ----------------------------------------------------------- 

          ...................................................
          :                      SETUP                      :
          :.................................................:
          :   optimization level            normal          :
          :   max. optcycles                   200          :
          :   ANC micro-cycles                  20          :
          :   degrees of freedom                30          :
          :.................................................:
          :   RF solver                   davidson          :
          :   write xtbopt.log                true          :
          :   linear?                        false          :
          :   energy convergence         0.5000000E-05 Eh   :
          :   grad. convergence          0.1000000E-02 Eh/α :
          :   maximium RF displ.         1.0000000          :
          :   Hlow (freq-cutoff)         0.1000000E-01      :
          :   Hmax (freq-cutoff)         5.0000000          :
          :   S6 in model hess.         20.0000000          :
          ...................................................

generating ANC from model Hessian ...
Using Lindh-Hessian (1995)
 Shifting diagonal of input Hessian by   3.851391436013687E-003
 Lowest  eigenvalues of input Hessian
    0.000000    0.000000    0.000000    0.000000    0.000000    0.000000
    0.010000    0.011882    0.018344    0.025682    0.039486    0.049032
    0.063195    0.083825    0.104176    0.106135    0.128556    0.135879
 Highest eigenvalues
    1.557840    1.705387    1.856323    1.954825    2.128958    2.238342
 

........................................................................
.............................. CYCLE    1 ..............................
........................................................................
   1    -30.3163599 -0.303164E+02  0.780E-06    3.00       0.0  T
   2    -30.3163599 -0.664357E-12  0.260E-06    3.00   11107.6  T
   3    -30.3163599 -0.923706E-13  0.358E-07    3.00   80668.8  T
     SCC iter.                  ...        0 min,  0.002 sec
     gradient                   ...        0 min,  0.012 sec
 * total energy  :   -30.0919107 Eh     change       -0.1307399E-11 Eh
   gradient norm :     0.0681282 Eh/α   predicted     0.0000000E+00 (-100.00%)
   displ. norm   :     0.2075753 α      lambda       -0.3913142E-02
   maximum displ.:     0.1808911 α      in ANC's #3, #7, #6, ...

........................................................................
.............................. CYCLE    2 ..............................
........................................................................
   1    -30.3257101 -0.303257E+02  0.101E-01    3.18       0.0  T
   2    -30.3258888 -0.178655E-03  0.532E-02    3.11       1.0  T
   3    -30.3259038 -0.150035E-04  0.224E-02    3.12       1.3  T
   4    -30.3259036  0.146970E-06  0.119E-02    3.11       2.4  T
   5    -30.3259038 -0.221103E-06  0.135E-03    3.12      21.4  T
   6    -30.3259039 -0.148955E-07  0.288E-04    3.12     100.1  T
   7    -30.3259039 -0.263611E-09  0.883E-05    3.12     327.1  T
   8    -30.3259039 -0.212204E-10  0.355E-05    3.12     814.2  T
     SCC iter.                  ...        0 min,  0.004 sec
     gradient                   ...        0 min,  0.011 sec
 * total energy  :   -30.0947860 Eh     change       -0.2875253E-02 Eh
   gradient norm :     0.0358881 Eh/α   predicted    -0.2040876E-02 ( -29.02%)
   displ. norm   :     0.2420830 α      lambda       -0.2062040E-02
   maximum displ.:     0.2329602 α      in ANC's #3, #7, #29, ...

........................................................................
.............................. CYCLE    3 ..............................
........................................................................
   1    -30.3312865 -0.303313E+02  0.100E-01    3.27       0.0  T
   2    -30.3314479 -0.161404E-03  0.515E-02    3.20       1.0  T
   3    -30.3314630 -0.151097E-04  0.203E-02    3.21       1.4  T
   4    -30.3314630  0.443595E-07  0.104E-02    3.21       2.8  T
   5    -30.3314631 -0.154427E-06  0.129E-03    3.21      22.4  T
   6    -30.3314632 -0.920829E-08  0.406E-04    3.21      71.1  T
   7    -30.3314632 -0.495788E-09  0.843E-05    3.21     342.6  T
   8    -30.3314632 -0.149818E-10  0.337E-05    3.21     857.6  T
     SCC iter.                  ...        0 min,  0.004 sec
     gradient                   ...        0 min,  0.011 sec
 * total energy  :   -30.0960151 Eh     change       -0.1229065E-02 Eh
   gradient norm :     0.0111222 Eh/α   predicted    -0.1091448E-02 ( -11.20%)
   displ. norm   :     0.1132094 α      lambda       -0.2644051E-03
   maximum displ.:     0.1102816 α      in ANC's #3, #4, #1, ...

........................................................................
.............................. CYCLE    4 ..............................
........................................................................
   1    -30.3313090 -0.303313E+02  0.297E-02    3.24       0.0  T
   2    -30.3313183 -0.932295E-05  0.141E-02    3.23       2.1  T
   3    -30.3313193 -0.104768E-05  0.632E-03    3.23       4.6  T
   4    -30.3313194 -0.101352E-07  0.203E-03    3.23      14.2  T
   5    -30.3313194 -0.976341E-08  0.551E-04    3.23      52.4  T
   6    -30.3313194 -0.917179E-09  0.149E-04    3.23     193.5  T
   7    -30.3313194 -0.118892E-09  0.231E-05    3.23    1251.0  T
     SCC iter.                  ...        0 min,  0.004 sec
     gradient                   ...        0 min,  0.011 sec
 * total energy  :   -30.0961952 Eh     change       -0.1800977E-03 Eh
   gradient norm :     0.0068006 Eh/α   predicted    -0.1338949E-03 ( -25.65%)
   displ. norm   :     0.0818377 α      lambda       -0.1098189E-03
   maximum displ.:     0.0748808 α      in ANC's #3, #1, #4, ...

........................................................................
.............................. CYCLE    5 ..............................
........................................................................
   1    -30.3308770 -0.303309E+02  0.191E-02    3.25       0.0  T
   2    -30.3308801 -0.305355E-05  0.741E-03    3.24       3.9  T
   3    -30.3308804 -0.292464E-06  0.357E-03    3.24       8.1  T
   4    -30.3308804 -0.288858E-07  0.133E-03    3.24      21.6  T
   5    -30.3308804 -0.195407E-08  0.433E-04    3.24      66.7  T
   6    -30.3308804 -0.295270E-09  0.677E-05    3.24     426.1  T
   7    -30.3308804 -0.422702E-10  0.184E-05    3.24    1567.2  T
     SCC iter.                  ...        0 min,  0.004 sec
     gradient                   ...        0 min,  0.012 sec
 * total energy  :   -30.0962640 Eh     change       -0.6885302E-04 Eh
   gradient norm :     0.0041182 Eh/α   predicted    -0.5527616E-04 ( -19.72%)
   displ. norm   :     0.0349419 α      lambda       -0.2729499E-04
   maximum displ.:     0.0251306 α      in ANC's #3, #4, #1, ...

........................................................................
.............................. CYCLE    6 ..............................
........................................................................
   1    -30.3308964 -0.303309E+02  0.942E-03    3.24       0.0  T
   2    -30.3308974 -0.104752E-05  0.419E-03    3.24       6.9  T
   3    -30.3308975 -0.732731E-07  0.159E-03    3.24      18.1  T
   4    -30.3308975 -0.529894E-08  0.790E-04    3.24      36.6  T
   5    -30.3308975 -0.113258E-08  0.233E-04    3.24     123.6  T
   6    -30.3308975 -0.466578E-10  0.516E-05    3.24     559.0  T
   7    -30.3308975 -0.189431E-10  0.107E-05    3.24    2693.1  T
     SCC iter.                  ...        0 min,  0.004 sec
     gradient                   ...        0 min,  0.011 sec
 * total energy  :   -30.0962818 Eh     change       -0.1784053E-04 Eh
   gradient norm :     0.0021828 Eh/α   predicted    -0.1366445E-04 ( -23.41%)
   displ. norm   :     0.0371942 α      lambda       -0.1610457E-04
   maximum displ.:     0.0238792 α      in ANC's #1, #2, #3, ...

........................................................................
.............................. CYCLE    7 ..............................
........................................................................
   1    -30.3310218 -0.303310E+02  0.757E-03    3.24       0.0  T
   2    -30.3310226 -0.722968E-06  0.389E-03    3.24       7.4  T
   3    -30.3310226 -0.477361E-07  0.164E-03    3.24      17.6  T
   4    -30.3310226 -0.178933E-08  0.787E-04    3.24      36.7  T
   5    -30.3310226 -0.857415E-09  0.150E-04    3.24     192.5  T
   6    -30.3310226 -0.352962E-10  0.308E-05    3.24     936.8  T
     SCC iter.                  ...        0 min,  0.003 sec
     gradient                   ...        0 min,  0.011 sec
 * total energy  :   -30.0962902 Eh     change       -0.8383187E-05 Eh
   gradient norm :     0.0016141 Eh/α   predicted    -0.8062571E-05 (  -3.82%)
   displ. norm   :     0.0529093 α      lambda       -0.1192475E-04
   maximum displ.:     0.0375170 α      in ANC's #4, #1, #2, ...

........................................................................
.............................. CYCLE    8 ..............................
........................................................................
   1    -30.3311456 -0.303311E+02  0.760E-03    3.23       0.0  T
   2    -30.3311463 -0.654111E-06  0.393E-03    3.24       7.3  T
   3    -30.3311463 -0.452558E-07  0.181E-03    3.24      15.9  T
   4    -30.3311463 -0.513005E-09  0.762E-04    3.24      37.9  T
   5    -30.3311463 -0.793307E-09  0.113E-04    3.24     256.1  T
   6    -30.3311463 -0.381561E-10  0.376E-05    3.24     767.9  T
     SCC iter.                  ...        0 min,  0.003 sec
     gradient                   ...        0 min,  0.011 sec
 * total energy  :   -30.0962997 Eh     change       -0.9496498E-05 Eh
   gradient norm :     0.0027040 Eh/α   predicted    -0.5969062E-05 ( -37.14%)
   displ. norm   :     0.0444427 α      lambda       -0.1193641E-04
   maximum displ.:     0.0288119 α      in ANC's #1, #4, #2, ...

........................................................................
.............................. CYCLE    9 ..............................
........................................................................
   1    -30.3311454 -0.303311E+02  0.256E-03    3.24       0.0  T
   2    -30.3311454 -0.702661E-07  0.114E-03    3.24      25.4  T
   3    -30.3311454 -0.551095E-08  0.562E-04    3.24      51.4  T
   4    -30.3311454 -0.216112E-09  0.221E-04    3.24     130.6  T
   5    -30.3311454 -0.859188E-10  0.450E-05    3.24     642.2  T
   6    -30.3311454 -0.354916E-11  0.115E-05    3.24    2505.7  T
     SCC iter.                  ...        0 min,  0.003 sec
     gradient                   ...        0 min,  0.012 sec
 * total energy  :   -30.0963107 Eh     change       -0.1092530E-04 Eh
   gradient norm :     0.0026011 Eh/α   predicted    -0.5981009E-05 ( -45.26%)
   displ. norm   :     0.2223810 α      lambda       -0.5608256E-04
   maximum displ.:     0.1389619 α      in ANC's #1, #4, #2, ...

........................................................................
.............................. CYCLE   10 ..............................
........................................................................
   1    -30.3302920 -0.303303E+02  0.109E-02    3.23       0.0  T
   2    -30.3302932 -0.114044E-05  0.524E-03    3.23       5.5  T
   3    -30.3302933 -0.917959E-07  0.256E-03    3.23      11.3  T
   4    -30.3302933 -0.626028E-08  0.902E-04    3.23      32.0  T
   5    -30.3302933 -0.172036E-08  0.220E-04    3.23     131.3  T
   6    -30.3302933 -0.658602E-10  0.418E-05    3.23     690.0  T
   7    -30.3302933 -0.169500E-10  0.110E-05    3.23    2618.1  T
     SCC iter.                  ...        0 min,  0.003 sec
     gradient                   ...        0 min,  0.007 sec
 * total energy  :   -30.0963426 Eh     change       -0.3193823E-04 Eh
   gradient norm :     0.0048403 Eh/α   predicted    -0.2942593E-04 (  -7.87%)
   displ. norm   :     0.0467128 α      lambda       -0.2462238E-04
   maximum displ.:     0.0288172 α      in ANC's #4, #1, #2, ...

........................................................................
.............................. CYCLE   11 ..............................
........................................................................
   1    -30.3307130 -0.303307E+02  0.431E-03    3.24       0.0  T
   2    -30.3307132 -0.172886E-06  0.212E-03    3.23      13.6  T
   3    -30.3307132 -0.109168E-07  0.981E-04    3.23      29.4  T
   4    -30.3307132 -0.418009E-09  0.377E-04    3.23      76.6  T
   5    -30.3307132 -0.198710E-09  0.599E-05    3.23     481.6  T
   6    -30.3307132 -0.755307E-11  0.138E-05    3.23    2097.9  T
     SCC iter.                  ...        0 min,  0.002 sec
     gradient                   ...        0 min,  0.007 sec
 * total energy  :   -30.0963637 Eh     change       -0.2110634E-04 Eh
   gradient norm :     0.0040883 Eh/α   predicted    -0.1233703E-04 ( -41.55%)
   displ. norm   :     0.3070009 α      lambda       -0.9044785E-04
   maximum displ.:     0.1998439 α      in ANC's #1, #4, #2, ...

........................................................................
.............................. CYCLE   12 ..............................
........................................................................
   1    -30.3294869 -0.303295E+02  0.109E-02    3.24       0.0  T
   2    -30.3294875 -0.537702E-06  0.566E-03    3.24       5.1  T
   3    -30.3294875 -0.208242E-07  0.252E-03    3.24      11.5  T
   4    -30.3294875 -0.524630E-08  0.717E-04    3.24      40.3  T
   5    -30.3294875 -0.134798E-08  0.180E-04    3.24     160.3  T
   6    -30.3294875 -0.470273E-10  0.362E-05    3.24     798.1  T
     SCC iter.                  ...        0 min,  0.002 sec
     gradient                   ...        0 min,  0.006 sec
 * total energy  :   -30.0964055 Eh     change       -0.4185224E-04 Eh
   gradient norm :     0.0062891 Eh/α   predicted    -0.4948466E-04 (  18.24%)
   displ. norm   :     0.0525269 α      lambda       -0.1278345E-03
   maximum displ.:     0.0267716 α      in ANC's #1, #3, #17, ...

........................................................................
.............................. CYCLE   13 ..............................
........................................................................
   1    -30.3321031 -0.303321E+02  0.220E-02    3.25       0.0  T
   2    -30.3321067 -0.363150E-05  0.992E-03    3.25       2.9  T
   3    -30.3321070 -0.317786E-06  0.517E-03    3.25       5.6  T
   4    -30.3321070 -0.198237E-07  0.150E-03    3.25      19.2  T
   5    -30.3321070 -0.447818E-08  0.330E-04    3.25      87.5  T
   6    -30.3321070 -0.257504E-09  0.720E-05    3.25     400.9  T
   7    -30.3321070 -0.527685E-10  0.325E-06    3.25    8884.4  T
     SCC iter.                  ...        0 min,  0.002 sec
     gradient                   ...        0 min,  0.006 sec
 * total energy  :   -30.0964320 Eh     change       -0.2646180E-04 Eh
   gradient norm :     0.0042234 Eh/α   predicted    -0.6409383E-04 ( 142.21%)
   displ. norm   :     0.1333025 α      lambda       -0.5723318E-04
   maximum displ.:     0.0877107 α      in ANC's #1, #4, #2, ...

........................................................................
.............................. CYCLE   14 ..............................
........................................................................
   1    -30.3305426 -0.303305E+02  0.958E-03    3.25       0.0  T
   2    -30.3305428 -0.200439E-06  0.489E-03    3.25       5.9  T
   3    -30.3305428 -0.130300E-07  0.223E-03    3.25      12.9  T
   4    -30.3305428 -0.128860E-07  0.413E-04    3.25      69.8  T
   5    -30.3305428 -0.270493E-09  0.126E-04    3.25     228.6  T
   6    -30.3305428 -0.426574E-10  0.304E-05    3.25     948.6  T
     SCC iter.                  ...        0 min,  0.002 sec
     gradient                   ...        0 min,  0.006 sec
 * total energy  :   -30.0964681 Eh     change       -0.3611146E-04 Eh
   gradient norm :     0.0028972 Eh/α   predicted    -0.2912691E-04 ( -19.34%)
   displ. norm   :     0.0834912 α      lambda       -0.1828973E-04
   maximum displ.:     0.0549645 α      in ANC's #1, #4, #2, ...

........................................................................
.............................. CYCLE   15 ..............................
........................................................................
   1    -30.3302193 -0.303302E+02  0.368E-03    3.24       0.0  T
   2    -30.3302194 -0.101796E-06  0.196E-03    3.24      14.7  T
   3    -30.3302194 -0.800689E-08  0.983E-04    3.24      29.4  T
   4    -30.3302194 -0.584553E-09  0.256E-04    3.24     112.8  T
   5    -30.3302194 -0.136300E-09  0.701E-05    3.24     411.8  T
   6    -30.3302194 -0.532907E-11  0.126E-05    3.24    2283.0  T
     SCC iter.                  ...        0 min,  0.002 sec
     gradient                   ...        0 min,  0.006 sec
 * total energy  :   -30.0964807 Eh     change       -0.1261740E-04 Eh
   gradient norm :     0.0033585 Eh/α   predicted    -0.9208067E-05 ( -27.02%)
   displ. norm   :     0.0562412 α      lambda       -0.3123503E-04
   maximum displ.:     0.0345789 α      in ANC's #1, #2, #4, ...

........................................................................
.............................. CYCLE   16 ..............................
........................................................................
   1    -30.3311259 -0.303311E+02  0.732E-03    3.24       0.0  T
   2    -30.3311262 -0.318157E-06  0.424E-03    3.24       6.8  T
   3    -30.3311262 -0.102654E-07  0.216E-03    3.24      13.4  T
   4    -30.3311262 -0.104831E-08  0.540E-04    3.24      53.5  T
   5    -30.3311262 -0.106794E-08  0.661E-05    3.24     436.5  T
   6    -30.3311262 -0.776978E-11  0.192E-05    3.24    1506.7  T
     SCC iter.                  ...        0 min,  0.002 sec
     gradient                   ...        0 min,  0.006 sec
 * total energy  :   -30.0964975 Eh     change       -0.1679407E-04 Eh
   gradient norm :     0.0026117 Eh/α   predicted    -0.1566757E-04 (  -6.71%)
   displ. norm   :     0.1315251 α      lambda       -0.2234209E-04
   maximum displ.:     0.0892284 α      in ANC's #1, #4, #2, ...

........................................................................
.............................. CYCLE   17 ..............................
........................................................................
   1    -30.3308186 -0.303308E+02  0.438E-03    3.24       0.0  T
   2    -30.3308188 -0.127904E-06  0.190E-03    3.24      15.2  T
   3    -30.3308188 -0.134996E-07  0.962E-04    3.24      30.0  T
   4    -30.3308188 -0.111509E-08  0.236E-04    3.24     122.2  T
   5    -30.3308188 -0.132733E-09  0.647E-05    3.24     446.4  T
   6    -30.3308188 -0.580869E-11  0.219E-05    3.24    1315.2  T
     SCC iter.                  ...        0 min,  0.002 sec
     gradient                   ...        0 min,  0.006 sec
 * total energy  :   -30.0965139 Eh     change       -0.1639078E-04 Eh
   gradient norm :     0.0034161 Eh/α   predicted    -0.1136257E-04 ( -30.68%)
   displ. norm   :     0.1570069 α      lambda       -0.3544420E-04
   maximum displ.:     0.1046675 α      in ANC's #1, #4, #2, ...

........................................................................
.............................. CYCLE   18 ..............................
........................................................................
   1    -30.3307687 -0.303308E+02  0.407E-03    3.24       0.0  T
   2    -30.3307688 -0.145518E-06  0.184E-03    3.24      15.7  T
   3    -30.3307688 -0.129552E-07  0.916E-04    3.24      31.5  T
   4    -30.3307688 -0.600043E-09  0.299E-04    3.24      96.5  T
   5    -30.3307688 -0.239240E-09  0.670E-05    3.24     431.0  T
   6    -30.3307688 -0.515143E-11  0.204E-05    3.24    1416.9  T
     SCC iter.                  ...        0 min,  0.002 sec
     gradient                   ...        0 min,  0.006 sec
 * total energy  :   -30.0965356 Eh     change       -0.2170820E-04 Eh
   gradient norm :     0.0031890 Eh/α   predicted    -0.1815874E-04 ( -16.35%)
   displ. norm   :     0.0190388 α      lambda       -0.3085421E-04
   maximum displ.:     0.0116466 α      in ANC's #17, #2, #19, ...

........................................................................
.............................. CYCLE   19 ..............................
........................................................................
   1    -30.3321174 -0.303321E+02  0.860E-03    3.25       0.0  T
   2    -30.3321176 -0.180880E-06  0.463E-03    3.24       6.2  T
   3    -30.3321176 -0.717916E-08  0.199E-03    3.24      14.5  T
   4    -30.3321176 -0.947053E-08  0.392E-04    3.24      73.7  T
   5    -30.3321176 -0.313747E-09  0.102E-04    3.24     283.4  T
   6    -30.3321176 -0.168043E-10  0.113E-05    3.24    2558.5  T
     SCC iter.                  ...        0 min,  0.002 sec
     gradient                   ...        0 min,  0.006 sec
 * total energy  :   -30.0965430 Eh     change       -0.7384402E-05 Eh
   gradient norm :     0.0022095 Eh/α   predicted    -0.1543108E-04 ( 108.97%)
   displ. norm   :     0.0880067 α      lambda       -0.1808300E-04
   maximum displ.:     0.0514182 α      in ANC's #1, #4, #2, ...

........................................................................
.............................. CYCLE   20 ..............................
........................................................................
   1    -30.3313086 -0.303313E+02  0.479E-03    3.24       0.0  T
   2    -30.3313088 -0.110530E-06  0.237E-03    3.24      12.2  T
   3    -30.3313088 -0.112053E-07  0.123E-03    3.24      23.4  T
   4    -30.3313088 -0.273172E-08  0.264E-04    3.24     109.5  T
   5    -30.3313088 -0.109637E-09  0.878E-05    3.24     328.6  T
   6    -30.3313088 -0.132658E-10  0.160E-05    3.24    1808.7  T
     SCC iter.                  ...        0 min,  0.002 sec
     gradient                   ...        0 min,  0.006 sec
 * total energy  :   -30.0965543 Eh     change       -0.1123980E-04 Eh
   gradient norm :     0.0010221 Eh/α   predicted    -0.9111937E-05 ( -18.93%)
   displ. norm   :     0.1143800 α      lambda       -0.5776575E-05
   maximum displ.:     0.0650875 α      in ANC's #2, #1, #4, ...
 * RMSD in coord.:     0.4894278 α      energy gain  -0.4643519E-02 Eh

generating ANC from model Hessian ...
Using Lindh-Hessian (1995)
 Shifting diagonal of input Hessian by   3.700227283207617E-003
 Lowest  eigenvalues of input Hessian
    0.000000    0.000000    0.000000    0.000000    0.000000    0.000000
    0.010000    0.011471    0.018256    0.026939    0.038471    0.049556
    0.064964    0.087423    0.100629    0.104707    0.131380    0.136099
 Highest eigenvalues
    1.459497    1.715261    1.896249    2.021245    2.158819    2.315862
 

........................................................................
.............................. CYCLE   21 ..............................
........................................................................
   1    -30.3308677 -0.303309E+02  0.373E-03    3.24       0.0  T
   2    -30.3308677 -0.626917E-07  0.198E-03    3.24      14.6  T
   3    -30.3308678 -0.813519E-08  0.976E-04    3.24      29.6  T
   4    -30.3308678 -0.136691E-08  0.187E-04    3.24     154.7  T
   5    -30.3308678 -0.670290E-10  0.653E-05    3.24     441.9  T
     SCC iter.                  ...        0 min,  0.002 sec
     gradient                   ...        0 min,  0.006 sec
 * total energy  :   -30.0965585 Eh     change       -0.4270772E-05 Eh
   gradient norm :     0.0019635 Eh/α   predicted     0.0000000E+00 (-100.00%)
   displ. norm   :     0.0117026 α      lambda       -0.7983503E-05
   maximum displ.:     0.0062652 α      in ANC's #2, #17, #4, ...

........................................................................
.............................. CYCLE   22 ..............................
........................................................................
   1    -30.3317876 -0.303318E+02  0.463E-03    3.24       0.0  T
   2    -30.3317877 -0.443890E-07  0.242E-03    3.24      11.9  T
   3    -30.3317877 -0.286335E-09  0.990E-04    3.24      29.2  T
   4    -30.3317877 -0.334357E-08  0.214E-04    3.24     134.9  T
   5    -30.3317877 -0.995186E-10  0.577E-05    3.24     500.6  T
   6    -30.3317877 -0.980194E-11  0.121E-05    3.24    2390.0  T
     SCC iter.                  ...        0 min,  0.002 sec
     gradient                   ...        0 min,  0.006 sec
 * total energy  :   -30.0965636 Eh     change       -0.5097583E-05 Eh
   gradient norm :     0.0005431 Eh/α   predicted    -0.3993327E-05 ( -21.66%)
   displ. norm   :     0.0075640 α      lambda       -0.7865174E-06
   maximum displ.:     0.0069132 α      in ANC's #2, #9, #6, ...

........................................................................
.............................. CYCLE   23 ..............................
........................................................................
   1    -30.3316624 -0.303317E+02  0.934E-04    3.24       0.0  T
   2    -30.3316625 -0.488324E-08  0.399E-04    3.24      72.3  T
   3    -30.3316625 -0.108468E-09  0.190E-04    3.24     151.7  T
   4    -30.3316625 -0.204672E-10  0.691E-05    3.24     417.7  T
     SCC iter.                  ...        0 min,  0.001 sec
     gradient                   ...        0 min,  0.006 sec
 * total energy  :   -30.0965642 Eh     change       -0.6116435E-06 Eh
   gradient norm :     0.0002840 Eh/α   predicted    -0.3945155E-06 ( -35.50%)
   displ. norm   :     0.0129518 α      lambda       -0.9810005E-06
   maximum displ.:     0.0089282 α      in ANC's #2, #4, #1, ...

   *** GEOMETRY OPTIMIZATION CONVERGED AFTER 23 ITERATIONS ***

------------------------------------------------------------------------
 total energy gain   :        -0.0046535 Eh       -2.9201 kcal/mol
 total RMSD          :         0.4904956 a0        0.2596 Å
 total power (kW/mol):        -0.5312069 (step)  -33.1186 (real)
------------------------------------------------------------------------

 ANCopt (total)                0 d,  0 h,  0 min,  0.369 sec
 optimizer setup                ...        0 min,  0.001 sec (  0.237%)
 model hessian                  ...        0 min,  0.002 sec (  0.521%)
 ANC generation                 ...        0 min,  0.000 sec (  0.114%)
 coordinate transformation      ...        0 min,  0.000 sec (  0.048%)
 single point calculation       ...        0 min,  0.360 sec ( 97.559%)
 optimization log               ...        0 min,  0.002 sec (  0.656%)
 hessian update                 ...        0 min,  0.000 sec (  0.048%)
 rational function              ...        0 min,  0.001 sec (  0.329%)

================
 final structure:
================
12
 xtb: 6.5.1 (579679a)
C           -2.23383946892321        0.24528057138952       -0.08781978177037
C           -0.85366339137264       -0.27876147713957       -0.04305428431651
N           -0.47514493731144       -1.52551128021980       -0.04451284515285
N            0.87440956841990       -1.52569556109664        0.01462146497136
C            1.25176460978986       -0.27797125981831        0.04874322798931
C            2.62913814028569        0.21630056404230        0.11140388426523
O            3.59002731106238       -0.49591483548597        0.15662323007554
Cl           2.75622100454155        1.93768105560462        0.11651653032196
O            0.19042785517088        0.55443017114596        0.01417129759581
H           -2.32944101075647        0.97148293489613       -0.89410137420750
H           -2.93283024965197       -0.57290399257842       -0.24169141213422
H           -2.46707043125446        0.75158110926019        0.84910106236218
 
 Bond Distances (Angstroems)
 ---------------------------
C1-C2=1.4770         C1-H10=1.0893        C1-H11=1.0871        C1-H12=1.0902        C2-C1=1.4770         C2-N3=1.3029         
C2-O9=1.3370         N3-C2=1.3029         N3-N4=1.3508         N4-N3=1.3508         N4-C5=1.3040         C5-N4=1.3040         
C5-C6=1.4647         C5-O9=1.3493         C6-C5=1.4647         C6-O7=1.1969         C6-Cl8=1.7261        O7-C6=1.1969         
Cl8-C6=1.7261        O9-C2=1.3370         O9-C5=1.3493         H10-C1=1.0893        H11-C1=1.0871        H12-C1=1.0902        
 C  H  Rav=1.0889 sigma=0.0013  Rmin=1.0871  Rmax=1.0902     3
 C  C  Rav=1.4709 sigma=0.0061  Rmin=1.4647  Rmax=1.4770     2
 N  C  Rav=1.3035 sigma=0.0005  Rmin=1.3029  Rmax=1.3040     2
 N  N  Rav=1.3508 sigma=0.0000  Rmin=1.3508  Rmax=1.3508     1
 O  C  Rav=1.2944 sigma=0.0691  Rmin=1.1969  Rmax=1.3493     3
 Cl C  Rav=1.7261 sigma=0.0000  Rmin=1.7261  Rmax=1.7261     1
 
 selected bond angles (degree)
 --------------------
H10-C1-C2=109.94               H11-C1-C2=109.76               H11-C1-H10=109.91              H12-C1-C2=109.79               
H12-C1-H10=107.92              H12-C1-H11=109.49              N3-C2-C1=127.66                O9-C2-C1=120.66                
O9-C2-N3=111.68                N4-N3-C2=106.88                C5-N4-N3=106.87                C6-C5-N4=126.59                
O9-C5-N4=111.22                O9-C5-C6=122.18                O7-C6-C5=123.76                Cl8-C6-C5=113.95               
Cl8-C6-O7=122.29               C5-O9-C2=103.35                
 
 selected dihedral angles (degree)
 ---------------------------------
N3-C2-C1-H10=232.38           N3-C2-C1-H11=353.40           N3-C2-C1-H12=113.80           O9-C2-C1-H10= 52.78           
O9-C2-C1-H11=173.80           O9-C2-C1-H12=294.20           N4-N3-C2-C1=180.40            N4-N3-C2-O9=  0.03            
C5-N4-N3-C2=  0.00            C6-C5-N4-N3=180.23            O9-C5-N4-N3=  0.00            O7-C6-C5-N4=358.99            
O7-C6-C5-O9=179.23            Cl8-C6-C5-N4=179.05           Cl8-C6-C5-O9=359.29           C5-O9-C2-C1=179.64            
C5-O9-C2-N3=  0.00            C2-O9-C5-N4=  0.00            C2-O9-C5-C6=179.80            
           -------------------------------------------------
          |                Final Singlepoint                |
           -------------------------------------------------

          ...................................................
          :                      SETUP                      :
          :.................................................:
          :  # basis functions                  48          :
          :  # atomic orbitals                  47          :
          :  # shells                           25          :
          :  # electrons                        48          :
          :  # halogen bonds                     4          :
          :  max. iterations                   250          :
          :  Hamiltonian                  GFN1-xTB          :
          :  restarted?                      false          :
          :  GBSA solvation                   true          :
          :  PC potential                    false          :
          :  electronic temp.          300.0000000     K    :
          :  accuracy                    1.0000000          :
          :  -> integral cutoff          0.2500000E+02      :
          :  -> integral neglect         0.1000000E-07      :
          :  -> SCF convergence          0.1000000E-05 Eh   :
          :  -> wf. convergence          0.2000000E-04 e    :
          :  Broyden damping             0.4000000          :
          ...................................................

 iter      E             dE          RMSdq      gap      omega  full diag
   1    -30.3316625 -0.303317E+02  0.111E-05    3.24       0.0  T
   2    -30.3316625 -0.316192E-12  0.595E-06    3.24    4848.9  T
   3    -30.3316625 -0.248690E-13  0.166E-06    3.24   17389.4  T

   *** convergence criteria satisfied after 3 iterations ***

         #    Occupation            Energy/Eh            Energy/eV
      -------------------------------------------------------------
         1        2.0000           -0.9451258             -25.7182
       ...           ...                  ...                  ...
        18        2.0000           -0.5193830             -14.1331
        19        2.0000           -0.4975832             -13.5399
        20        2.0000           -0.4943583             -13.4522
        21        2.0000           -0.4885116             -13.2931
        22        2.0000           -0.4833051             -13.1514
        23        2.0000           -0.4678128             -12.7298
        24        2.0000           -0.4637352             -12.6189 (HOMO)
        25                         -0.3445681              -9.3762 (LUMO)
        26                         -0.2689161              -7.3176
        27                         -0.2308678              -6.2822
        28                         -0.2088063              -5.6819
        29                         -0.1468096              -3.9949
       ...                                ...                  ...
        47                          0.7400880              20.1388
      -------------------------------------------------------------
                  HL-Gap            0.1191672 Eh            3.2427 eV
             Fermi-level           -0.4041516 Eh          -10.9975 eV

 SCC (total)                   0 d,  0 h,  0 min,  0.011 sec
 SCC setup                      ...        0 min,  0.000 sec (  2.174%)
 Dispersion                     ...        0 min,  0.000 sec (  0.263%)
 classical contributions        ...        0 min,  0.000 sec (  0.121%)
 integral evaluation            ...        0 min,  0.003 sec ( 30.416%)
 iterations                     ...        0 min,  0.001 sec (  9.619%)
 molecular gradient             ...        0 min,  0.006 sec ( 56.458%)
 printout                       ...        0 min,  0.000 sec (  0.743%)

         :::::::::::::::::::::::::::::::::::::::::::::::::::::
         ::                     SUMMARY                     ::
         :::::::::::::::::::::::::::::::::::::::::::::::::::::
         :: total energy             -30.096564235127 Eh    ::
         :: total w/o Gsasa/hb       -30.089247252202 Eh    ::
         :: gradient norm              0.000286497671 Eh/a0 ::
         :: HOMO-LUMO gap              3.242703326405 eV    ::
         ::.................................................::
         :: SCC energy               -30.331662451118 Eh    ::
         :: -> electrostatic           0.107188118171 Eh    ::
         :: -> Gsolv                  -0.018883672787 Eh    ::
         ::    -> Gelec               -0.011566689862 Eh    ::
         ::    -> Gsasa               -0.014118335187 Eh    ::
         ::    -> Ghb                 -0.000822926742 Eh    ::
         ::    -> Gshift               0.007624279005 Eh    ::
         :: repulsion energy           0.240202724411 Eh    ::
         :: dispersion energy         -0.005104508419 Eh    ::
         :: halogen bond corr.         0.000000000000 Eh    ::
         :: add. restraining           0.000000000000 Eh    ::
         :: total charge              -0.000000000000 e     ::
         :::::::::::::::::::::::::::::::::::::::::::::::::::::

           -------------------------------------------------
          |                Property Printout                |
           -------------------------------------------------

    * Orbital Energies and Occupations

         #    Occupation            Energy/Eh            Energy/eV
      -------------------------------------------------------------
         1        2.0000           -0.9451258             -25.7182
       ...           ...                  ...                  ...
        12        2.0000           -0.6195329             -16.8583
        13        2.0000           -0.5993261             -16.3085
        14        2.0000           -0.5906382             -16.0721
        15        2.0000           -0.5528868             -15.0448
        16        2.0000           -0.5521600             -15.0250
        17        2.0000           -0.5405632             -14.7095
        18        2.0000           -0.5193830             -14.1331
        19        2.0000           -0.4975832             -13.5399
        20        2.0000           -0.4943583             -13.4522
        21        2.0000           -0.4885116             -13.2931
        22        2.0000           -0.4833051             -13.1514
        23        2.0000           -0.4678128             -12.7298
        24        2.0000           -0.4637352             -12.6189 (HOMO)
        25                         -0.3445681              -9.3762 (LUMO)
        26                         -0.2689161              -7.3176
        27                         -0.2308678              -6.2822
        28                         -0.2088063              -5.6819
        29                         -0.1468096              -3.9949
        30                         -0.0787511              -2.1429
        31                         -0.0781544              -2.1267
        32                         -0.0717134              -1.9514
        33                         -0.0715924              -1.9481
        34                         -0.0683461              -1.8598
        35                         -0.0367207              -0.9992
       ...                                ...                  ...
        47                          0.7400880              20.1388
      -------------------------------------------------------------
                  HL-Gap            0.1191672 Eh            3.2427 eV
             Fermi-level           -0.4041516 Eh          -10.9975 eV

  Mulliken/CM5 charges         n(s)   n(p)   n(d)
     1C    -0.11216 -0.24960   1.013  3.099  0.000
     2C     0.40003  0.50782   1.012  2.588  0.000
     3N    -0.25253 -0.35902   1.560  3.692  0.000
     4N    -0.19593 -0.29869   1.566  3.630  0.000
     5C     0.32840  0.44865   0.997  2.674  0.000
     6C     0.45547  0.49945   1.037  2.508  0.000
     7O    -0.48815 -0.53087   1.721  4.767  0.000
     8Cl   -0.03955 -0.03396   1.945  5.110 -0.015
     9O    -0.34301 -0.39619   1.692  4.651  0.000
    10H     0.08526  0.14001   0.915  0.000  0.000
    11H     0.07529  0.13111   0.925  0.000  0.000
    12H     0.08690  0.14130   0.913  0.000  0.000

Wiberg/Mayer (AO) data.
largest (>0.10) Wiberg bond orders for each atom

 ---------------------------------------------------------------------------
     #   Z sym  total        # sym  WBO       # sym  WBO       # sym  WBO
 ---------------------------------------------------------------------------
     1   6 C    3.983 --     2 C    1.035    11 H    0.981    10 H    0.963
                            12 H    0.957
     2   6 C    3.865 --     3 N    1.570     9 O    1.094     1 C    1.035
     3   7 N    2.986 --     2 C    1.570     4 N    1.236
     4   7 N    3.010 --     5 C    1.577     3 N    1.236
     5   6 C    3.880 --     4 N    1.577     9 O    1.050     6 C    1.039
     6   6 C    3.890 --     7 O    1.760     5 C    1.039     8 Cl   1.021
     7   8 O    2.030 --     6 C    1.760     8 Cl   0.153
     8  17 Cl   1.231 --     6 C    1.021     7 O    0.153
     9   8 O    2.327 --     2 C    1.094     5 C    1.050
    10   1 H    0.995 --     1 C    0.963
    11   1 H    0.997 --     1 C    0.981
    12   1 H    0.994 --     1 C    0.957
 ---------------------------------------------------------------------------

Topologies differ in total number of bonds
Writing topology from bond orders to xtbtopo.mol

 dipole moment from electron density (au)
     X       Y       Z   
  -2.1655   1.8214  -0.0667  total (Debye):    7.194

           -------------------------------------------------
          |                Geometry Summary                 |
           -------------------------------------------------

      molecular mass/u    :      146.5319197
   center of mass at/Å    :        1.1296662       0.1836583       0.0444095
  moments of inertia/u·Å² :        0.1651401E+03   0.5399482E+03   0.7019391E+03
rotational constants/cm⁻¹ :        0.1020808E+00   0.3122083E-01   0.2401581E-01

 * 10 selected distances

     #   Z          #   Z                                           value/Å
     1   6 C        2   6 C                                       1.4769937
     2   6 C        3   7 N                                       1.3029443
     4   7 N        5   6 C                                       1.3039852
     6   6 C        7   8 O                                       1.1969143
     6   6 C        8  17 Cl                                      1.7260729 (max)
     2   6 C        9   8 O                                       1.3370153
     5   6 C        9   8 O                                       1.3492677
     1   6 C       10   1 H                                       1.0893116
     1   6 C       11   1 H                                       1.0870560 (min)
     1   6 C       12   1 H                                       1.0902100

 * 5 distinct bonds (by element types)

   Z      Z             #   av. dist./Å        max./Å        min./Å
   1 H    6 C           3     1.0888592     1.0902100     1.0870560
   6 C    6 C           1     1.4769937     1.4769937     1.4769937
   6 C    7 N           2     1.3034647     1.3039852     1.3029443
   6 C    8 O           3     1.2943991     1.3492677     1.1969143
   6 C   17 Cl          1     1.7260729     1.7260729     1.7260729


optimized geometry written to: xtbopt.xyz


           -------------------------------------------------
          | TOTAL ENERGY              -30.096564235127 Eh   |
          | GRADIENT NORM               0.000286497671 Eh/α |
          | HOMO-LUMO GAP               3.242703326405 eV   |
           -------------------------------------------------

------------------------------------------------------------------------
 * finished run on 2023/06/20 at 14:51:34.930     
------------------------------------------------------------------------
 total:
 * wall-time:     0 d,  0 h,  0 min,  0.731 sec
 *  cpu-time:     0 d,  0 h,  0 min,  0.414 sec
 * ratio c/w:     0.566 speedup
 SCF:
 * wall-time:     0 d,  0 h,  0 min,  0.259 sec
 *  cpu-time:     0 d,  0 h,  0 min,  0.019 sec
 * ratio c/w:     0.074 speedup
 ANC optimizer:
 * wall-time:     0 d,  0 h,  0 min,  0.383 sec
 *  cpu-time:     0 d,  0 h,  0 min,  0.377 sec
 * ratio c/w:     0.985 speedup

