12
 energy: -30.096564235127 gnorm: 0.000286497671 xtb: 6.5.1 (579679a)
C           -2.23383946892321        0.24528057138952       -0.08781978177037
C           -0.85366339137264       -0.27876147713957       -0.04305428431651
N           -0.47514493731144       -1.52551128021980       -0.04451284515285
N            0.87440956841990       -1.52569556109664        0.01462146497136
C            1.25176460978986       -0.27797125981831        0.04874322798931
C            2.62913814028569        0.21630056404230        0.11140388426523
O            3.59002731106238       -0.49591483548597        0.15662323007554
Cl           2.75622100454155        1.93768105560462        0.11651653032196
O            0.19042785517088        0.55443017114596        0.01417129759581
H           -2.32944101075647        0.97148293489613       -0.89410137420750
H           -2.93283024965197       -0.57290399257842       -0.24169141213422
H           -2.46707043125446        0.75158110926019        0.84910106236218
