42
 energy: -83.600652455876 gnorm: 0.000879958936 xtb: 6.5.1 (579679a)
C            5.29485546487913        1.47491748587072        2.06593411577223
O            4.24797726418631        0.99717814471565        1.23002919986534
C            4.46716443120227        1.08321355726596       -0.09681048450735
O            5.51304994009812        1.55428570673853       -0.53706646818611
C            3.37216826018673        0.57280494353834       -0.92287821252463
N            2.27300737668708        0.07738160174274       -0.27952854113604
C            1.29762456729135       -0.38994741164758       -1.03647750557503
C            0.08041531890300       -0.97805481646032       -0.32748940639502
C            0.04671357294480       -0.53821209080739        1.14417215291217
C            0.18074153094007       -2.50824323317181       -0.43030416451398
N           -1.12418331551098       -0.52849643142042       -1.06479141324824
C           -2.37568503356116       -0.71021459571065       -0.37779196327914
O           -3.04126280279058       -1.92940405099194       -0.66232885701208
C           -3.51936287471125       -2.62487140501388        0.47145326750662
C           -2.99868636149957        0.38000317388727        0.15874159093693
N           -2.42417725163573        1.60091690907399        0.33407890236201
N           -3.37353154870486        2.37508814529326        0.96993209628864
C           -4.41948700497724        1.65379654947549        1.15860342549562
C           -5.69109868710026        2.05689358255657        1.81784125075162
O           -4.28763777670400        0.36764941460190        0.67940822093198
N            1.27811539236936       -0.43675685153965       -2.36684229047441
C            2.32820772057887        0.04135627329644       -3.08719876688359
O            2.34077859412750        0.01314073368907       -4.33499466081738
C            3.44259979834596        0.58544113984153       -2.30243993538563
O            4.50813779704538        1.07450256483467       -2.99096201533960
H            6.21758130097958        0.91841047320639        1.87994355908933
H            4.97371142515680        1.32735384806488        3.09562114926355
H            5.47961209544311        2.53685508938048        1.88090460152236
H           -0.10505669525357        0.54087798585222        1.20857428632326
H            0.98902559093518       -0.79117875367021        1.62916323089502
H           -0.76670369925797       -1.03864046222709        1.66993680935818
H            0.21379186849704       -2.80088393205672       -1.48110674014730
H           -0.67974541670945       -2.98314497467893        0.03893984320617
H            1.08567764009163       -2.86134250192971        0.06434454223465
H           -1.01509249590016        0.47678481755894       -1.23107840093191
H           -4.37872830366124       -2.11275967327430        0.92552211578506
H           -3.83757637037754       -3.61691054860699        0.14063925658326
H           -2.73986464497381       -2.73820400264456        1.23853136539051
H           -6.54345596953620        1.86384054455510        1.16594697631016
H           -5.84478699846651        1.49911206196474        2.74271359423860
H           -5.65493495548085        3.11894602823609        2.05025590331710
H            5.19010225592132        1.39651496061379       -2.36800762997492
