42
 energy: -82.955780409119 gnorm: 0.000582768476 xtb: 6.5.1 (579679a)
C           -2.18225362647933        2.41447027682380        2.72693351479996
O           -2.26064203802439        1.36836568385926        1.74014759047531
C           -2.55829717240127        1.71888193179756        0.51807550106626
O           -2.79723964078702        2.82160784052752        0.12266539894922
C           -2.56895031736183        0.47009662246369       -0.45852542504867
C           -2.82978162880691        0.98957854257678       -1.87608543555333
N           -1.26079248522682       -0.09135485293049       -0.33842251113974
C           -1.09247630722932       -1.18364553534590        0.33960285518223
C            0.32200741610711       -1.71572377457572        0.49973705262659
C            0.41220813459499       -3.10513802726238       -0.14629611927072
C            0.65107853946931       -1.78206726080780        1.99791671791918
N            1.22780477840141       -0.79019789606041       -0.17247005744976
C            2.56346267209218       -0.92532690638538       -0.20278140875630
O            3.20082695785145       -1.83672037251812        0.29982095153170
C            3.19356858336824        0.20253344736625       -0.94267611131771
N            2.57139133203087        1.19349770711458       -1.50717708359490
N            3.52700787067858        1.99268432218253       -2.06236583009531
C            4.67081663862601        1.43781095616303       -1.79924052359852
C            6.01706962741131        1.91927005903211       -2.18023437403071
O            4.52682544853256        0.30495269836588       -1.09536615373858
N           -2.02830441188319       -1.95632745061124        0.94156417933783
C           -3.31625493307866       -1.62371752623787        0.84859934655392
O           -4.29411499410219       -2.23083441308297        1.29326920049948
C           -3.62299591823980       -0.38767708872766        0.07316780434041
O           -4.86911308850117       -0.11088139060698       -0.06059372890341
H           -2.12293950771336        1.91728801333633        3.69187824764540
H           -3.07142411148683        3.04347193071666        2.66795897387958
H           -1.28959200786331        3.01578224694288        2.55014108484735
H           -2.06189444274505        1.71489729419174       -2.13430219367998
H           -2.79456914712520        0.15839436972770       -2.57565487968031
H           -3.80822886526858        1.46282562476487       -1.91724251248248
H            0.23083861457065       -3.02895184536279       -1.21731163284166
H            1.39963488603596       -3.53267110071063        0.01950522441474
H           -0.34045061355567       -3.75528658949348        0.29748725642872
H            0.63434015245229       -0.78028708891165        2.42465775543353
H           -0.09553712566618       -2.39551603310008        2.49995524763437
H            1.63604019766143       -2.21964558546084        2.15000559186932
H            0.79865324706599        0.00829025911353       -0.62601751360159
H            6.59555780145497        2.15333378314125       -1.28685250244714
H            5.92564384077148        2.81021780429012       -2.79615160048336
H            6.54790449475105        1.14446169840584       -2.73189569515008
H           -5.38682585038078       -0.81074237470300        0.42456979743546
