42
 energy: -82.912954104636 gnorm: 0.000623736061 xtb: 6.5.1 (579679a)
C            6.08383422645734        1.33728113054467       -1.04948288819513
O            4.85413153397806        0.70986091024167       -0.70829663733692
C            4.77249116492030        0.22189572348187        0.56602138987935
O            5.71669807797316        0.33064221040928        1.33069620849441
C            3.48330718817567       -0.39365736588331        0.84346749016226
N            2.58271908916647       -0.37443015229662       -0.20180765559027
C            1.41664086399451       -0.88987885843276       -0.07343620622637
C            0.44810804310703       -0.85005389592325       -1.24189217002885
C           -0.07364889546294       -2.24108848930661       -1.61045489821630
C            1.13578594314091       -0.21091550157874       -2.44936143462260
N           -0.67883893056278        0.04779212672357       -0.88467977955003
C           -1.71025583708201       -0.26635880645610       -0.10486378570238
O           -1.92159398255573       -1.32054417624153        0.47308274881427
C           -2.65663842877972        0.88338878330545        0.02971929716593
N           -2.52685199138581        2.09574077796889       -0.36043324765743
N           -3.64047851416468        2.79991519497084        0.00769118266165
C           -4.44458709763479        2.01790253601645        0.61933524164653
C           -5.76919235328350        2.30342686587478        1.19158516619083
O           -3.88067894369467        0.73683651702820        0.68604108191671
C           -4.41443373733260       -0.48867139029203        1.28195895549080
N            1.00032528668507       -1.47036522082670        1.10548499935889
C            1.77851978066537       -1.53775478082027        2.23494175156666
O            1.32727937820030       -2.04406708256462        3.25774708829987
C            3.17280748261187       -0.96023922961686        2.11011817571863
O            3.92932476251480       -1.00944379953058        3.09336618685135
H            6.27864751464167        2.19024247146625       -0.39129251437019
H            5.98968965330648        1.68043264969728       -2.07875562924462
H            6.91563616400812        0.62985000667915       -0.96949071721544
H           -0.84132540735810       -2.15535135538815       -2.37697028277019
H           -0.49493725747447       -2.75483520203794       -0.75020471777787
H            0.75201905572976       -2.83451657414659       -2.00149654762900
H            1.97763328555915       -0.83035711925293       -2.75566275634737
H            1.51182861812277        0.77807887354151       -2.18978766778968
H            0.43468340447551       -0.12548392988035       -3.27682077329980
H           -0.66486331941890        0.96975072445310       -1.29356494960276
H           -6.53166841197175        1.69123748599723        0.70912112921043
H           -5.78179705779800        2.08565751707819        2.25984156970204
H           -5.99651393239308        3.35589116914183        1.03159314543069
H           -3.76581186241736       -0.75932704675297        2.11257552803693
H           -5.42228993188218       -0.26049664625624        1.61226632181076
H           -4.40876852229512       -1.25245521157436        0.50830707945280
H            0.06306089753847       -1.83552883954637        1.17518252128880
