1
 energy: -1.209705319046 gnorm: 0.000000000000 xtb: 6.5.1 (579679a)
C            0.00000000000000        0.00000000000000        0.00000000000000
