38
 energy: -79.621587462606 gnorm: 0.000547709155 xtb: 6.5.1 (579679a)
C            6.28460589253515        1.61972605504445        0.86346129744333
O            5.15471481769636        0.81502804290693        1.16712576220677
C            4.15313854382151        0.83094455278078        0.25054327432760
O            4.24716154428590        1.51660545018124       -0.76183226220361
C            3.01497955043986       -0.01320950413826        0.57873524323206
N            2.02268738743998        0.02962942431477       -0.38375298904185
C            0.95404039688795       -0.66649239277366       -0.25945870487103
C           -0.11166627781949       -0.60751926580155       -1.34296225716172
C           -0.41141874593633       -2.00042570701888       -1.90875600375698
C            0.37119276445444        0.31251550467499       -2.46654295455051
N           -1.34233828541661        0.00283644861561       -0.80251545981690
C           -2.23875472739257       -0.59469373753080       -0.00064609382307
O           -2.15058619592631       -1.71469070198602        0.47847202655649
C           -3.39126834537398        0.30692083505224        0.27135126403134
N           -3.51409417394365        1.53838775506516       -0.12426604386761
N           -4.70720659959096        1.98878981672361        0.35758960168430
C           -5.23556627843107        1.00241611667441        1.01598391056454
C           -6.53535820079000        0.98014537974933        1.72209442452072
O           -4.45130145060439       -0.08552796842787        1.00072952365877
N            0.74301170857495       -1.48385526711949        0.82951154759442
C            1.62789431774097       -1.60985873232683        1.86696915944291
O            1.36068949893116       -2.34512143741980        2.81555706623329
C            2.90549320010221       -0.80664726563977        1.75063278637919
O            3.74713454751914       -0.89397562951108        2.66410782215234
H            6.75843467606463        1.28805798414769       -0.06564175205570
H            6.98463641134568        1.51438228549867        1.69140867694216
H            5.99582460079772        2.66982556604439        0.75458123730488
H            0.48586427370346       -2.39056476003159       -2.38701654058840
H           -1.20554421006351       -1.93266692011513       -2.65020714855392
H           -0.71998359521726       -2.69196620280823       -1.12834218355521
H            1.28476112016979       -0.09133696833094       -2.90020513933881
H           -0.38830966239902        0.38661495894167       -3.24210168577797
H            0.58634377716698        1.30653184330409       -2.07600232475456
H           -1.57610689166247        0.92210675228062       -1.14611095305775
H           -6.98832978207509        1.96761739531999        1.68595478959082
H           -6.39261804410704        0.67884623974291        2.75938037216833
H           -7.20213047532773        0.25847005093664        1.25032485812109
H           -0.12002608760511       -2.00784799701930        0.89475285262046
