20
 energy: -38.277955379970 gnorm: 0.000899336983 xtb: 6.5.1 (579679a)
C            4.05206005497379        0.76956636066879        0.10982646594109
O            2.64835145045252        0.82824074099330        0.06232394844510
C            2.02557097729817       -0.41729979294743       -0.34648693417025
O            2.78246411385727       -1.40612200330450       -0.63030607717195
C            0.67189608378781       -0.35476676077985       -0.38021400582139
N           -0.24040097849985       -1.39013651387085       -0.72951128833436
N           -1.42431368876802       -0.81279670116997       -0.58359685750234
C           -2.61037416843315       -1.59176579306779       -0.84585953387539
C           -1.39206334233703        0.43787143354934       -0.17643195912856
C           -2.53597030380006        1.35818183005971        0.04929880543700
O           -0.09353272486412        0.84953256448842       -0.02202491561888
H            4.41371036180614        1.75702103527258        0.40976336819691
H            4.40883262145241        0.02739012396808        0.84027862143683
H            4.48738744789599        0.51776180002052       -0.86912912464251
H           -3.34085814947815       -0.98452882933569       -1.37698703858751
H           -3.04470906026053       -1.93719142815726        0.09289153335538
H           -2.32617760770728       -2.44891725053164       -1.45309487525724
H           -3.02847786836066        1.62745921623437       -0.88905410045427
H           -2.16892978166823        2.26841257854212        0.52006138489203
H           -3.28446643734706        0.90208538936788        0.69906358286046
