46
 energy: -87.010720675549 gnorm: 0.000884880468 xtb: 6.5.1 (579679a)
C            5.87787999584464        1.24390575923153       -1.49158398711233
O            4.97759266057972        0.83786805885789       -0.46492137078583
C            3.76761998795918        0.35024121838653       -0.90215090057444
O            3.51927138306527        0.30602597533486       -2.10300999637390
C            2.90819365249043       -0.11341277813455        0.15448207978425
C            3.04378504210105        0.09814461067214        1.51423285944868
O            4.07133714802744        0.78651408127628        2.08708768136932
C            1.96471643125986       -0.26010059096793        2.41872289353692
O            2.06200200954160       -0.36028007845668        3.66729651799997
N            0.74995248548683       -0.37887811571125        1.79721629826759
C           -0.39260232503703       -0.50951032570961        2.69926790597787
C            0.57023538369451       -0.54843971589686        0.41194315944789
C           -0.27020147670371        0.51174510811421       -0.30744834558931
C           -0.15635086154365        1.90825912428911        0.32589823381444
C            0.09677942842734        0.57243397359606       -1.79648564485142
N           -1.68127130390392        0.04225485952816       -0.22246837352655
C           -2.75521773221190        0.70167922742678       -0.67633080719263
O           -2.78567888451572        1.85270631974887       -1.08841258128779
C           -3.97682299712033       -0.15520133179387       -0.60322983605892
N           -4.03500773794482       -1.37877486794367       -0.17068004193620
N           -5.33322209871350       -1.78104794511342       -0.29689375991523
C           -5.98231277753928       -0.77707786385418       -0.79979664276556
C           -7.42348020460876       -0.70997377155870       -1.12959351174462
O           -5.18379507884117        0.27931758549619       -1.01553793991195
N            1.78430576871894       -0.91616221781687       -0.27554640686868
C            2.06635358595917       -2.35807416594216       -0.14059174531360
H            6.79551601148057        1.56547532162531       -1.00242377319510
H            6.08993030181531        0.40992729132922       -2.16714630652186
H            5.45556001976024        2.07159625420833       -2.06963605257383
H            4.74952999114125        1.01071407712409        1.43003722440054
H           -0.35280877901536        0.27267492057693        3.46050170462011
H           -1.31932779410853       -0.42829039096685        2.13674197621411
H           -0.35738464679157       -1.48185535184842        3.19870522712019
H            0.89735364209905        2.17834533561378        0.39713453263150
H           -0.66808262435413        2.65585713947698       -0.27818166760747
H           -0.58905124068820        1.91176507610576        1.32517559470151
H            0.01675231102399       -0.41954760979891       -2.23946622230382
H            1.12044969407011        0.92329415193392       -1.91743275927441
H           -0.57387435450789        1.25148469355082       -2.32202044034451
H           -1.79330611811484       -0.94239048140967       -0.02287073664148
H           -7.90113369170322        0.08687378457200       -0.56015984318329
H           -7.89638619664367       -1.65956384604304       -0.89249311854395
H           -7.55438603497651       -0.49236500596000       -2.18923907692147
H            1.19340588389477       -2.90653442127313       -0.49552481665358
H            2.93102035062645       -2.60976760256055       -0.75657967709028
H            2.27216279052106       -2.64185646934909        0.90031049334272
