      -----------------------------------------------------------      
     |                   =====================                   |     
     |                           x T B                           |     
     |                   =====================                   |     
     |                         S. Grimme                         |     
     |          Mulliken Center for Theoretical Chemistry        |     
     |                    University of Bonn                     |     
      -----------------------------------------------------------      

   * xtb version 6.5.1 (579679a) compiled by 'ehlert@majestix' on 2022-07-11

   xtb is free software: you can redistribute it and/or modify it under
   the terms of the GNU Lesser General Public License as published by
   the Free Software Foundation, either version 3 of the License, or
   (at your option) any later version.
   
   xtb is distributed in the hope that it will be useful,
   but WITHOUT ANY WARRANTY; without even the implied warranty of
   MERCHANTABILITY or FITNESS FOR A PARTICULAR PURPOSE.  See the
   GNU Lesser General Public License for more details.
   
   Cite this work as:
   * C. Bannwarth, E. Caldeweyher, S. Ehlert, A. Hansen, P. Pracht,
     J. Seibert, S. Spicher, S. Grimme, WIREs Comput. Mol. Sci., 2020, 11,
     e01493. DOI: 10.1002/wcms.1493
   
   for GFN2-xTB:
   * C. Bannwarth, S. Ehlert and S. Grimme., J. Chem. Theory Comput., 2019,
     15, 1652-1671. DOI: 10.1021/acs.jctc.8b01176
   for GFN1-xTB:
   * S. Grimme, C. Bannwarth, P. Shushkov, J. Chem. Theory Comput., 2017,
     13, 1989-2009. DOI: 10.1021/acs.jctc.7b00118
   for GFN0-xTB:
   * P. Pracht, E. Caldeweyher, S. Ehlert, S. Grimme, ChemRxiv, 2019, preprint.
     DOI: 10.26434/chemrxiv.8326202.v1
   for GFN-FF:
   * S. Spicher and S. Grimme, Angew. Chem. Int. Ed., 2020, 59, 15665-15673.
     DOI: 10.1002/anie.202004239
   
   for ALPB and GBSA implicit solvation:
   * S. Ehlert, M. Stahn, S. Spicher, S. Grimme, J. Chem. Theory Comput.,
     2021, 17, 4250-4261. DOI: 10.1021/acs.jctc.1c00471
   
   for DFT-D4:
   * E. Caldeweyher, C. Bannwarth and S. Grimme, J. Chem. Phys., 2017,
     147, 034112. DOI: 10.1063/1.4993215
   * E. Caldeweyher, S. Ehlert, A. Hansen, H. Neugebauer, S. Spicher,
     C. Bannwarth and S. Grimme, J. Chem. Phys., 2019, 150, 154122.
     DOI: 10.1063/1.5090222
   * E. Caldeweyher, J.-M. Mewes, S. Ehlert and S. Grimme, Phys. Chem. Chem. Phys.
     2020, 22, 8499-8512. DOI: 10.1039/D0CP00502A
   
   for sTDA-xTB:
   * S. Grimme and C. Bannwarth, J. Chem. Phys., 2016, 145, 054103.
     DOI: 10.1063/1.4959605
   
   in the mass-spec context:
   * V. Asgeirsson, C. Bauer and S. Grimme, Chem. Sci., 2017, 8, 4879.
     DOI: 10.1039/c7sc00601b
   * J. Koopman and S. Grimme, ACS Omega 2019, 4, 12, 15120-15133.
     DOI: 10.1021/acsomega.9b02011
   
   for metadynamics refer to:
   * S. Grimme, J. Chem. Theory Comput., 2019, 155, 2847-2862
     DOI: 10.1021/acs.jctc.9b00143
   
   for SPH calculations refer to:
   * S. Spicher and S. Grimme, J. Chem. Theory Comput., 2021, 17, 1701-1714
     DOI: 10.1021/acs.jctc.0c01306
   
   with help from (in alphabetical order)
   P. Atkinson, C. Bannwarth, F. Bohle, G. Brandenburg, E. Caldeweyher
   M. Checinski, S. Dohm, S. Ehlert, S. Ehrlich, I. Gerasimov, C. Hölzer
   A. Katbashev, J. Koopman, C. Lavigne, S. Lehtola, F. März, M. Müller,
   F. Musil, H. Neugebauer, J. Pisarek, C. Plett, P. Pracht, F. Pultar,
   J. Seibert, P. Shushkov, S. Spicher, M. Stahn, M. Steiner, T. Strunk,
   J. Stückrath, T. Rose, and J. Unsleber
   
 * started run on 2023/06/21 at 18:00:59.254     

           -------------------------------------------------
          |                Calculation Setup                |
           -------------------------------------------------

          program call               : /lustre/hpc/kemi/ree/PhD/git/ReactivityQM/dep/xtb-6.5.1/bin/xtb --gfn 1 /lustre/hpc/kemi/ree/PhD/git/ReactivityQM/calculations/R02methylcation/reac01prodN18/conf10/R02methylcation_reac01prodN18_conf10_gfn1.xyz --opt --vfukui --chrg 0 --uhf 0 --alpb DMSO
          hostname                   : node317
          coordinate file            : /lustre/hpc/kemi/ree/PhD/git/ReactivityQM/calculations/R02methylcation/reac01prodN18/conf10/R02methylcation_reac01prodN18_conf10_gfn1.xyz
          omp threads                :                     1

   ID    Z sym.   atoms
    1    6 C      1, 3, 5, 6, 8, 11-15, 17, 19, 22, 23
    2    8 O      2, 4, 7, 9, 18, 24
    3    7 N      10, 16, 20, 21, 25
    4    1 H      26-42

           -------------------------------------------------
          |                 G F N 1 - x T B                 |
           -------------------------------------------------

        Reference                      10.1021/acs.jctc.7b00118
      * Hamiltonian:
        H0-scaling (s, p, d)           1.850000    2.250000    2.000000
        zeta-weighting                 0.000000
      * Dispersion:
        s8                             2.400000
        a1                             0.630000
        a2                             5.000000
        s9                             0.000000
      * Repulsion:
        kExp                           1.500000
        rExp                           1.000000
      * Coulomb:
        alpha                          2.000000
        third order                    atomic
        anisotropic                    false
      * Halogen bond correction:
        rad-scale                      1.300000
        damping                        0.440000

      * Solvation model:               ALPB
        Solvent                        DMSO
        Parameter file                 internal GFN1-xTB/ALPB
        Dielectric constant                4.6680E+01
        Reference state                gsolv [1 M gas/solution]
        Free energy shift                  7.6243E-03 Eh       4.7843E+00 kcal/mol
        Temperature                        2.9815E+02 K
        Density                            1.1000E+00 kg/L
        Solvent mass                       7.8130E+01 g/mol
        Interaction kernel             P16
        Born radius scaling (c1)           1.7672E+00
        Born radii integrator          GBOBC
        Born offset                        0.0000E+00 a0       0.0000E+00 AA
        H-bond correction              true
        Ion screening                  false
        Surface tension                    1.0000E-05 Eh       1.5569E+01 dyn/cm
        Grid points                               230 per atom

          ...................................................
          :                      SETUP                      :
          :.................................................:
          :  # basis functions                 134          :
          :  # atomic orbitals                 134          :
          :  # shells                           84          :
          :  # electrons                       134          :
          :  # halogen bonds                     0          :
          :  max. iterations                   250          :
          :  Hamiltonian                  GFN1-xTB          :
          :  restarted?                      false          :
          :  GBSA solvation                   true          :
          :  PC potential                    false          :
          :  electronic temp.          300.0000000     K    :
          :  accuracy                    1.0000000          :
          :  -> integral cutoff          0.2500000E+02      :
          :  -> integral neglect         0.1000000E-07      :
          :  -> SCF convergence          0.1000000E-05 Eh   :
          :  -> wf. convergence          0.2000000E-04 e    :
          :  Broyden damping             0.4000000          :
          ...................................................

 iter      E             dE          RMSdq      gap      omega  full diag
   1    -83.2683122 -0.832683E+02  0.849E+00    2.03       0.0  T
   2    -83.6577151 -0.389403E+00  0.513E+00    1.52       1.0  T
   3    -83.6309035  0.268115E-01  0.202E+00    1.42       1.0  T
   4    -83.6854709 -0.545674E-01  0.337E-01    1.43       1.0  T
   5    -83.6899599 -0.448902E-02  0.109E-01    1.34       1.0  T
   6    -83.6905381 -0.578133E-03  0.259E-02    1.40       1.0  T
   7    -83.6905568 -0.187588E-04  0.813E-03    1.39       1.9  T
   8    -83.6905582 -0.140493E-05  0.240E-03    1.39       6.4  T
   9    -83.6905584 -0.157873E-06  0.610E-04    1.39      25.3  T
  10    -83.6905584 -0.224344E-08  0.324E-04    1.39      47.7  T
  11    -83.6905584 -0.112695E-08  0.917E-05    1.39     168.2  T
  12    -83.6905584 -0.143388E-09  0.224E-05    1.39     688.9  T

   *** convergence criteria satisfied after 12 iterations ***

         #    Occupation            Energy/Eh            Energy/eV
      -------------------------------------------------------------
         1        2.0000           -0.8823707             -24.0105
       ...           ...                  ...                  ...
        61        2.0000           -0.4732241             -12.8771
        62        2.0000           -0.4663708             -12.6906
        63        2.0000           -0.4610039             -12.5446
        64        2.0000           -0.4516331             -12.2896
        65        2.0000           -0.4508131             -12.2672
        66        2.0000           -0.4253424             -11.5742
        67        2.0000           -0.4057237             -11.0403 (HOMO)
        68                         -0.3546105              -9.6494 (LUMO)
        69                         -0.3277329              -8.9181
        70                         -0.2933440              -7.9823
        71                         -0.2650809              -7.2132
        72                         -0.2458114              -6.6889
       ...                                ...                  ...
       134                          0.7681506              20.9024
      -------------------------------------------------------------
                  HL-Gap            0.0511132 Eh            1.3909 eV
             Fermi-level           -0.3801671 Eh          -10.3449 eV

 SCC (total)                   0 d,  0 h,  0 min,  0.176 sec
 SCC setup                      ...        0 min,  0.002 sec (  1.239%)
 Dispersion                     ...        0 min,  0.000 sec (  0.276%)
 classical contributions        ...        0 min,  0.000 sec (  0.085%)
 integral evaluation            ...        0 min,  0.049 sec ( 27.711%)
 iterations                     ...        0 min,  0.043 sec ( 24.202%)
 molecular gradient             ...        0 min,  0.081 sec ( 45.884%)
 printout                       ...        0 min,  0.001 sec (  0.575%)

         :::::::::::::::::::::::::::::::::::::::::::::::::::::
         ::                     SUMMARY                     ::
         :::::::::::::::::::::::::::::::::::::::::::::::::::::
         :: total energy             -82.927676105510 Eh    ::
         :: total w/o Gsasa/hb       -82.908361427563 Eh    ::
         :: gradient norm              0.131560306691 Eh/a0 ::
         :: HOMO-LUMO gap              1.390861429108 eV    ::
         ::.................................................::
         :: SCC energy               -83.690558376458 Eh    ::
         :: -> electrostatic           0.384852305639 Eh    ::
         :: -> Gsolv                  -0.068683759775 Eh    ::
         ::    -> Gelec               -0.049369081827 Eh    ::
         ::    -> Gsasa               -0.023670100275 Eh    ::
         ::    -> Ghb                 -0.003268856677 Eh    ::
         ::    -> Gshift               0.007624279005 Eh    ::
         :: repulsion energy           0.790203222603 Eh    ::
         :: dispersion energy         -0.027320951655 Eh    ::
         :: halogen bond corr.         0.000000000000 Eh    ::
         :: add. restraining           0.000000000000 Eh    ::
         :: total charge              -0.000000000000 e     ::
         :::::::::::::::::::::::::::::::::::::::::::::::::::::

      ----------------------------------------------------------- 
     |                   =====================                   |
     |                        A N C O P T                        |
     |                   =====================                   |
     |               Approximate Normal Coordinate               |
     |                Rational Function Optimizer                |
      ----------------------------------------------------------- 

          ...................................................
          :                      SETUP                      :
          :.................................................:
          :   optimization level            normal          :
          :   max. optcycles                   200          :
          :   ANC micro-cycles                  20          :
          :   degrees of freedom               120          :
          :.................................................:
          :   RF solver                   davidson          :
          :   write xtbopt.log                true          :
          :   linear?                        false          :
          :   energy convergence         0.5000000E-05 Eh   :
          :   grad. convergence          0.1000000E-02 Eh/α :
          :   maximium RF displ.         1.0000000          :
          :   Hlow (freq-cutoff)         0.1000000E-01      :
          :   Hmax (freq-cutoff)         5.0000000          :
          :   S6 in model hess.         20.0000000          :
          ...................................................

generating ANC from model Hessian ...
Using Lindh-Hessian (1995)
 Shifting diagonal of input Hessian by   9.812314508085620E-003
 Lowest  eigenvalues of input Hessian
    0.000000    0.000000    0.000000    0.000000    0.000000    0.000000
    0.010000    0.010071    0.010896    0.011687    0.012127    0.012579
    0.013098    0.013931    0.014833    0.015546    0.016284    0.017536
 Highest eigenvalues
    2.065098    2.103331    2.240145    2.296772    2.347878    2.359419
 

........................................................................
.............................. CYCLE    1 ..............................
........................................................................
   1    -83.6905584 -0.836906E+02  0.102E-05    1.39       0.0  T
   2    -83.6905584 -0.994760E-12  0.460E-06    1.39    3350.8  T
   3    -83.6905584 -0.994760E-13  0.345E-06    1.39    4473.9  T
     SCC iter.                  ...        0 min,  0.011 sec
     gradient                   ...        0 min,  0.082 sec
 * total energy  :   -82.9276761 Eh     change       -0.5684342E-11 Eh
   gradient norm :     0.1315604 Eh/α   predicted     0.0000000E+00 (-100.00%)
   displ. norm   :     0.3725804 α      lambda       -0.2165156E-01
   maximum displ.:     0.1465983 α      in ANC's #24, #31, #18, ...

........................................................................
.............................. CYCLE    2 ..............................
........................................................................
   1    -83.7070238 -0.837070E+02  0.104E-01    1.52       0.0  T
   2    -83.7073783 -0.354511E-03  0.519E-02    1.54       1.0  T
   3    -83.7074691 -0.907755E-04  0.215E-02    1.52       1.0  T
   4    -83.7074705 -0.145677E-05  0.104E-02    1.53       1.5  T
   5    -83.7074719 -0.132948E-05  0.212E-03    1.52       7.3  T
   6    -83.7074719 -0.712441E-07  0.360E-04    1.52      42.9  T
   7    -83.7074719 -0.315339E-08  0.140E-04    1.52     110.5  T
   8    -83.7074719 -0.249869E-09  0.532E-05    1.52     289.9  T
     SCC iter.                  ...        0 min,  0.028 sec
     gradient                   ...        0 min,  0.083 sec
 * total energy  :   -82.9439143 Eh     change       -0.1623823E-01 Eh
   gradient norm :     0.0695104 Eh/α   predicted    -0.1235579E-01 ( -23.91%)
   displ. norm   :     0.4187278 α      lambda       -0.1195010E-01
   maximum displ.:     0.1705200 α      in ANC's #18, #24, #25, ...

........................................................................
.............................. CYCLE    3 ..............................
........................................................................
   1    -83.7229830 -0.837230E+02  0.106E-01    1.68       0.0  T
   2    -83.7233159 -0.332936E-03  0.441E-02    1.67       1.0  T
   3    -83.7233598 -0.439132E-04  0.216E-02    1.66       1.0  T
   4    -83.7233608 -0.946725E-06  0.886E-03    1.67       1.7  T
   5    -83.7233618 -0.982875E-06  0.228E-03    1.67       6.8  T
   6    -83.7233619 -0.122261E-06  0.312E-04    1.67      49.5  T
   7    -83.7233619 -0.294820E-08  0.134E-04    1.67     115.4  T
   8    -83.7233619 -0.209766E-09  0.620E-05    1.67     248.7  T
     SCC iter.                  ...        0 min,  0.028 sec
     gradient                   ...        0 min,  0.083 sec
 * total energy  :   -82.9513254 Eh     change       -0.7411099E-02 Eh
   gradient norm :     0.0221046 Eh/α   predicted    -0.7025621E-02 (  -5.20%)
   displ. norm   :     0.2863655 α      lambda       -0.2206590E-02
   maximum displ.:     0.1369815 α      in ANC's #18, #12, #25, ...

........................................................................
.............................. CYCLE    4 ..............................
........................................................................
   1    -83.7272904 -0.837273E+02  0.354E-02    1.72       0.0  T
   2    -83.7273277 -0.372899E-04  0.154E-02    1.72       1.0  T
   3    -83.7273308 -0.314750E-05  0.782E-03    1.72       2.0  T
   4    -83.7273309 -0.113075E-06  0.266E-03    1.72       5.8  T
   5    -83.7273310 -0.437369E-07  0.458E-04    1.72      33.7  T
   6    -83.7273310 -0.428848E-08  0.132E-04    1.72     117.1  T
   7    -83.7273310 -0.317144E-09  0.616E-05    1.72     250.5  T
     SCC iter.                  ...        0 min,  0.024 sec
     gradient                   ...        0 min,  0.083 sec
 * total energy  :   -82.9528384 Eh     change       -0.1512928E-02 Eh
   gradient norm :     0.0140686 Eh/α   predicted    -0.1193787E-02 ( -21.09%)
   displ. norm   :     0.2611838 α      lambda       -0.1007328E-02
   maximum displ.:     0.1309879 α      in ANC's #18, #12, #7, ...

........................................................................
.............................. CYCLE    5 ..............................
........................................................................
   1    -83.7284517 -0.837285E+02  0.179E-02    1.73       0.0  T
   2    -83.7284626 -0.109139E-04  0.921E-03    1.73       1.7  T
   3    -83.7284638 -0.119290E-05  0.467E-03    1.74       3.3  T
   4    -83.7284638 -0.812786E-07  0.182E-03    1.74       8.5  T
   5    -83.7284639 -0.260482E-07  0.495E-04    1.74      31.1  T
   6    -83.7284639 -0.728058E-08  0.117E-04    1.74     132.4  T
   7    -83.7284639 -0.211870E-09  0.454E-05    1.74     340.1  T
     SCC iter.                  ...        0 min,  0.024 sec
     gradient                   ...        0 min,  0.083 sec
 * total energy  :   -82.9534936 Eh     change       -0.6552193E-03 Eh
   gradient norm :     0.0086690 Eh/α   predicted    -0.5380493E-03 ( -17.88%)
   displ. norm   :     0.1836813 α      lambda       -0.3713587E-03
   maximum displ.:     0.0902388 α      in ANC's #18, #7, #12, ...

........................................................................
.............................. CYCLE    6 ..............................
........................................................................
   1    -83.7288508 -0.837289E+02  0.104E-02    1.74       0.0  T
   2    -83.7288542 -0.337701E-05  0.457E-03    1.74       3.4  T
   3    -83.7288547 -0.514609E-06  0.232E-03    1.74       6.7  T
   4    -83.7288547 -0.372512E-07  0.834E-04    1.74      18.5  T
   5    -83.7288547 -0.339702E-08  0.270E-04    1.74      57.2  T
   6    -83.7288547 -0.145936E-08  0.716E-05    1.74     215.6  T
   7    -83.7288547 -0.818545E-10  0.272E-05    1.74     567.4  T
     SCC iter.                  ...        0 min,  0.024 sec
     gradient                   ...        0 min,  0.083 sec
 * total energy  :   -82.9537412 Eh     change       -0.2476306E-03 Eh
   gradient norm :     0.0064895 Eh/α   predicted    -0.1919443E-03 ( -22.49%)
   displ. norm   :     0.1570113 α      lambda       -0.2111021E-03
   maximum displ.:     0.0800065 α      in ANC's #7, #18, #5, ...

........................................................................
.............................. CYCLE    7 ..............................
........................................................................
   1    -83.7291633 -0.837292E+02  0.880E-03    1.73       0.0  T
   2    -83.7291655 -0.214196E-05  0.373E-03    1.74       4.1  T
   3    -83.7291657 -0.218418E-06  0.208E-03    1.74       7.4  T
   4    -83.7291657 -0.156821E-07  0.583E-04    1.74      26.5  T
   5    -83.7291657 -0.334165E-08  0.202E-04    1.74      76.3  T
   6    -83.7291657 -0.531713E-09  0.612E-05    1.74     252.1  T
   7    -83.7291657 -0.105786E-09  0.193E-05    1.74     798.8  T
     SCC iter.                  ...        0 min,  0.024 sec
     gradient                   ...        0 min,  0.083 sec
 * total energy  :   -82.9538886 Eh     change       -0.1474050E-03 Eh
   gradient norm :     0.0051847 Eh/α   predicted    -0.1081540E-03 ( -26.63%)
   displ. norm   :     0.1550559 α      lambda       -0.1467008E-03
   maximum displ.:     0.0852413 α      in ANC's #7, #5, #18, ...

........................................................................
.............................. CYCLE    8 ..............................
........................................................................
   1    -83.7292304 -0.837292E+02  0.832E-03    1.73       0.0  T
   2    -83.7292322 -0.178930E-05  0.385E-03    1.74       4.0  T
   3    -83.7292324 -0.197617E-06  0.210E-03    1.74       7.3  T
   4    -83.7292324 -0.174509E-07  0.579E-04    1.74      26.7  T
   5    -83.7292324 -0.505214E-08  0.195E-04    1.74      79.3  T
   6    -83.7292324 -0.798821E-09  0.734E-05    1.74     210.1  T
     SCC iter.                  ...        0 min,  0.021 sec
     gradient                   ...        0 min,  0.084 sec
 * total energy  :   -82.9539911 Eh     change       -0.1024796E-03 Eh
   gradient norm :     0.0045359 Eh/α   predicted    -0.7511694E-04 ( -26.70%)
   displ. norm   :     0.1394082 α      lambda       -0.9256995E-04
   maximum displ.:     0.0778099 α      in ANC's #7, #5, #9, ...

........................................................................
.............................. CYCLE    9 ..............................
........................................................................
   1    -83.7288268 -0.837288E+02  0.654E-03    1.74       0.0  T
   2    -83.7288279 -0.116187E-05  0.323E-03    1.74       4.8  T
   3    -83.7288282 -0.223260E-06  0.161E-03    1.74       9.6  T
   4    -83.7288282 -0.215454E-07  0.579E-04    1.74      26.7  T
   5    -83.7288282 -0.518349E-08  0.205E-04    1.74      75.3  T
   6    -83.7288282 -0.538407E-09  0.554E-05    1.74     278.6  T
   7    -83.7288282 -0.423768E-10  0.103E-05    1.74    1504.2  T
     SCC iter.                  ...        0 min,  0.044 sec
     gradient                   ...        0 min,  0.102 sec
 * total energy  :   -82.9540560 Eh     change       -0.6489650E-04 Eh
   gradient norm :     0.0038602 Eh/α   predicted    -0.4718768E-04 ( -27.29%)
   displ. norm   :     0.1218167 α      lambda       -0.6210517E-04
   maximum displ.:     0.0628068 α      in ANC's #7, #5, #9, ...

........................................................................
.............................. CYCLE   10 ..............................
........................................................................
   1    -83.7285767 -0.837286E+02  0.491E-03    1.74       0.0  T
   2    -83.7285776 -0.884145E-06  0.239E-03    1.74       6.5  T
   3    -83.7285777 -0.151402E-06  0.109E-03    1.74      14.1  T
   4    -83.7285777 -0.114064E-07  0.433E-04    1.74      35.7  T
   5    -83.7285777 -0.264512E-08  0.163E-04    1.74      94.5  T
   6    -83.7285777 -0.204864E-09  0.436E-05    1.74     354.1  T
     SCC iter.                  ...        0 min,  0.022 sec
     gradient                   ...        0 min,  0.083 sec
 * total energy  :   -82.9541007 Eh     change       -0.4475346E-04 Eh
   gradient norm :     0.0030919 Eh/α   predicted    -0.3151376E-04 ( -29.58%)
   displ. norm   :     0.1332447 α      lambda       -0.5369911E-04
   maximum displ.:     0.0731069 α      in ANC's #5, #7, #9, ...

........................................................................
.............................. CYCLE   11 ..............................
........................................................................
   1    -83.7279220 -0.837279E+02  0.452E-03    1.75       0.0  T
   2    -83.7279225 -0.575644E-06  0.207E-03    1.75       7.5  T
   3    -83.7279226 -0.665565E-07  0.104E-03    1.75      14.8  T
   4    -83.7279226 -0.876121E-08  0.395E-04    1.75      39.1  T
   5    -83.7279226 -0.207217E-08  0.132E-04    1.75     116.8  T
   6    -83.7279226 -0.197815E-09  0.393E-05    1.75     392.7  T
     SCC iter.                  ...        0 min,  0.022 sec
     gradient                   ...        0 min,  0.083 sec
 * total energy  :   -82.9541388 Eh     change       -0.3801911E-04 Eh
   gradient norm :     0.0031355 Eh/α   predicted    -0.2733074E-04 ( -28.11%)
   displ. norm   :     0.1326935 α      lambda       -0.5107463E-04
   maximum displ.:     0.0778594 α      in ANC's #5, #9, #7, ...

........................................................................
.............................. CYCLE   12 ..............................
........................................................................
   1    -83.7282122 -0.837282E+02  0.525E-03    1.75       0.0  T
   2    -83.7282137 -0.149289E-05  0.208E-03    1.75       7.4  T
   3    -83.7282138 -0.861600E-07  0.808E-04    1.75      19.1  T
   4    -83.7282138 -0.575426E-09  0.444E-04    1.75      34.8  T
   5    -83.7282138 -0.159702E-08  0.959E-05    1.75     161.0  T
   6    -83.7282138 -0.140574E-09  0.286E-05    1.75     539.7  T
     SCC iter.                  ...        0 min,  0.023 sec
     gradient                   ...        0 min,  0.083 sec
 * total energy  :   -82.9541733 Eh     change       -0.3454207E-04 Eh
   gradient norm :     0.0036486 Eh/α   predicted    -0.2598743E-04 ( -24.77%)
   displ. norm   :     0.1428296 α      lambda       -0.4791675E-04
   maximum displ.:     0.0918039 α      in ANC's #5, #9, #3, ...

........................................................................
.............................. CYCLE   13 ..............................
........................................................................
   1    -83.7276033 -0.837276E+02  0.403E-03    1.75       0.0  T
   2    -83.7276038 -0.486402E-06  0.207E-03    1.75       7.4  T
   3    -83.7276039 -0.856310E-07  0.104E-03    1.75      14.8  T
   4    -83.7276039 -0.248585E-08  0.343E-04    1.75      45.0  T
   5    -83.7276039 -0.166234E-08  0.698E-05    1.75     221.0  T
   6    -83.7276039 -0.140702E-09  0.184E-05    1.75     838.1  T
     SCC iter.                  ...        0 min,  0.023 sec
     gradient                   ...        0 min,  0.083 sec
 * total energy  :   -82.9542075 Eh     change       -0.3418755E-04 Eh
   gradient norm :     0.0038062 Eh/α   predicted    -0.2444840E-04 ( -28.49%)
   displ. norm   :     0.1468095 α      lambda       -0.5947489E-04
   maximum displ.:     0.0943752 α      in ANC's #5, #4, #3, ...

........................................................................
.............................. CYCLE   14 ..............................
........................................................................
   1    -83.7285950 -0.837286E+02  0.518E-03    1.75       0.0  T
   2    -83.7285958 -0.816855E-06  0.252E-03    1.75       6.1  T
   3    -83.7285960 -0.202393E-06  0.107E-03    1.75      14.4  T
   4    -83.7285960 -0.617615E-08  0.419E-04    1.75      36.8  T
   5    -83.7285960 -0.189873E-08  0.122E-04    1.75     126.5  T
   6    -83.7285960 -0.181956E-09  0.341E-05    1.75     452.7  T
     SCC iter.                  ...        0 min,  0.023 sec
     gradient                   ...        0 min,  0.083 sec
 * total energy  :   -82.9542488 Eh     change       -0.4132083E-04 Eh
   gradient norm :     0.0034552 Eh/α   predicted    -0.3037912E-04 ( -26.48%)
   displ. norm   :     0.1992101 α      lambda       -0.5511256E-04
   maximum displ.:     0.1358314 α      in ANC's #5, #4, #3, ...

........................................................................
.............................. CYCLE   15 ..............................
........................................................................
   1    -83.7274042 -0.837274E+02  0.563E-03    1.75       0.0  T
   2    -83.7274051 -0.927689E-06  0.266E-03    1.75       5.8  T
   3    -83.7274053 -0.170354E-06  0.125E-03    1.75      12.3  T
   4    -83.7274053 -0.149755E-08  0.370E-04    1.75      41.7  T
   5    -83.7274053 -0.223783E-08  0.959E-05    1.75     160.9  T
   6    -83.7274053 -0.223210E-09  0.247E-05    1.75     623.6  T
     SCC iter.                  ...        0 min,  0.023 sec
     gradient                   ...        0 min,  0.083 sec
 * total energy  :   -82.9542791 Eh     change       -0.3026973E-04 Eh
   gradient norm :     0.0049647 Eh/α   predicted    -0.2865301E-04 (  -5.34%)
   displ. norm   :     0.0976151 α      lambda       -0.6606681E-04
   maximum displ.:     0.0556234 α      in ANC's #5, #1, #4, ...

........................................................................
.............................. CYCLE   16 ..............................
........................................................................
   1    -83.7296420 -0.837296E+02  0.753E-03    1.75       0.0  T
   2    -83.7296432 -0.112472E-05  0.343E-03    1.75       4.5  T
   3    -83.7296432 -0.738586E-07  0.195E-03    1.75       7.9  T
   4    -83.7296432 -0.124740E-07  0.436E-04    1.75      35.4  T
   5    -83.7296432 -0.396619E-08  0.131E-04    1.75     117.7  T
   6    -83.7296432 -0.410779E-09  0.427E-05    1.75     361.1  T
     SCC iter.                  ...        0 min,  0.023 sec
     gradient                   ...        0 min,  0.083 sec
 * total energy  :   -82.9543093 Eh     change       -0.3023930E-04 Eh
   gradient norm :     0.0032734 Eh/α   predicted    -0.3335802E-04 (  10.31%)
   displ. norm   :     0.0803771 α      lambda       -0.2670883E-04
   maximum displ.:     0.0524945 α      in ANC's #5, #7, #9, ...

........................................................................
.............................. CYCLE   17 ..............................
........................................................................
   1    -83.7290637 -0.837291E+02  0.352E-03    1.75       0.0  T
   2    -83.7290641 -0.351431E-06  0.171E-03    1.75       9.0  T
   3    -83.7290642 -0.101285E-06  0.743E-04    1.75      20.8  T
   4    -83.7290642 -0.224091E-08  0.241E-04    1.75      64.0  T
   5    -83.7290642 -0.100900E-08  0.616E-05    1.75     250.6  T
   6    -83.7290642 -0.525944E-10  0.160E-05    1.75     963.8  T
     SCC iter.                  ...        0 min,  0.023 sec
     gradient                   ...        0 min,  0.083 sec
 * total energy  :   -82.9543292 Eh     change       -0.1989748E-04 Eh
   gradient norm :     0.0022729 Eh/α   predicted    -0.1344141E-04 ( -32.45%)
   displ. norm   :     0.0810540 α      lambda       -0.3007817E-04
   maximum displ.:     0.0438839 α      in ANC's #5, #7, #1, ...

........................................................................
.............................. CYCLE   18 ..............................
........................................................................
   1    -83.7287342 -0.837287E+02  0.520E-03    1.75       0.0  T
   2    -83.7287352 -0.926886E-06  0.269E-03    1.75       5.7  T
   3    -83.7287355 -0.329895E-06  0.878E-04    1.75      17.6  T
   4    -83.7287355 -0.457418E-08  0.302E-04    1.75      51.1  T
   5    -83.7287355 -0.696033E-09  0.104E-04    1.75     148.7  T
   6    -83.7287355 -0.157115E-09  0.262E-05    1.75     589.5  T
     SCC iter.                  ...        0 min,  0.023 sec
     gradient                   ...        0 min,  0.083 sec
 * total energy  :   -82.9543477 Eh     change       -0.1845066E-04 Eh
   gradient norm :     0.0019793 Eh/α   predicted    -0.1514005E-04 ( -17.94%)
   displ. norm   :     0.0927715 α      lambda       -0.1256593E-04
   maximum displ.:     0.0500706 α      in ANC's #5, #1, #7, ...

........................................................................
.............................. CYCLE   19 ..............................
........................................................................
   1    -83.7285944 -0.837286E+02  0.316E-03    1.75       0.0  T
   2    -83.7285948 -0.375921E-06  0.162E-03    1.75       9.5  T
   3    -83.7285949 -0.109299E-06  0.531E-04    1.75      29.1  T
   4    -83.7285949 -0.973586E-09  0.232E-04    1.75      66.5  T
   5    -83.7285949 -0.471331E-09  0.560E-05    1.75     275.4  T
   6    -83.7285949 -0.298002E-10  0.172E-05    1.75     896.6  T
     SCC iter.                  ...        0 min,  0.023 sec
     gradient                   ...        0 min,  0.082 sec
 * total energy  :   -82.9543611 Eh     change       -0.1345539E-04 Eh
   gradient norm :     0.0023764 Eh/α   predicted    -0.6307582E-05 ( -53.12%)
   displ. norm   :     0.0870437 α      lambda       -0.2262726E-04
   maximum displ.:     0.0400803 α      in ANC's #1, #5, #6, ...

........................................................................
.............................. CYCLE   20 ..............................
........................................................................
   1    -83.7288659 -0.837289E+02  0.179E-03    1.74       0.0  T
   2    -83.7288660 -0.888188E-07  0.100E-03    1.75      15.4  T
   3    -83.7288660 -0.119831E-07  0.488E-04    1.75      31.6  T
   4    -83.7288660 -0.474714E-09  0.154E-04    1.75     100.1  T
   5    -83.7288660 -0.348294E-09  0.483E-05    1.75     319.7  T
     SCC iter.                  ...        0 min,  0.019 sec
     gradient                   ...        0 min,  0.082 sec
 * total energy  :   -82.9543781 Eh     change       -0.1696037E-04 Eh
   gradient norm :     0.0019746 Eh/α   predicted    -0.1140106E-04 ( -32.78%)
   displ. norm   :     0.2954225 α      lambda       -0.3110126E-04
   maximum displ.:     0.1472357 α      in ANC's #5, #1, #7, ...
 * RMSD in coord.:     0.3702744 α      energy gain  -0.2670199E-01 Eh

generating ANC from model Hessian ...
Using Lindh-Hessian (1995)
 Shifting diagonal of input Hessian by   9.807899132231882E-003
 Lowest  eigenvalues of input Hessian
    0.000000    0.000000    0.000000    0.000000    0.000000    0.000000
    0.010000    0.010197    0.010912    0.011752    0.012006    0.012654
    0.013320    0.013799    0.015068    0.016092    0.016713    0.017222
 Highest eigenvalues
    2.102188    2.135304    2.244501    2.259376    2.372674    2.402570
 

........................................................................
.............................. CYCLE   21 ..............................
........................................................................
   1    -83.7272108 -0.837272E+02  0.497E-03    1.74       0.0  T
   2    -83.7272111 -0.293621E-06  0.244E-03    1.74       6.3  T
   3    -83.7272111 -0.869667E-08  0.120E-03    1.74      12.9  T
   4    -83.7272111 -0.151223E-07  0.290E-04    1.74      53.1  T
   5    -83.7272111 -0.109758E-08  0.984E-05    1.74     156.9  T
   6    -83.7272111 -0.181117E-09  0.288E-05    1.74     535.1  T
     SCC iter.                  ...        0 min,  0.023 sec
     gradient                   ...        0 min,  0.082 sec
 * total energy  :   -82.9543868 Eh     change       -0.8725738E-05 Eh
   gradient norm :     0.0042110 Eh/α   predicted     0.0000000E+00 (-100.00%)
   displ. norm   :     0.0210652 α      lambda       -0.4081948E-04
   maximum displ.:     0.0074475 α      in ANC's #25, #73, #2, ...

........................................................................
.............................. CYCLE   22 ..............................
........................................................................
   1    -83.7286735 -0.837287E+02  0.362E-03    1.75       0.0  T
   2    -83.7286736 -0.802339E-07  0.188E-03    1.75       8.2  T
   3    -83.7286736 -0.141469E-08  0.610E-04    1.75      25.3  T
   4    -83.7286736 -0.169042E-08  0.124E-04    1.75     124.1  T
   5    -83.7286736 -0.147239E-09  0.309E-05    1.75     500.1  T
     SCC iter.                  ...        0 min,  0.019 sec
     gradient                   ...        0 min,  0.083 sec
 * total energy  :   -82.9544146 Eh     change       -0.2779023E-04 Eh
   gradient norm :     0.0013814 Eh/α   predicted    -0.2054761E-04 ( -26.06%)
   displ. norm   :     0.0439288 α      lambda       -0.1575440E-04
   maximum displ.:     0.0168429 α      in ANC's #25, #2, #3, ...

........................................................................
.............................. CYCLE   23 ..............................
........................................................................
   1    -83.7297462 -0.837297E+02  0.297E-03    1.75       0.0  T
   2    -83.7297464 -0.150659E-06  0.155E-03    1.75      10.0  T
   3    -83.7297464 -0.722423E-08  0.763E-04    1.75      20.2  T
   4    -83.7297464 -0.172132E-08  0.220E-04    1.75      70.2  T
   5    -83.7297464 -0.110940E-08  0.498E-05    1.75     309.8  T
   6    -83.7297464 -0.365645E-10  0.135E-05    1.75    1144.4  T
     SCC iter.                  ...        0 min,  0.023 sec
     gradient                   ...        0 min,  0.082 sec
 * total energy  :   -82.9544281 Eh     change       -0.1346500E-04 Eh
   gradient norm :     0.0015696 Eh/α   predicted    -0.7885301E-05 ( -41.44%)
   displ. norm   :     0.0462232 α      lambda       -0.9643641E-05
   maximum displ.:     0.0169749 α      in ANC's #2, #25, #1, ...

........................................................................
.............................. CYCLE   24 ..............................
........................................................................
   1    -83.7295913 -0.837296E+02  0.134E-03    1.75       0.0  T
   2    -83.7295914 -0.687642E-07  0.718E-04    1.75      21.5  T
   3    -83.7295914 -0.101178E-07  0.334E-04    1.75      46.2  T
   4    -83.7295914  0.100641E-09  0.145E-04    1.75     106.1  T
   5    -83.7295914 -0.390116E-09  0.283E-05    1.75     544.4  T
     SCC iter.                  ...        0 min,  0.019 sec
     gradient                   ...        0 min,  0.083 sec
 * total energy  :   -82.9544406 Eh     change       -0.1253313E-04 Eh
   gradient norm :     0.0013581 Eh/α   predicted    -0.4841930E-05 ( -61.37%)
   displ. norm   :     0.1634716 α      lambda       -0.2775905E-04
   maximum displ.:     0.0612740 α      in ANC's #2, #1, #3, ...

........................................................................
.............................. CYCLE   25 ..............................
........................................................................
   1    -83.7285947 -0.837286E+02  0.392E-03    1.75       0.0  T
   2    -83.7285951 -0.395424E-06  0.199E-03    1.75       7.7  T
   3    -83.7285951 -0.546281E-07  0.103E-03    1.75      14.9  T
   4    -83.7285951 -0.397527E-08  0.346E-04    1.75      44.6  T
   5    -83.7285951 -0.233432E-08  0.830E-05    1.75     185.8  T
   6    -83.7285951 -0.749480E-10  0.285E-05    1.75     540.6  T
     SCC iter.                  ...        0 min,  0.023 sec
     gradient                   ...        0 min,  0.083 sec
 * total energy  :   -82.9544654 Eh     change       -0.2476819E-04 Eh
   gradient norm :     0.0017144 Eh/α   predicted    -0.1407091E-04 ( -43.19%)
   displ. norm   :     0.0696716 α      lambda       -0.7298996E-05
   maximum displ.:     0.0284042 α      in ANC's #2, #10, #1, ...

........................................................................
.............................. CYCLE   26 ..............................
........................................................................
   1    -83.7285534 -0.837286E+02  0.935E-04    1.75       0.0  T
   2    -83.7285534 -0.276047E-07  0.444E-04    1.75      34.8  T
   3    -83.7285534 -0.305455E-08  0.203E-04    1.75      76.0  T
   4    -83.7285534 -0.124857E-09  0.665E-05    1.75     232.0  T
   5    -83.7285534 -0.825224E-10  0.230E-05    1.75     671.1  T
     SCC iter.                  ...        0 min,  0.019 sec
     gradient                   ...        0 min,  0.083 sec
 * total energy  :   -82.9544753 Eh     change       -0.9901479E-05 Eh
   gradient norm :     0.0016545 Eh/α   predicted    -0.3827116E-05 ( -61.35%)
   displ. norm   :     0.1974538 α      lambda       -0.2466901E-04
   maximum displ.:     0.0934043 α      in ANC's #10, #1, #2, ...

........................................................................
.............................. CYCLE   27 ..............................
........................................................................
   1    -83.7285001 -0.837285E+02  0.380E-03    1.75       0.0  T
   2    -83.7285007 -0.595782E-06  0.192E-03    1.75       8.0  T
   3    -83.7285008 -0.105305E-06  0.769E-04    1.75      20.1  T
   4    -83.7285008 -0.475509E-09  0.366E-04    1.75      42.1  T
   5    -83.7285008 -0.214408E-08  0.800E-05    1.75     192.9  T
   6    -83.7285008 -0.447926E-10  0.280E-05    1.75     551.2  T
     SCC iter.                  ...        0 min,  0.023 sec
     gradient                   ...        0 min,  0.083 sec
 * total energy  :   -82.9545014 Eh     change       -0.2608711E-04 Eh
   gradient norm :     0.0016738 Eh/α   predicted    -0.1254891E-04 ( -51.90%)
   displ. norm   :     0.1909365 α      lambda       -0.1803147E-04
   maximum displ.:     0.0927401 α      in ANC's #10, #1, #2, ...

........................................................................
.............................. CYCLE   28 ..............................
........................................................................
   1    -83.7283272 -0.837283E+02  0.361E-03    1.75       0.0  T
   2    -83.7283278 -0.543656E-06  0.173E-03    1.75       8.9  T
   3    -83.7283278 -0.903408E-07  0.755E-04    1.75      20.4  T
   4    -83.7283278 -0.159727E-08  0.363E-04    1.75      42.6  T
   5    -83.7283279 -0.180962E-08  0.705E-05    1.75     219.0  T
   6    -83.7283279 -0.366782E-10  0.257E-05    1.75     601.1  T
     SCC iter.                  ...        0 min,  0.023 sec
     gradient                   ...        0 min,  0.083 sec
 * total energy  :   -82.9545189 Eh     change       -0.1756068E-04 Eh
   gradient norm :     0.0022608 Eh/α   predicted    -0.9163908E-05 ( -47.82%)
   displ. norm   :     0.1155266 α      lambda       -0.1836012E-04
   maximum displ.:     0.0572023 α      in ANC's #10, #1, #2, ...

........................................................................
.............................. CYCLE   29 ..............................
........................................................................
   1    -83.7285843 -0.837286E+02  0.214E-03    1.74       0.0  T
   2    -83.7285844 -0.197151E-06  0.103E-03    1.75      15.0  T
   3    -83.7285845 -0.298697E-07  0.452E-04    1.74      34.1  T
   4    -83.7285845 -0.676266E-09  0.218E-04    1.75      70.8  T
   5    -83.7285845 -0.653742E-09  0.449E-05    1.74     343.6  T
   6    -83.7285845 -0.119655E-10  0.151E-05    1.74    1022.7  T
     SCC iter.                  ...        0 min,  0.023 sec
     gradient                   ...        0 min,  0.083 sec
 * total energy  :   -82.9545319 Eh     change       -0.1292799E-04 Eh
   gradient norm :     0.0019486 Eh/α   predicted    -0.9304072E-05 ( -28.03%)
   displ. norm   :     0.1323827 α      lambda       -0.1547016E-04
   maximum displ.:     0.0725282 α      in ANC's #1, #10, #2, ...

........................................................................
.............................. CYCLE   30 ..............................
........................................................................
   1    -83.7295599 -0.837296E+02  0.272E-03    1.75       0.0  T
   2    -83.7295600 -0.127516E-06  0.148E-03    1.75      10.4  T
   3    -83.7295600 -0.869672E-08  0.736E-04    1.75      21.0  T
   4    -83.7295600 -0.460889E-08  0.216E-04    1.75      71.3  T
   5    -83.7295600 -0.122458E-08  0.675E-05    1.75     228.6  T
   6    -83.7295600 -0.438121E-10  0.157E-05    1.75     980.7  T
     SCC iter.                  ...        0 min,  0.023 sec
     gradient                   ...        0 min,  0.083 sec
 * total energy  :   -82.9545452 Eh     change       -0.1333748E-04 Eh
   gradient norm :     0.0014157 Eh/α   predicted    -0.7812275E-05 ( -41.43%)
   displ. norm   :     0.2794558 α      lambda       -0.1759604E-04
   maximum displ.:     0.1428681 α      in ANC's #1, #10, #2, ...

........................................................................
.............................. CYCLE   31 ..............................
........................................................................
   1    -83.7278023 -0.837278E+02  0.611E-03    1.75       0.0  T
   2    -83.7278028 -0.436236E-06  0.309E-03    1.75       5.0  T
   3    -83.7278028 -0.425727E-07  0.155E-03    1.75      10.0  T
   4    -83.7278028 -0.161860E-07  0.273E-04    1.75      56.6  T
   5    -83.7278028 -0.460972E-09  0.956E-05    1.75     161.3  T
   6    -83.7278028 -0.265729E-09  0.275E-05    1.75     561.2  T
     SCC iter.                  ...        0 min,  0.023 sec
     gradient                   ...        0 min,  0.083 sec
 * total energy  :   -82.9545352 Eh     change        0.1003632E-04 Eh
   gradient norm :     0.0042884 Eh/α   predicted    -0.9103571E-05 (-190.71%)
   displ. norm   :     0.1023414 α      lambda       -0.4137557E-04
   maximum displ.:     0.0516966 α      in ANC's #10, #2, #1, ...

........................................................................
.............................. CYCLE   32 ..............................
........................................................................
   1    -83.7290800 -0.837291E+02  0.380E-03    1.75       0.0  T
   2    -83.7290802 -0.171750E-06  0.194E-03    1.75       8.0  T
   3    -83.7290802 -0.116645E-07  0.102E-03    1.75      15.2  T
   4    -83.7290802 -0.117662E-07  0.253E-04    1.75      61.0  T
   5    -83.7290802 -0.154768E-08  0.646E-05    1.75     238.8  T
   6    -83.7290802 -0.508180E-10  0.164E-05    1.75     940.1  T
     SCC iter.                  ...        0 min,  0.023 sec
     gradient                   ...        0 min,  0.084 sec
 * total energy  :   -82.9545611 Eh     change       -0.2597431E-04 Eh
   gradient norm :     0.0014247 Eh/α   predicted    -0.2091560E-04 ( -19.48%)
   displ. norm   :     0.0650052 α      lambda       -0.1335741E-04
   maximum displ.:     0.0391316 α      in ANC's #5, #3, #1, ...

........................................................................
.............................. CYCLE   33 ..............................
........................................................................
   1    -83.7300015 -0.837300E+02  0.299E-03    1.75       0.0  T
   2    -83.7300016 -0.179120E-06  0.141E-03    1.75      11.0  T
   3    -83.7300016 -0.128967E-07  0.789E-04    1.75      19.6  T
   4    -83.7300016 -0.210930E-08  0.228E-04    1.75      67.8  T
   5    -83.7300016 -0.136407E-08  0.487E-05    1.75     316.6  T
   6    -83.7300016 -0.601119E-10  0.164E-05    1.75     941.9  T
     SCC iter.                  ...        0 min,  0.023 sec
     gradient                   ...        0 min,  0.083 sec
 * total energy  :   -82.9545740 Eh     change       -0.1291599E-04 Eh
   gradient norm :     0.0013414 Eh/α   predicted    -0.6693602E-05 ( -48.18%)
   displ. norm   :     0.1223532 α      lambda       -0.1156644E-04
   maximum displ.:     0.0706902 α      in ANC's #1, #5, #20, ...

........................................................................
.............................. CYCLE   34 ..............................
........................................................................
   1    -83.7300059 -0.837300E+02  0.165E-03    1.75       0.0  T
   2    -83.7300060 -0.114615E-06  0.592E-04    1.75      26.0  T
   3    -83.7300060 -0.397952E-08  0.308E-04    1.75      50.1  T
   4    -83.7300060 -0.220155E-09  0.103E-04    1.75     149.9  T
   5    -83.7300060 -0.466969E-10  0.254E-05    1.75     608.5  T
     SCC iter.                  ...        0 min,  0.019 sec
     gradient                   ...        0 min,  0.083 sec
 * total energy  :   -82.9545902 Eh     change       -0.1614930E-04 Eh
   gradient norm :     0.0015304 Eh/α   predicted    -0.5824955E-05 ( -63.93%)
   displ. norm   :     0.6712765 α      lambda       -0.5864393E-04
   maximum displ.:     0.3894339 α      in ANC's #1, #5, #7, ...

........................................................................
.............................. CYCLE   35 ..............................
........................................................................
   1    -83.7248646 -0.837249E+02  0.159E-02    1.75       0.0  T
   2    -83.7248669 -0.235231E-05  0.808E-03    1.75       1.9  T
   3    -83.7248670 -0.471953E-07  0.340E-03    1.75       4.5  T
   4    -83.7248670 -0.767453E-07  0.885E-04    1.75      17.4  T
   5    -83.7248671 -0.202737E-07  0.277E-04    1.75      55.7  T
   6    -83.7248671 -0.161880E-08  0.655E-05    1.75     235.6  T
   7    -83.7248671 -0.689369E-10  0.177E-05    1.75     872.0  T
     SCC iter.                  ...        0 min,  0.026 sec
     gradient                   ...        0 min,  0.083 sec
 * total energy  :   -82.9544329 Eh     change        0.1572736E-03 Eh
   gradient norm :     0.0127941 Eh/α   predicted    -0.3519763E-04 (-122.38%)
   displ. norm   :     0.2952061 α      lambda       -0.4025354E-03
   maximum displ.:     0.1644247 α      in ANC's #1, #5, #10, ...

........................................................................
.............................. CYCLE   36 ..............................
........................................................................
   1    -83.7284941 -0.837285E+02  0.115E-02    1.75       0.0  T
   2    -83.7284946 -0.556696E-06  0.613E-03    1.75       2.5  T
   3    -83.7284947 -0.348574E-08  0.169E-03    1.75       9.2  T
   4    -83.7284947 -0.278376E-07  0.449E-04    1.75      34.3  T
   5    -83.7284947 -0.270151E-08  0.137E-04    1.75     112.3  T
   6    -83.7284947 -0.462279E-09  0.358E-05    1.75     430.8  T
     SCC iter.                  ...        0 min,  0.023 sec
     gradient                   ...        0 min,  0.083 sec
 * total energy  :   -82.9546242 Eh     change       -0.1912421E-03 Eh
   gradient norm :     0.0026820 Eh/α   predicted    -0.2188076E-03 (  14.41%)
   displ. norm   :     0.0168885 α      lambda       -0.9611162E-05
   maximum displ.:     0.0074057 α      in ANC's #3, #20, #2, ...

........................................................................
.............................. CYCLE   37 ..............................
........................................................................
   1    -83.7289473 -0.837289E+02  0.135E-03    1.75       0.0  T
   2    -83.7289473 -0.302308E-07  0.670E-04    1.75      23.0  T
   3    -83.7289473 -0.229292E-08  0.355E-04    1.75      43.4  T
   4    -83.7289473 -0.112681E-08  0.108E-04    1.75     143.0  T
   5    -83.7289473 -0.235119E-09  0.232E-05    1.75     666.2  T
     SCC iter.                  ...        0 min,  0.019 sec
     gradient                   ...        0 min,  0.083 sec
 * total energy  :   -82.9546320 Eh     change       -0.7881822E-05 Eh
   gradient norm :     0.0016595 Eh/α   predicted    -0.4809148E-05 ( -38.98%)
   displ. norm   :     0.0788267 α      lambda       -0.1693028E-04
   maximum displ.:     0.0487667 α      in ANC's #1, #7, #3, ...

........................................................................
.............................. CYCLE   38 ..............................
........................................................................
   1    -83.7300012 -0.837300E+02  0.396E-03    1.75       0.0  T
   2    -83.7300016 -0.342197E-06  0.187E-03    1.75       8.3  T
   3    -83.7300016 -0.310929E-07  0.101E-03    1.75      15.3  T
   4    -83.7300016 -0.782234E-08  0.357E-04    1.75      43.2  T
   5    -83.7300016 -0.232464E-08  0.702E-05    1.75     220.0  T
   6    -83.7300016 -0.116401E-09  0.240E-05    1.75     642.2  T
     SCC iter.                  ...        0 min,  0.023 sec
     gradient                   ...        0 min,  0.083 sec
 * total energy  :   -82.9546445 Eh     change       -0.1241926E-04 Eh
   gradient norm :     0.0013732 Eh/α   predicted    -0.8492486E-05 ( -31.62%)
   displ. norm   :     0.0724775 α      lambda       -0.7206589E-05
   maximum displ.:     0.0501488 α      in ANC's #1, #7, #10, ...

........................................................................
.............................. CYCLE   39 ..............................
........................................................................
   1    -83.7297467 -0.837297E+02  0.103E-03    1.75       0.0  T
   2    -83.7297468 -0.207779E-07  0.447E-04    1.75      34.5  T
   3    -83.7297468 -0.187315E-08  0.234E-04    1.75      66.0  T
   4    -83.7297468 -0.610939E-09  0.792E-05    1.75     194.7  T
   5    -83.7297468 -0.843130E-10  0.243E-05    1.75     635.5  T
     SCC iter.                  ...        0 min,  0.019 sec
     gradient                   ...        0 min,  0.084 sec
 * total energy  :   -82.9546545 Eh     change       -0.1005878E-04 Eh
   gradient norm :     0.0009149 Eh/α   predicted    -0.3613705E-05 ( -64.07%)
   displ. norm   :     0.3903937 α      lambda       -0.3255440E-04
   maximum displ.:     0.2739388 α      in ANC's #1, #7, #10, ...

........................................................................
.............................. CYCLE   40 ..............................
........................................................................
   1    -83.7271184 -0.837271E+02  0.739E-03    1.75       0.0  T
   2    -83.7271191 -0.629593E-06  0.346E-03    1.75       4.5  T
   3    -83.7271191 -0.403993E-07  0.171E-03    1.75       9.0  T
   4    -83.7271191 -0.346726E-07  0.468E-04    1.75      33.0  T
   5    -83.7271191 -0.268793E-08  0.154E-04    1.75      99.9  T
   6    -83.7271191 -0.556369E-09  0.494E-05    1.75     312.4  T
     SCC iter.                  ...        0 min,  0.022 sec
     gradient                   ...        0 min,  0.078 sec
 * total energy  :   -82.9546659 Eh     change       -0.1142490E-04 Eh
   gradient norm :     0.0048714 Eh/α   predicted    -0.1740167E-04 (  52.31%)
   displ. norm   :     0.1084175 α      lambda       -0.2817978E-04
   maximum displ.:     0.0715553 α      in ANC's #1, #5, #7, ...

........................................................................
.............................. CYCLE   41 ..............................
........................................................................
   1    -83.7284284 -0.837284E+02  0.336E-03    1.75       0.0  T
   2    -83.7284284 -0.542241E-07  0.173E-03    1.75       8.9  T
   3    -83.7284284  0.187821E-08  0.726E-04    1.75      21.3  T
   4    -83.7284284 -0.993221E-08  0.163E-04    1.75      94.6  T
   5    -83.7284284 -0.301782E-09  0.545E-05    1.75     283.2  T
     SCC iter.                  ...        0 min,  0.019 sec
     gradient                   ...        0 min,  0.045 sec
 * total energy  :   -82.9546796 Eh     change       -0.1367043E-04 Eh
   gradient norm :     0.0019916 Eh/α   predicted    -0.1423236E-04 (   4.11%)
   displ. norm   :     0.0628550 α      lambda       -0.5864184E-05
   maximum displ.:     0.0497326 α      in ANC's #1, #7, #10, ...

........................................................................
.............................. CYCLE   42 ..............................
........................................................................
   1    -83.7286549 -0.837287E+02  0.111E-03    1.75       0.0  T
   2    -83.7286549 -0.188252E-07  0.485E-04    1.75      31.8  T
   3    -83.7286549 -0.127211E-08  0.204E-04    1.75      75.8  T
   4    -83.7286549 -0.187143E-09  0.640E-05    1.75     240.9  T
   5    -83.7286549 -0.320455E-10  0.189E-05    1.75     816.9  T
     SCC iter.                  ...        0 min,  0.013 sec
     gradient                   ...        0 min,  0.044 sec
 * total energy  :   -82.9546873 Eh     change       -0.7637755E-05 Eh
   gradient norm :     0.0013509 Eh/α   predicted    -0.2947612E-05 ( -61.41%)
   displ. norm   :     0.3709972 α      lambda       -0.2392654E-04
   maximum displ.:     0.2924844 α      in ANC's #1, #10, #7, ...
 * RMSD in coord.:     0.3440925 α      energy gain  -0.3091618E-03 Eh

generating ANC from model Hessian ...
Using Lindh-Hessian (1995)
 Shifting diagonal of input Hessian by   9.805438924087060E-003
 Lowest  eigenvalues of input Hessian
    0.000000    0.000000    0.000000    0.000000    0.000000    0.000000
    0.010000    0.010196    0.010923    0.011784    0.011971    0.012640
    0.013387    0.013795    0.015084    0.016142    0.016694    0.017235
 Highest eigenvalues
    2.101622    2.138183    2.245267    2.256229    2.372655    2.402056
 

........................................................................
.............................. CYCLE   43 ..............................
........................................................................
   1    -83.7280221 -0.837280E+02  0.390E-03    1.75       0.0  T
   2    -83.7280225 -0.386216E-06  0.153E-03    1.76      10.1  T
   3    -83.7280225 -0.260948E-07  0.717E-04    1.76      21.5  T
   4    -83.7280225 -0.606710E-08  0.288E-04    1.76      53.5  T
   5    -83.7280225 -0.997261E-09  0.978E-05    1.76     157.8  T
   6    -83.7280225 -0.167219E-09  0.364E-05    1.76     424.5  T
     SCC iter.                  ...        0 min,  0.016 sec
     gradient                   ...        0 min,  0.050 sec
 * total energy  :   -82.9547033 Eh     change       -0.1600825E-04 Eh
   gradient norm :     0.0021380 Eh/α   predicted     0.0000000E+00 (-100.00%)
   displ. norm   :     0.0111361 α      lambda       -0.1084066E-04
   maximum displ.:     0.0042217 α      in ANC's #11, #15, #3, ...

........................................................................
.............................. CYCLE   44 ..............................
........................................................................
   1    -83.7288250 -0.837288E+02  0.193E-03    1.76       0.0  T
   2    -83.7288250 -0.170343E-07  0.985E-04    1.76      15.7  T
   3    -83.7288250 -0.286036E-09  0.357E-04    1.76      43.2  T
   4    -83.7288250 -0.128826E-08  0.800E-05    1.76     192.8  T
   5    -83.7288250 -0.493117E-10  0.186E-05    1.76     830.0  T
     SCC iter.                  ...        0 min,  0.018 sec
     gradient                   ...        0 min,  0.078 sec
 * total energy  :   -82.9547106 Eh     change       -0.7292089E-05 Eh
   gradient norm :     0.0006849 Eh/α   predicted    -0.5476969E-05 ( -24.89%)
   displ. norm   :     0.0234538 α      lambda       -0.1732620E-05
   maximum displ.:     0.0099747 α      in ANC's #11, #15, #3, ...

........................................................................
.............................. CYCLE   45 ..............................
........................................................................
   1    -83.7294532 -0.837295E+02  0.168E-03    1.76       0.0  T
   2    -83.7294532 -0.396857E-07  0.738E-04    1.76      20.9  T
   3    -83.7294532 -0.230023E-08  0.375E-04    1.76      41.2  T
   4    -83.7294532 -0.751996E-09  0.952E-05    1.76     162.1  T
   5    -83.7294532 -0.820677E-10  0.346E-05    1.76     446.1  T
     SCC iter.                  ...        0 min,  0.019 sec
     gradient                   ...        0 min,  0.047 sec
 * total energy  :   -82.9547141 Eh     change       -0.3535973E-05 Eh
   gradient norm :     0.0008417 Eh/α   predicted    -0.1961711E-05 ( -44.52%)
   displ. norm   :     0.0286084 α      lambda       -0.2948466E-05
   maximum displ.:     0.0116897 α      in ANC's #11, #15, #3, ...

   *** GEOMETRY OPTIMIZATION CONVERGED AFTER 45 ITERATIONS ***

------------------------------------------------------------------------
 total energy gain   :        -0.0270380 Eh      -16.9666 kcal/mol
 total RMSD          :         0.5951532 a0        0.3149 Å
 total power (kW/mol):        -1.5775160 (step)  -11.0560 (real)
------------------------------------------------------------------------

 ANCopt (total)                0 d,  0 h,  0 min,  6.421 sec
 optimizer setup                ...        0 min,  0.001 sec (  0.013%)
 model hessian                  ...        0 min,  0.092 sec (  1.427%)
 ANC generation                 ...        0 min,  0.007 sec (  0.103%)
 coordinate transformation      ...        0 min,  0.002 sec (  0.024%)
 single point calculation       ...        0 min,  6.293 sec ( 98.015%)
 optimization log               ...        0 min,  0.013 sec (  0.204%)
 hessian update                 ...        0 min,  0.001 sec (  0.022%)
 rational function              ...        0 min,  0.008 sec (  0.122%)

================
 final structure:
================
42
 xtb: 6.5.1 (579679a)
C           -6.54938859532584        0.92210381643717       -1.84727522049911
O           -5.26780442449864        1.30189160871055       -1.35048955521542
C           -4.31016496204550        0.36160720444709       -1.40358356689258
O           -4.52087175765766       -0.75108952829911       -1.85324005347155
C           -3.01469878806006        0.79572009438425       -0.86657503387198
C           -2.73544169200127        2.09476371078049       -0.39613389515326
O           -3.49386505952271        3.06605224547222       -0.32865493631049
C           -1.30134282835153        2.32845490471881        0.05043943951236
O           -0.78714283969957        3.37167598513910        0.31372901600473
N           -0.45410489619063        1.10369458279806        0.27393764686262
C           -0.41721467643822        0.88733552223543        1.74557796751818
C           -0.89106132817037       -0.10422683098695       -0.44820830001203
C            0.10101165161125       -1.22585934094298       -0.68122749829737
C            0.49056804286047       -1.22823072712271       -2.17012802584805
C           -0.56986635099627       -2.55031470830038       -0.30166347560622
N            1.32074990892738       -1.11527021714817        0.12909512357470
C            2.24303868317288       -0.13813182207458        0.01364166741405
O            2.04920302984630        0.94065820456497       -0.54190496871585
C            3.50072374514730       -0.48397262618182        0.69835074096776
N            3.76839244259304       -1.61450863014995        1.28315694731287
N            5.02577435984434       -1.50783276371536        1.78416467170019
C            5.45089325618736       -0.31782991273647        1.47338076843558
C            6.76399403952744        0.28376139125645        1.78975356061435
O            4.53216524525104        0.37414070030161        0.78670066082855
N           -2.05196083918094       -0.18842021406203       -0.93701075583005
H           -6.47836999373119        0.61795380683468       -2.89517684126165
H           -7.19459881074301        1.79419264896867       -1.75388266316182
H           -6.95366113619010        0.09181223989289       -1.26168836965378
H            0.52107363416504        1.32305028036631       -0.04630580138950
H           -1.42600896451414        0.68899697213363        2.09996600900236
H           -0.01675497200657        1.78879807668618        2.20399407086324
H            0.22648052732234        0.03783265798754        1.94937880533502
H            1.18327150489995       -2.04442188748796       -2.36532854738540
H            0.96349161620363       -0.28520435208170       -2.43841613561627
H           -0.40600307990605       -1.36226217770746       -2.77352615856103
H           -0.77335274143992       -2.57117829883233        0.76761926645541
H            0.07706704958411       -3.38654689960642       -0.55927848476727
H           -1.51096641529040       -2.64436079339940       -0.84282176968823
H            1.63218753808168       -1.97099156763619        0.56744281342163
H            7.31894282018113       -0.37518998089815        2.45194119800858
H            7.33212719205327        0.43829416419739        0.87268040319643
H            6.62348886448629        1.25305346106083        2.26582428017633
 
 Bond Distances (Angstroems)
 ---------------------------
C1-O2=1.4260         C1-H26=1.0935        C1-H27=1.0888        C1-H28=1.0935        O2-C1=1.4260         O2-C3=1.3431         
C3-O2=1.3431         C3-O4=1.2185         C3-C5=1.4680         O4-C3=1.2185         C5-C3=1.4680         C5-C6=1.4095         
C5-N25=1.3785        C6-C5=1.4095         C6-O7=1.2342         C6-C8=1.5201         O7-C6=1.2342         C8-C6=1.5201         
C8-O9=1.1925         C8-N10=1.5059        O9-C8=1.1925         N10-C8=1.5059        N10-C11=1.4879       N10-C12=1.4736       
N10-H29=1.0496       C11-N10=1.4879       C11-H30=1.0875       C11-H31=1.0877       C11-H32=1.0851       C12-N10=1.4736       
C12-C13=1.5154       C12-N25=1.2624       C13-C12=1.5154       C13-C14=1.5390       C13-C15=1.5324       C13-N16=1.4685       
C14-C13=1.5390       C14-H33=1.0882       C14-H34=1.0885       C14-H35=1.0890       C15-C13=1.5324       C15-H36=1.0887       
C15-H37=1.0882       C15-H38=1.0897       N16-C13=1.4685       N16-C17=1.3486       N16-H39=1.0106       C17-N16=1.3486       
C17-O18=1.2288       C17-C19=1.4732       O18-C17=1.2288       C19-C17=1.4732       C19-N20=1.3007       C19-O24=1.3446       
N20-C19=1.3007       N20-N21=1.3577       N21-N20=1.3577       N21-C22=1.3013       C22-N21=1.3013       C22-C23=1.4786       
C22-O24=1.3396       C23-C22=1.4786       C23-H40=1.0866       C23-H41=1.0898       C23-H42=1.0890       O24-C19=1.3446       
O24-C22=1.3396       N25-C5=1.3785        N25-C12=1.2624       H26-C1=1.0935        H27-C1=1.0888        H28-C1=1.0935        
H29-N10=1.0496       H30-C11=1.0875       H31-C11=1.0877       H32-C11=1.0851       H33-C14=1.0882       H34-C14=1.0885       
H35-C14=1.0890       H36-C15=1.0887       H37-C15=1.0882       H38-C15=1.0897       H39-N16=1.0106       H40-C23=1.0866       
H41-C23=1.0898       H42-C23=1.0890       
 C  H  Rav=1.0889 sigma=0.0021  Rmin=1.0851  Rmax=1.0935    15
 C  C  Rav=1.4920 sigma=0.0405  Rmin=1.4095  Rmax=1.5390     8
 N  H  Rav=1.0301 sigma=0.0195  Rmin=1.0106  Rmax=1.0496     2
 N  C  Rav=1.3919 sigma=0.0883  Rmin=1.2624  Rmax=1.5059     9
 N  N  Rav=1.3577 sigma=0.0000  Rmin=1.3577  Rmax=1.3577     1
 O  C  Rav=1.2909 sigma=0.0777  Rmin=1.1925  Rmax=1.4260     8
 
 selected bond angles (degree)
 --------------------
H26-C1-O2=110.46               H27-C1-O2=106.82               H27-C1-H26=110.09              H28-C1-O2=110.36               
H28-C1-H26=109.03              H28-C1-H27=110.07              C3-O2-C1=116.14                O4-C3-O2=122.04                
C5-C3-O2=114.06                C5-C3-O4=123.89                C6-C5-C3=124.71                N25-C5-C3=112.74               
N25-C5-C6=122.45               O7-C6-C5=128.45                C8-C6-C5=115.25                C8-C6-O7=116.28                
O9-C8-C6=127.31                N10-C8-C6=116.70               N10-C8-O9=115.86               C11-N10-C8=106.20              
C12-N10-C8=115.28              C12-N10-C11=111.89             H29-N10-C8=107.91              H29-N10-C11=108.01             
H29-N10-C12=107.29             
 
 selected dihedral angles (degree)
 ---------------------------------
C3-O2-C1-H26=300.98           C3-O2-C1-H27=181.26           C3-O2-C1-H28= 61.62           O4-C3-O2-C1=  0.20            
C5-C3-O2-C1=180.68            C6-C5-C3-O2=356.61            C6-C5-C3-O4=177.10            N25-C5-C3-O2=180.13           
N25-C5-C3-O4=  0.62           O7-C6-C5-C3=  1.16            O7-C6-C5-N25=177.31           C8-C6-C5-C3=182.88            
C8-C6-C5-N25=359.03           O9-C8-C6-C5=169.27            O9-C8-C6-O7=350.77            N10-C8-C6-C5=344.95           
N10-C8-C6-O7=166.45           C11-N10-C8-C6=258.83          C11-N10-C8-O9= 75.01          C12-N10-C8-C6= 23.34          
C12-N10-C8-O9=199.52          H29-N10-C8-C6=143.22          H29-N10-C8-O9=319.40          
           -------------------------------------------------
          |                Final Singlepoint                |
           -------------------------------------------------

          ...................................................
          :                      SETUP                      :
          :.................................................:
          :  # basis functions                 134          :
          :  # atomic orbitals                 134          :
          :  # shells                           84          :
          :  # electrons                       134          :
          :  # halogen bonds                     0          :
          :  max. iterations                   250          :
          :  Hamiltonian                  GFN1-xTB          :
          :  restarted?                      false          :
          :  GBSA solvation                   true          :
          :  PC potential                    false          :
          :  electronic temp.          300.0000000     K    :
          :  accuracy                    1.0000000          :
          :  -> integral cutoff          0.2500000E+02      :
          :  -> integral neglect         0.1000000E-07      :
          :  -> SCF convergence          0.1000000E-05 Eh   :
          :  -> wf. convergence          0.2000000E-04 e    :
          :  Broyden damping             0.4000000          :
          ...................................................

 iter      E             dE          RMSdq      gap      omega  full diag
   1    -83.7294532 -0.837295E+02  0.965E-06    1.76       0.0  T
   2    -83.7294532 -0.227374E-11  0.545E-06    1.76    2830.6  T
   3    -83.7294532 -0.852651E-12  0.224E-06    1.76    6896.7  T

   *** convergence criteria satisfied after 3 iterations ***

         #    Occupation            Energy/Eh            Energy/eV
      -------------------------------------------------------------
         1        2.0000           -0.8719445             -23.7268
       ...           ...                  ...                  ...
        61        2.0000           -0.4762877             -12.9604
        62        2.0000           -0.4650140             -12.6537
        63        2.0000           -0.4624839             -12.5848
        64        2.0000           -0.4618329             -12.5671
        65        2.0000           -0.4552092             -12.3869
        66        2.0000           -0.4246150             -11.5544
        67        2.0000           -0.4088095             -11.1243 (HOMO)
        68                         -0.3442955              -9.3688 (LUMO)
        69                         -0.3275964              -8.9144
        70                         -0.2858278              -7.7778
        71                         -0.2638597              -7.1800
        72                         -0.2450786              -6.6689
       ...                                ...                  ...
       134                          0.7668193              20.8662
      -------------------------------------------------------------
                  HL-Gap            0.0645140 Eh            1.7555 eV
             Fermi-level           -0.3765525 Eh          -10.2465 eV

 SCC (total)                   0 d,  0 h,  0 min,  0.074 sec
 SCC setup                      ...        0 min,  0.001 sec (  1.763%)
 Dispersion                     ...        0 min,  0.000 sec (  0.296%)
 classical contributions        ...        0 min,  0.000 sec (  0.121%)
 integral evaluation            ...        0 min,  0.019 sec ( 26.417%)
 iterations                     ...        0 min,  0.008 sec ( 11.037%)
 molecular gradient             ...        0 min,  0.044 sec ( 59.632%)
 printout                       ...        0 min,  0.000 sec (  0.675%)

         :::::::::::::::::::::::::::::::::::::::::::::::::::::
         ::                     SUMMARY                     ::
         :::::::::::::::::::::::::::::::::::::::::::::::::::::
         :: total energy             -82.954714089970 Eh    ::
         :: total w/o Gsasa/hb       -82.935249226988 Eh    ::
         :: gradient norm              0.000842179185 Eh/a0 ::
         :: HOMO-LUMO gap              1.755514760037 eV    ::
         ::.................................................::
         :: SCC energy               -83.729453226142 Eh    ::
         :: -> electrostatic           0.382383319332 Eh    ::
         :: -> Gsolv                  -0.067492578155 Eh    ::
         ::    -> Gelec               -0.048027715173 Eh    ::
         ::    -> Gsasa               -0.023918780460 Eh    ::
         ::    -> Ghb                 -0.003170361527 Eh    ::
         ::    -> Gshift               0.007624279005 Eh    ::
         :: repulsion energy           0.802062321800 Eh    ::
         :: dispersion energy         -0.027323185628 Eh    ::
         :: halogen bond corr.         0.000000000000 Eh    ::
         :: add. restraining           0.000000000000 Eh    ::
         :: total charge               0.000000000000 e     ::
         :::::::::::::::::::::::::::::::::::::::::::::::::::::

           -------------------------------------------------
          |                Property Printout                |
           -------------------------------------------------

    * Orbital Energies and Occupations

         #    Occupation            Energy/Eh            Energy/eV
      -------------------------------------------------------------
         1        2.0000           -0.8719445             -23.7268
       ...           ...                  ...                  ...
        55        2.0000           -0.5114876             -13.9183
        56        2.0000           -0.5035484             -13.7022
        57        2.0000           -0.5021279             -13.6636
        58        2.0000           -0.4923579             -13.3977
        59        2.0000           -0.4824655             -13.1286
        60        2.0000           -0.4810924             -13.0912
        61        2.0000           -0.4762877             -12.9604
        62        2.0000           -0.4650140             -12.6537
        63        2.0000           -0.4624839             -12.5848
        64        2.0000           -0.4618329             -12.5671
        65        2.0000           -0.4552092             -12.3869
        66        2.0000           -0.4246150             -11.5544
        67        2.0000           -0.4088095             -11.1243 (HOMO)
        68                         -0.3442955              -9.3688 (LUMO)
        69                         -0.3275964              -8.9144
        70                         -0.2858278              -7.7778
        71                         -0.2638597              -7.1800
        72                         -0.2450786              -6.6689
        73                         -0.2143151              -5.8318
        74                         -0.1626448              -4.4258
        75                         -0.1476953              -4.0190
        76                         -0.1445884              -3.9344
        77                         -0.1364745              -3.7137
        78                         -0.1303957              -3.5482
       ...                                ...                  ...
       134                          0.7668193              20.8662
      -------------------------------------------------------------
                  HL-Gap            0.0645140 Eh            1.7555 eV
             Fermi-level           -0.3765525 Eh          -10.2465 eV

  Mulliken/CM5 charges         n(s)   n(p)   n(d)
     1C     0.16749  0.04738   0.976  2.857  0.000
     2O    -0.41983 -0.50311   1.686  4.734  0.000
     3C     0.56352  0.62959   0.967  2.469  0.000
     4O    -0.59662 -0.64033   1.729  4.867  0.000
     5C    -0.01025  0.06549   1.036  2.974  0.000
     6C     0.30907  0.35383   1.023  2.668  0.000
     7O    -0.58166 -0.62080   1.735  4.846  0.000
     8C     0.46208  0.54759   1.075  2.463  0.000
     9O    -0.46111 -0.50620   1.722  4.739  0.000
    10N    -0.19009 -0.56595   1.486  3.704  0.000
    11C     0.03664 -0.05809   1.010  2.954  0.000
    12C     0.21257  0.35120   1.025  2.762  0.000
    13C     0.15311  0.19142   1.066  2.781  0.000
    14C    -0.10520 -0.24458   1.024  3.082  0.000
    15C    -0.10683 -0.24688   1.023  3.084  0.000
    16N    -0.34841 -0.70758   1.442  3.906  0.000
    17C     0.46713  0.57356   0.982  2.551  0.000
    18O    -0.57051 -0.63973   1.722  4.848  0.000
    19C     0.33556  0.46075   0.998  2.666  0.000
    20N    -0.22920 -0.34009   1.566  3.663  0.000
    21N    -0.25409 -0.36110   1.562  3.692  0.000
    22C     0.39322  0.50122   1.010  2.596  0.000
    23C    -0.11154 -0.24913   1.012  3.099  0.000
    24O    -0.33263 -0.38451   1.690  4.643  0.000
    25N    -0.31418 -0.50689   1.517  3.797  0.000
    26H     0.04350  0.10532   0.956  0.000  0.000
    27H     0.04559  0.10588   0.954  0.000  0.000
    28H     0.04305  0.10461   0.957  0.000  0.000
    29H     0.31563  0.53838   0.684  0.000  0.000
    30H     0.07645  0.14073   0.924  0.000  0.000
    31H     0.09050  0.15628   0.910  0.000  0.000
    32H     0.07411  0.14437   0.926  0.000  0.000
    33H     0.05537  0.11141   0.945  0.000  0.000
    34H     0.05813  0.11859   0.942  0.000  0.000
    35H     0.05568  0.11218   0.944  0.000  0.000
    36H     0.05183  0.10864   0.948  0.000  0.000
    37H     0.05731  0.11288   0.943  0.000  0.000
    38H     0.06082  0.11919   0.939  0.000  0.000
    39H     0.26533  0.47099   0.735  0.000  0.000
    40H     0.07289  0.12875   0.927  0.000  0.000
    41H     0.08350  0.13789   0.916  0.000  0.000
    42H     0.08205  0.13683   0.918  0.000  0.000

Wiberg/Mayer (AO) data.
largest (>0.10) Wiberg bond orders for each atom

 ---------------------------------------------------------------------------
     #   Z sym  total        # sym  WBO       # sym  WBO       # sym  WBO
 ---------------------------------------------------------------------------
     1   6 C    3.884 --    27 H    0.986    28 H    0.980    26 H    0.980
                             2 O    0.910
     2   8 O    2.182 --     3 C    1.082     1 C    0.910     4 O    0.121
     3   6 C    3.858 --     4 O    1.608     2 O    1.082     5 C    1.071
     4   8 O    1.881 --     3 C    1.608     2 O    0.121
     5   6 C    3.912 --     6 C    1.288    25 N    1.137     3 C    1.071
                             7 O    0.148
     6   6 C    3.943 --     7 O    1.547     5 C    1.288     8 C    0.934
     7   8 O    1.884 --     6 C    1.547     5 C    0.148
     8   6 C    3.796 --     9 O    1.824     6 C    0.934    10 N    0.850
     9   8 O    2.046 --     8 C    1.824
    10   7 N    3.591 --    11 C    0.891    12 C    0.880     8 C    0.850
                            29 H    0.781
    11   6 C    3.899 --    30 H    0.986    31 H    0.980    32 H    0.980
                            10 N    0.891
    12   6 C    3.903 --    25 N    1.755    13 C    0.982    10 N    0.880
    13   6 C    3.930 --    15 C    0.990    12 C    0.982    14 C    0.971
                            16 N    0.921
    14   6 C    3.984 --    33 H    0.983    35 H    0.983    34 H    0.982
                            13 C    0.971
    15   6 C    3.987 --    13 C    0.990    36 H    0.984    37 H    0.983
                            38 H    0.980
    16   7 N    3.350 --    17 C    1.266    13 C    0.921    39 H    0.890
                            18 O    0.164
    17   6 C    3.911 --    18 O    1.532    16 N    1.266    19 C    1.012
    18   8 O    1.941 --    17 C    1.532    16 N    0.164
    19   6 C    3.882 --    20 N    1.595    24 O    1.064    17 C    1.012
    20   7 N    3.022 --    19 C    1.595    21 N    1.214
    21   7 N    2.982 --    22 C    1.590    20 N    1.214
    22   6 C    3.867 --    21 N    1.590    24 O    1.088    23 C    1.033
    23   6 C    3.985 --    22 C    1.033    40 H    0.982    42 H    0.965
                            41 H    0.959
    24   8 O    2.336 --    22 C    1.088    19 C    1.064
    25   7 N    3.079 --    12 C    1.755     5 C    1.137
    26   1 H    1.010 --     1 C    0.980
    27   1 H    1.013 --     1 C    0.986
    28   1 H    1.010 --     1 C    0.980
    29   1 H    0.920 --    10 N    0.781
    30   1 H    0.994 --    11 C    0.986
    31   1 H    0.996 --    11 C    0.980
    32   1 H    1.003 --    11 C    0.980
    33   1 H    0.999 --    14 C    0.983
    34   1 H    1.006 --    14 C    0.982
    35   1 H    1.004 --    14 C    0.983
    36   1 H    1.000 --    15 C    0.984
    37   1 H    0.997 --    15 C    0.983
    38   1 H    1.008 --    15 C    0.980
    39   1 H    0.945 --    16 N    0.890
    40   1 H    0.998 --    23 C    0.982
    41   1 H    0.995 --    23 C    0.959
    42   1 H    0.995 --    23 C    0.965
 ---------------------------------------------------------------------------

Topologies differ in total number of bonds
Writing topology from bond orders to xtbtopo.mol

 dipole moment from electron density (au)
     X       Y       Z   
   5.3010  -2.5519   2.1488  total (Debye):   15.920

           -------------------------------------------------
          |                Geometry Summary                 |
           -------------------------------------------------

      molecular mass/u    :      351.3152409
   center of mass at/Å    :       -0.0768173       0.2822944      -0.1195983
  moments of inertia/u·Å² :        0.8601415E+03   0.4954753E+04   0.5513617E+04
rotational constants/cm⁻¹ :        0.1959867E-01   0.3402316E-02   0.3057455E-02

 * 36 selected distances

     #   Z          #   Z                                           value/Å
     1   6 C        2   8 O                                       1.4260060
     2   8 O        3   6 C                                       1.3431409
     3   6 C        4   8 O                                       1.2184755
     5   6 C        6   6 C                                       1.4095439
     6   6 C        7   8 O                                       1.2341641
     8   6 C        9   8 O                                       1.1924905
    10   7 N       11   6 C                                       1.4879173
    10   7 N       12   6 C                                       1.4736011
    13   6 C       14   6 C                                       1.5390208 (max)
    13   6 C       15   6 C                                       1.5324257
    13   6 C       16   7 N                                       1.4685416
    16   7 N       17   6 C                                       1.3486089
    17   6 C       18   8 O                                       1.2288175
    19   6 C       20   7 N                                       1.3006755
    21   7 N       22   6 C                                       1.3013146
    22   6 C       23   6 C                                       1.4785932
    19   6 C       24   8 O                                       1.3446323
    22   6 C       24   8 O                                       1.3395575
    12   6 C       25   7 N                                       1.2624200
     1   6 C       26   1 H                                       1.0934573
     1   6 C       27   1 H                                       1.0888331
     1   6 C       28   1 H                                       1.0934956
    10   7 N       29   1 H                                       1.0495933
    11   6 C       30   1 H                                       1.0874719
    11   6 C       31   1 H                                       1.0877262
    11   6 C       32   1 H                                       1.0851422
    14   6 C       33   1 H                                       1.0881680
    14   6 C       34   1 H                                       1.0885468
    14   6 C       35   1 H                                       1.0889875
    15   6 C       36   1 H                                       1.0886725
    15   6 C       37   1 H                                       1.0881970
    15   6 C       38   1 H                                       1.0896635
    16   7 N       39   1 H                                       1.0106440 (min)
    23   6 C       40   1 H                                       1.0865900
    23   6 C       41   1 H                                       1.0898069
    23   6 C       42   1 H                                       1.0889960

 * 5 distinct bonds (by element types)

   Z      Z             #   av. dist./Å        max./Å        min./Å
   1 H    6 C          15     1.0889170     1.0934956     1.0851422
   6 C    6 C           4     1.4898959     1.5390208     1.4095439
   1 H    7 N           2     1.0301187     1.0495933     1.0106440
   6 C    7 N           7     1.3775827     1.4879173     1.2624200
   6 C    8 O           8     1.2909106     1.4260060     1.1924905


optimized geometry written to: xtbopt.xyz


           -------------------------------------------------
          | TOTAL ENERGY              -82.954714089970 Eh   |
          | GRADIENT NORM               0.000842179185 Eh/α |
          | HOMO-LUMO GAP               1.755514760037 eV   |
           -------------------------------------------------

------------------------------------------------------------------------
 * finished run on 2023/06/21 at 18:01:06.069     
------------------------------------------------------------------------
 total:
 * wall-time:     0 d,  0 h,  0 min,  6.816 sec
 *  cpu-time:     0 d,  0 h,  0 min,  6.635 sec
 * ratio c/w:     0.973 speedup
 SCF:
 * wall-time:     0 d,  0 h,  0 min,  0.177 sec
 *  cpu-time:     0 d,  0 h,  0 min,  0.163 sec
 * ratio c/w:     0.924 speedup
 ANC optimizer:
 * wall-time:     0 d,  0 h,  0 min,  6.513 sec
 *  cpu-time:     0 d,  0 h,  0 min,  6.440 sec
 * ratio c/w:     0.989 speedup

