42
 energy: -83.615732772517 gnorm: 0.000272347558 xtb: 6.5.1 (579679a)
C            6.54649477941446        1.74893340714996        1.16752332137591
O            5.58709428455797        1.29908768917582        0.22496114422442
C            4.36807929089471        0.96790894945407        0.73491742952125
O            4.15512939373192        1.07459171916838        1.93933191282416
C            3.40487456966785        0.49506789605043       -0.24310163949365
N            2.18930338161993        0.15038908201641        0.32770508272136
C            1.23208702933961       -0.29168249354587       -0.40202197509219
C           -0.08082176712088       -0.74253602649628        0.20821438720024
C           -0.40733385068185        0.11887362134143        1.43733367280187
C            0.07763939733722       -2.21536258729424        0.61557954843066
N           -1.12189187705444       -0.62685714831176       -0.83083938268368
C           -2.43295533627086       -1.08939389323590       -0.42422265527257
O           -2.69862116668661       -2.43641791356502       -0.81631478210098
C           -3.42861788176238       -3.18324952787430        0.13363914948131
C           -3.46581109194378       -0.20612888468541       -0.24867271327422
N           -4.78688247263588       -0.46965657325144       -0.08672770698993
N           -5.38112641258219        0.74243293741014        0.21157564954842
C           -4.46604265905612        1.64377485923768        0.22743901652843
C           -4.63564316346110        3.09991638737421        0.48357647452513
O           -3.21058887372463        1.14702079985058       -0.04725898702959
N            1.37235141151826       -0.45372889024597       -1.76336400340252
C            2.50709530375074       -0.15155214847657       -2.45813714392384
O            2.54645669539228       -0.31788473083648       -3.67954734269844
C            3.66009007516320        0.37622051772954       -1.63398802437952
O            4.72639599873969        0.66315618008381       -2.21741863521920
H            6.20549756875632        2.66115747747462        1.66771163262882
H            7.46477490961021        1.95405139371496        0.61859710995799
H            6.73560936390323        0.98360892718255        1.92725424586649
H            0.42289161703923        0.08907817383853        2.14312388003379
H           -0.57784930199806        1.15187200623742        1.13507863503583
H           -1.30668597548583       -0.25683522347454        1.92427731098708
H            0.96133718102753       -2.33558403338100        1.24208782429034
H           -0.79468139296252       -2.54774384985483        1.17641611693003
H            0.18233092481617       -2.83803764613106       -0.27308015457514
H           -1.20439019349900        0.36288964415015       -1.06605970911320
H           -2.95081591583680       -3.16202535947795        1.12470868575096
H           -3.46628630495653       -4.21802743298880       -0.21768634939643
H           -4.45694300743967       -2.80378302708513        0.23954870570018
H           -5.68951858142266        3.31236603596093        0.65281078621636
H           -4.28817235142381        3.68497017005587       -0.36996747897820
H           -4.06602923332387        3.41372535071819        1.36019988009798
H            0.57217263504009       -0.79460483516036       -2.28207391906902
