42
 energy: -82.982261691631 gnorm: 0.008499502295 xtb: 6.5.1 (579679a)
C           -2.60761912878317        3.71736719831750       -2.29130809551744
O           -2.68724625541142        2.30560856109320       -2.08798376139308
C           -1.76980366994534        1.77661849990223       -1.27213130311381
O           -0.88230153900911        2.44605107295286       -0.77036627769021
C           -1.96664744097849        0.35081891543582       -1.00264019546297
N           -0.89889555784340       -0.34073012414544       -0.42813796094224
C           -1.04686514332082       -1.51221228767125        0.12640606882174
C            0.21269416293895       -2.19985763659651        0.56759757563696
C            0.49404867603350       -3.40734559183667       -0.32797256051396
C            0.16469163216346       -2.58911060620000        2.04566704468299
N            1.20638813400139       -1.11537602618204        0.37962132146783
C            2.59679994055440       -1.51738839107610        0.12428146433442
C            0.63531150507934       -0.21157734770880       -0.92812818138491
O            0.80519950150110       -0.77515613068309       -2.00352811493423
C            1.27527184819102        1.12627862989666       -0.67559676217662
N            1.78775784417607        1.90286836589675       -1.57387655130899
N            2.44223505525401        2.89818314342005       -0.90556368617403
C            2.30597590167773        2.65597357067040        0.35718742935502
C            2.88413641785327        3.40559184770850        1.49147670676594
O            1.58323372459916        1.53513504202495        0.57820393172029
N           -2.25912551999632       -2.08015578922031        0.24726957122991
C           -3.40554425066694       -1.59592239055136       -0.37836487586107
O           -4.43959016282889       -2.22310594109889       -0.29620148480527
C           -3.24972270741286       -0.26383884154048       -1.08722743864135
O           -4.23932956517804        0.21512854691535       -1.64290616688941
H           -3.40263437605658        3.97813871998672       -2.98712116216207
H           -1.63492808402786        3.98534597531734       -2.71195283048465
H           -2.74594525370008        4.24407126488339       -1.34343493217731
H            0.64664789494086       -3.08903258777272       -1.35745420590223
H            1.37198858540678       -3.94414267323736        0.02314801278167
H           -0.36085165078950       -4.07832073635922       -0.28484837979471
H            1.14275516490320       -2.94571428455212        2.36393624240712
H           -0.12257102524149       -1.73606085364051        2.65751371228777
H           -0.55907320591439       -3.38899773892787        2.18920722525155
H            1.18325751550262       -0.50864895859675        1.19834647044023
H            3.21511294901198       -0.62647645402444        0.20701504942993
H            2.90085277546966       -2.24859481678893        0.86754968576009
H            2.67170400850265       -1.93316553159974       -0.87872632769454
H            2.10798629841905        3.67849374333403        2.20394065857290
H            3.60761476477130        2.77863282910729        2.00715827862200
H            3.38125635830741        4.29818694346914        1.11912552412881
H           -2.34422512212531       -2.96756113030533        0.71829528132113
