4
xtbopt.out	Energy:     -39.9275740
C          0.00141        0.00052        0.38678
H          1.00193       -0.22994       -0.13242
H         -0.70122       -0.75394       -0.12531
H         -0.30212        0.98336       -0.12905
