4
 energy: -3.917850423428 gnorm: 0.057998029747 xtb: 6.5.1 (579679a)
C            0.00141000000000        0.00052000000000        0.38678000000000
H            1.00193000000000       -0.22994000000000       -0.13242000000000
H           -0.70122000000000       -0.75394000000000       -0.12531000000000
H           -0.30212000000000        0.98336000000000       -0.12905000000000
4
 energy: -3.921787034423 gnorm: 0.027133955528 xtb: 6.5.1 (579679a)
C            0.00136049962725        0.00049297270307        0.32264752429857
H            1.00851409918628       -0.23180049387779       -0.11100931162533
H           -0.70531283497912       -0.75796161425616       -0.10396821292987
H           -0.30456176383441        0.98926913543089       -0.10766999974337
4
 energy: -3.922753495078 gnorm: 0.008807276256 xtb: 6.5.1 (579679a)
C            0.00104351680301        0.00040835501499        0.31388831936151
H            0.96712297428336       -0.22218640125544       -0.10803248144643
H           -0.67633955831362       -0.72710355415944       -0.10111450452390
H           -0.29182693277275        0.94888160039989       -0.10474133339118
4
 energy: -3.922996986147 gnorm: 0.001256759295 xtb: 6.5.1 (579679a)
C            0.00110358246061        0.00039552504672        0.30730081021868
H            0.98127986695435       -0.22536362135665       -0.10585844571054
H           -0.68632017100445       -0.73775470367688       -0.09888549624809
H           -0.29606327841051        0.96272279998681       -0.10255686826006
4
 energy: -3.922999394549 gnorm: 0.001005212124 xtb: 6.5.1 (579679a)
C            0.00121317449042        0.00049490302309        0.30530561033782
H            0.98499110105500       -0.22645719932402       -0.10517574292946
H           -0.68876327149681       -0.74033491633450       -0.09825961616828
H           -0.29744100404861        0.96629721263543       -0.10187025124009
4
 energy: -3.923001615597 gnorm: 0.000058782739 xtb: 6.5.1 (579679a)
C            0.00110000436723        0.00038900846934        0.30563342656198
H            0.98348912364015       -0.22584606263776       -0.10530923917067
H           -0.68787993071382       -0.73941820061713       -0.09832118602195
H           -0.29670919729357        0.96487525478555       -0.10200300136937
