      -----------------------------------------------------------      
     |                   =====================                   |     
     |                           x T B                           |     
     |                   =====================                   |     
     |                         S. Grimme                         |     
     |          Mulliken Center for Theoretical Chemistry        |     
     |                    University of Bonn                     |     
      -----------------------------------------------------------      

   * xtb version 6.5.1 (579679a) compiled by 'ehlert@majestix' on 2022-07-11

   xtb is free software: you can redistribute it and/or modify it under
   the terms of the GNU Lesser General Public License as published by
   the Free Software Foundation, either version 3 of the License, or
   (at your option) any later version.
   
   xtb is distributed in the hope that it will be useful,
   but WITHOUT ANY WARRANTY; without even the implied warranty of
   MERCHANTABILITY or FITNESS FOR A PARTICULAR PURPOSE.  See the
   GNU Lesser General Public License for more details.
   
   Cite this work as:
   * C. Bannwarth, E. Caldeweyher, S. Ehlert, A. Hansen, P. Pracht,
     J. Seibert, S. Spicher, S. Grimme, WIREs Comput. Mol. Sci., 2020, 11,
     e01493. DOI: 10.1002/wcms.1493
   
   for GFN2-xTB:
   * C. Bannwarth, S. Ehlert and S. Grimme., J. Chem. Theory Comput., 2019,
     15, 1652-1671. DOI: 10.1021/acs.jctc.8b01176
   for GFN1-xTB:
   * S. Grimme, C. Bannwarth, P. Shushkov, J. Chem. Theory Comput., 2017,
     13, 1989-2009. DOI: 10.1021/acs.jctc.7b00118
   for GFN0-xTB:
   * P. Pracht, E. Caldeweyher, S. Ehlert, S. Grimme, ChemRxiv, 2019, preprint.
     DOI: 10.26434/chemrxiv.8326202.v1
   for GFN-FF:
   * S. Spicher and S. Grimme, Angew. Chem. Int. Ed., 2020, 59, 15665-15673.
     DOI: 10.1002/anie.202004239
   
   for ALPB and GBSA implicit solvation:
   * S. Ehlert, M. Stahn, S. Spicher, S. Grimme, J. Chem. Theory Comput.,
     2021, 17, 4250-4261. DOI: 10.1021/acs.jctc.1c00471
   
   for DFT-D4:
   * E. Caldeweyher, C. Bannwarth and S. Grimme, J. Chem. Phys., 2017,
     147, 034112. DOI: 10.1063/1.4993215
   * E. Caldeweyher, S. Ehlert, A. Hansen, H. Neugebauer, S. Spicher,
     C. Bannwarth and S. Grimme, J. Chem. Phys., 2019, 150, 154122.
     DOI: 10.1063/1.5090222
   * E. Caldeweyher, J.-M. Mewes, S. Ehlert and S. Grimme, Phys. Chem. Chem. Phys.
     2020, 22, 8499-8512. DOI: 10.1039/D0CP00502A
   
   for sTDA-xTB:
   * S. Grimme and C. Bannwarth, J. Chem. Phys., 2016, 145, 054103.
     DOI: 10.1063/1.4959605
   
   in the mass-spec context:
   * V. Asgeirsson, C. Bauer and S. Grimme, Chem. Sci., 2017, 8, 4879.
     DOI: 10.1039/c7sc00601b
   * J. Koopman and S. Grimme, ACS Omega 2019, 4, 12, 15120-15133.
     DOI: 10.1021/acsomega.9b02011
   
   for metadynamics refer to:
   * S. Grimme, J. Chem. Theory Comput., 2019, 155, 2847-2862
     DOI: 10.1021/acs.jctc.9b00143
   
   for SPH calculations refer to:
   * S. Spicher and S. Grimme, J. Chem. Theory Comput., 2021, 17, 1701-1714
     DOI: 10.1021/acs.jctc.0c01306
   
   with help from (in alphabetical order)
   P. Atkinson, C. Bannwarth, F. Bohle, G. Brandenburg, E. Caldeweyher
   M. Checinski, S. Dohm, S. Ehlert, S. Ehrlich, I. Gerasimov, C. Hölzer
   A. Katbashev, J. Koopman, C. Lavigne, S. Lehtola, F. März, M. Müller,
   F. Musil, H. Neugebauer, J. Pisarek, C. Plett, P. Pracht, F. Pultar,
   J. Seibert, P. Shushkov, S. Spicher, M. Stahn, M. Steiner, T. Strunk,
   J. Stückrath, T. Rose, and J. Unsleber
   
 * started run on 2023/06/21 at 17:32:32.666     

           -------------------------------------------------
          |                Calculation Setup                |
           -------------------------------------------------

          program call               : /lustre/hpc/kemi/ree/PhD/git/ReactivityQM/dep/xtb-6.5.1/bin/xtb --gfn 1 /lustre/hpc/kemi/ree/PhD/git/ReactivityQM/calculations/R02methylcation/reac01prodN03/conf02/R02methylcation_reac01prodN03_conf02_gfn1.xyz --opt --vfukui --chrg 0 --uhf 0 --alpb DMSO
          hostname                   : node317
          coordinate file            : /lustre/hpc/kemi/ree/PhD/git/ReactivityQM/calculations/R02methylcation/reac01prodN03/conf02/R02methylcation_reac01prodN03_conf02_gfn1.xyz
          omp threads                :                     1

   ID    Z sym.   atoms
    1    6 C      1, 3, 5, 6, 8-11, 13, 15, 18, 19, 22, 24
    2    8 O      2, 4, 14, 20, 23, 25
    3    7 N      7, 12, 16, 17, 21
    4    1 H      26-42

           -------------------------------------------------
          |                 G F N 1 - x T B                 |
           -------------------------------------------------

        Reference                      10.1021/acs.jctc.7b00118
      * Hamiltonian:
        H0-scaling (s, p, d)           1.850000    2.250000    2.000000
        zeta-weighting                 0.000000
      * Dispersion:
        s8                             2.400000
        a1                             0.630000
        a2                             5.000000
        s9                             0.000000
      * Repulsion:
        kExp                           1.500000
        rExp                           1.000000
      * Coulomb:
        alpha                          2.000000
        third order                    atomic
        anisotropic                    false
      * Halogen bond correction:
        rad-scale                      1.300000
        damping                        0.440000

      * Solvation model:               ALPB
        Solvent                        DMSO
        Parameter file                 internal GFN1-xTB/ALPB
        Dielectric constant                4.6680E+01
        Reference state                gsolv [1 M gas/solution]
        Free energy shift                  7.6243E-03 Eh       4.7843E+00 kcal/mol
        Temperature                        2.9815E+02 K
        Density                            1.1000E+00 kg/L
        Solvent mass                       7.8130E+01 g/mol
        Interaction kernel             P16
        Born radius scaling (c1)           1.7672E+00
        Born radii integrator          GBOBC
        Born offset                        0.0000E+00 a0       0.0000E+00 AA
        H-bond correction              true
        Ion screening                  false
        Surface tension                    1.0000E-05 Eh       1.5569E+01 dyn/cm
        Grid points                               230 per atom

          ...................................................
          :                      SETUP                      :
          :.................................................:
          :  # basis functions                 134          :
          :  # atomic orbitals                 134          :
          :  # shells                           84          :
          :  # electrons                       134          :
          :  # halogen bonds                     0          :
          :  max. iterations                   250          :
          :  Hamiltonian                  GFN1-xTB          :
          :  restarted?                      false          :
          :  GBSA solvation                   true          :
          :  PC potential                    false          :
          :  electronic temp.          300.0000000     K    :
          :  accuracy                    1.0000000          :
          :  -> integral cutoff          0.2500000E+02      :
          :  -> integral neglect         0.1000000E-07      :
          :  -> SCF convergence          0.1000000E-05 Eh   :
          :  -> wf. convergence          0.2000000E-04 e    :
          :  Broyden damping             0.4000000          :
          ...................................................

 iter      E             dE          RMSdq      gap      omega  full diag
   1    -83.3691091 -0.833691E+02  0.844E+00    2.37       0.0  T
   2    -83.7284080 -0.359299E+00  0.508E+00    2.11       1.0  T
   3    -83.7156993  0.127087E-01  0.188E+00    2.20       1.0  T
   4    -83.7550514 -0.393521E-01  0.133E-01    2.09       1.0  T
   5    -83.7555632 -0.511801E-03  0.388E-02    2.14       1.0  T
   6    -83.7555833 -0.200657E-04  0.114E-02    2.14       1.3  T
   7    -83.7555851 -0.182789E-05  0.255E-03    2.15       6.1  T
   8    -83.7555852 -0.152769E-06  0.629E-04    2.15      24.5  T
   9    -83.7555852 -0.474384E-08  0.292E-04    2.15      52.8  T
  10    -83.7555852 -0.856872E-09  0.798E-05    2.15     193.4  T
  11    -83.7555852 -0.900968E-10  0.211E-05    2.15     730.4  T

   *** convergence criteria satisfied after 11 iterations ***

         #    Occupation            Energy/Eh            Energy/eV
      -------------------------------------------------------------
         1        2.0000           -0.8651248             -23.5412
       ...           ...                  ...                  ...
        61        2.0000           -0.4749203             -12.9232
        62        2.0000           -0.4640364             -12.6271
        63        2.0000           -0.4618291             -12.5670
        64        2.0000           -0.4552262             -12.3873
        65        2.0000           -0.4456778             -12.1275
        66        2.0000           -0.4442679             -12.0891
        67        2.0000           -0.4409372             -11.9985 (HOMO)
        68                         -0.3620217              -9.8511 (LUMO)
        69                         -0.3169546              -8.6248
        70                         -0.3061730              -8.3314
        71                         -0.2802633              -7.6264
        72                         -0.2595667              -7.0632
       ...                                ...                  ...
       134                          0.7566725              20.5901
      -------------------------------------------------------------
                  HL-Gap            0.0789155 Eh            2.1474 eV
             Fermi-level           -0.4014795 Eh          -10.9248 eV

 SCC (total)                   0 d,  0 h,  0 min,  0.172 sec
 SCC setup                      ...        0 min,  0.002 sec (  0.940%)
 Dispersion                     ...        0 min,  0.000 sec (  0.171%)
 classical contributions        ...        0 min,  0.000 sec (  0.062%)
 integral evaluation            ...        0 min,  0.037 sec ( 21.641%)
 iterations                     ...        0 min,  0.047 sec ( 27.554%)
 molecular gradient             ...        0 min,  0.084 sec ( 49.011%)
 printout                       ...        0 min,  0.001 sec (  0.588%)

         :::::::::::::::::::::::::::::::::::::::::::::::::::::
         ::                     SUMMARY                     ::
         :::::::::::::::::::::::::::::::::::::::::::::::::::::
         :: total energy             -82.986783631328 Eh    ::
         :: total w/o Gsasa/hb       -82.966570157771 Eh    ::
         :: gradient norm              0.113559516496 Eh/a0 ::
         :: HOMO-LUMO gap              2.147399664162 eV    ::
         ::.................................................::
         :: SCC energy               -83.755585244894 Eh    ::
         :: -> electrostatic           0.350882608371 Eh    ::
         :: -> Gsolv                  -0.052533274693 Eh    ::
         ::    -> Gelec               -0.032319801137 Eh    ::
         ::    -> Gsasa               -0.023782027227 Eh    ::
         ::    -> Ghb                 -0.004055725334 Eh    ::
         ::    -> Gshift               0.007624279005 Eh    ::
         :: repulsion energy           0.795393088685 Eh    ::
         :: dispersion energy         -0.026591475119 Eh    ::
         :: halogen bond corr.         0.000000000000 Eh    ::
         :: add. restraining           0.000000000000 Eh    ::
         :: total charge               0.000000000000 e     ::
         :::::::::::::::::::::::::::::::::::::::::::::::::::::

      ----------------------------------------------------------- 
     |                   =====================                   |
     |                        A N C O P T                        |
     |                   =====================                   |
     |               Approximate Normal Coordinate               |
     |                Rational Function Optimizer                |
      ----------------------------------------------------------- 

          ...................................................
          :                      SETUP                      :
          :.................................................:
          :   optimization level            normal          :
          :   max. optcycles                   200          :
          :   ANC micro-cycles                  20          :
          :   degrees of freedom               120          :
          :.................................................:
          :   RF solver                   davidson          :
          :   write xtbopt.log                true          :
          :   linear?                        false          :
          :   energy convergence         0.5000000E-05 Eh   :
          :   grad. convergence          0.1000000E-02 Eh/α :
          :   maximium RF displ.         1.0000000          :
          :   Hlow (freq-cutoff)         0.1000000E-01      :
          :   Hmax (freq-cutoff)         5.0000000          :
          :   S6 in model hess.         20.0000000          :
          ...................................................

generating ANC from model Hessian ...
Using Lindh-Hessian (1995)
 Shifting diagonal of input Hessian by   9.822501277984598E-003
 Lowest  eigenvalues of input Hessian
    0.000000    0.000000    0.000000    0.000000    0.000000    0.000000
    0.010000    0.010170    0.010448    0.010785    0.011561    0.012652
    0.012929    0.014001    0.014839    0.016264    0.016567    0.016898
 Highest eigenvalues
    2.109322    2.150396    2.251786    2.283337    2.348607    2.407595
 

........................................................................
.............................. CYCLE    1 ..............................
........................................................................
   1    -83.7555852 -0.837556E+02  0.112E-05    2.15       0.0  T
   2    -83.7555852 -0.110845E-11  0.439E-06    2.15    3513.3  T
   3    -83.7555852 -0.127898E-12  0.315E-06    2.15    4904.5  T
     SCC iter.                  ...        0 min,  0.012 sec
     gradient                   ...        0 min,  0.083 sec
 * total energy  :   -82.9867836 Eh     change       -0.7389644E-11 Eh
   gradient norm :     0.1135596 Eh/α   predicted     0.0000000E+00 (-100.00%)
   displ. norm   :     0.3032472 α      lambda       -0.1420656E-01
   maximum displ.:     0.1186001 α      in ANC's #26, #21, #23, ...

........................................................................
.............................. CYCLE    2 ..............................
........................................................................
   1    -83.7734569 -0.837735E+02  0.708E-02    2.28       0.0  T
   2    -83.7736810 -0.224030E-03  0.370E-02    2.30       1.0  T
   3    -83.7737124 -0.314507E-04  0.150E-02    2.29       1.0  T
   4    -83.7737126 -0.202096E-06  0.294E-03    2.29       5.3  T
   5    -83.7737127 -0.934493E-07  0.802E-04    2.29      19.2  T
   6    -83.7737127 -0.105650E-07  0.281E-04    2.29      54.9  T
   7    -83.7737127 -0.110981E-08  0.840E-05    2.29     183.7  T
   8    -83.7737127 -0.682547E-10  0.196E-05    2.29     789.2  T
     SCC iter.                  ...        0 min,  0.031 sec
     gradient                   ...        0 min,  0.084 sec
 * total energy  :   -82.9971115 Eh     change       -0.1032788E-01 Eh
   gradient norm :     0.0579401 Eh/α   predicted    -0.7765934E-02 ( -24.81%)
   displ. norm   :     0.3538794 α      lambda       -0.6835468E-02
   maximum displ.:     0.1219644 α      in ANC's #23, #21, #26, ...

........................................................................
.............................. CYCLE    3 ..............................
........................................................................
   1    -83.7856225 -0.837856E+02  0.662E-02    2.41       0.0  T
   2    -83.7858172 -0.194700E-03  0.344E-02    2.41       1.0  T
   3    -83.7858446 -0.273569E-04  0.137E-02    2.41       1.1  T
   4    -83.7858448 -0.219894E-06  0.332E-03    2.41       4.7  T
   5    -83.7858449 -0.918654E-07  0.783E-04    2.41      19.7  T
   6    -83.7858449 -0.100039E-07  0.259E-04    2.41      59.5  T
   7    -83.7858449 -0.869676E-09  0.884E-05    2.41     174.6  T
   8    -83.7858449 -0.771792E-10  0.204E-05    2.41     755.3  T
     SCC iter.                  ...        0 min,  0.031 sec
     gradient                   ...        0 min,  0.089 sec
 * total energy  :   -83.0012964 Eh     change       -0.4184920E-02 Eh
   gradient norm :     0.0169676 Eh/α   predicted    -0.3847333E-02 (  -8.07%)
   displ. norm   :     0.2439670 α      lambda       -0.1231407E-02
   maximum displ.:     0.0962325 α      in ANC's #8, #15, #6, ...

........................................................................
.............................. CYCLE    4 ..............................
........................................................................
   1    -83.7875751 -0.837876E+02  0.188E-02    2.44       0.0  T
   2    -83.7875889 -0.137454E-04  0.990E-03    2.45       1.6  T
   3    -83.7875907 -0.185553E-05  0.445E-03    2.45       3.5  T
   4    -83.7875908 -0.220384E-07  0.126E-03    2.45      12.3  T
   5    -83.7875908 -0.118943E-07  0.232E-04    2.45      66.5  T
   6    -83.7875908 -0.100074E-08  0.756E-05    2.45     204.2  T
   7    -83.7875908 -0.688942E-10  0.290E-05    2.45     532.7  T
     SCC iter.                  ...        0 min,  0.024 sec
     gradient                   ...        0 min,  0.085 sec
 * total energy  :   -83.0021895 Eh     change       -0.8930728E-03 Eh
   gradient norm :     0.0104757 Eh/α   predicted    -0.6524554E-03 ( -26.94%)
   displ. norm   :     0.3032142 α      lambda       -0.8709852E-03
   maximum displ.:     0.1322311 α      in ANC's #8, #3, #15, ...

........................................................................
.............................. CYCLE    5 ..............................
........................................................................
   1    -83.7882329 -0.837882E+02  0.139E-02    2.46       0.0  T
   2    -83.7882391 -0.622742E-05  0.620E-03    2.46       2.5  T
   3    -83.7882396 -0.468724E-06  0.328E-03    2.46       4.7  T
   4    -83.7882396 -0.224519E-07  0.113E-03    2.46      13.6  T
   5    -83.7882396 -0.871898E-08  0.166E-04    2.46      92.7  T
   6    -83.7882396 -0.747207E-09  0.410E-05    2.46     376.8  T
     SCC iter.                  ...        0 min,  0.019 sec
     gradient                   ...        0 min,  0.080 sec
 * total energy  :   -83.0028047 Eh     change       -0.6151972E-03 Eh
   gradient norm :     0.0098425 Eh/α   predicted    -0.4755320E-03 ( -22.70%)
   displ. norm   :     0.2937175 α      lambda       -0.5027961E-03
   maximum displ.:     0.1291150 α      in ANC's #8, #3, #2, ...

........................................................................
.............................. CYCLE    6 ..............................
........................................................................
   1    -83.7886561 -0.837887E+02  0.101E-02    2.46       0.0  T
   2    -83.7886594 -0.325448E-05  0.405E-03    2.46       3.8  T
   3    -83.7886595 -0.160238E-06  0.224E-03    2.46       6.9  T
   4    -83.7886596 -0.106109E-07  0.742E-04    2.46      20.8  T
   5    -83.7886596 -0.386548E-08  0.134E-04    2.46     115.4  T
   6    -83.7886596 -0.463572E-09  0.253E-05    2.46     610.4  T
     SCC iter.                  ...        0 min,  0.022 sec
     gradient                   ...        0 min,  0.081 sec
 * total energy  :   -83.0031722 Eh     change       -0.3674907E-03 Eh
   gradient norm :     0.0089217 Eh/α   predicted    -0.2730963E-03 ( -25.69%)
   displ. norm   :     0.2903916 α      lambda       -0.3558703E-03
   maximum displ.:     0.1410912 α      in ANC's #2, #3, #8, ...

........................................................................
.............................. CYCLE    7 ..............................
........................................................................
   1    -83.7894004 -0.837894E+02  0.733E-03    2.45       0.0  T
   2    -83.7894019 -0.147525E-05  0.374E-03    2.46       4.1  T
   3    -83.7894020 -0.106556E-06  0.195E-03    2.46       7.9  T
   4    -83.7894020 -0.655102E-08  0.540E-04    2.46      28.6  T
   5    -83.7894020 -0.200478E-08  0.823E-05    2.46     187.4  T
   6    -83.7894020 -0.147494E-09  0.208E-05    2.46     743.4  T
     SCC iter.                  ...        0 min,  0.022 sec
     gradient                   ...        0 min,  0.081 sec
 * total energy  :   -83.0034353 Eh     change       -0.2630735E-03 Eh
   gradient norm :     0.0063232 Eh/α   predicted    -0.1929561E-03 ( -26.65%)
   displ. norm   :     0.2710426 α      lambda       -0.2528043E-03
   maximum displ.:     0.1549362 α      in ANC's #2, #3, #8, ...

........................................................................
.............................. CYCLE    8 ..............................
........................................................................
   1    -83.7902029 -0.837902E+02  0.519E-03    2.45       0.0  T
   2    -83.7902035 -0.544323E-06  0.329E-03    2.45       4.7  T
   3    -83.7902035 -0.602581E-07  0.173E-03    2.45       8.9  T
   4    -83.7902035 -0.424035E-08  0.287E-04    2.45      53.8  T
   5    -83.7902035 -0.904706E-09  0.536E-05    2.45     287.9  T
   6    -83.7902035 -0.563176E-10  0.174E-05    2.45     885.1  T
     SCC iter.                  ...        0 min,  0.021 sec
     gradient                   ...        0 min,  0.081 sec
 * total energy  :   -83.0036274 Eh     change       -0.1921383E-03 Eh
   gradient norm :     0.0045187 Eh/α   predicted    -0.1356886E-03 ( -29.38%)
   displ. norm   :     0.2587831 α      lambda       -0.2004402E-03
   maximum displ.:     0.1639487 α      in ANC's #2, #3, #8, ...

........................................................................
.............................. CYCLE    9 ..............................
........................................................................
   1    -83.7909128 -0.837909E+02  0.529E-03    2.44       0.0  T
   2    -83.7909137 -0.894408E-06  0.272E-03    2.44       5.7  T
   3    -83.7909137 -0.631508E-07  0.146E-03    2.44      10.6  T
   4    -83.7909137 -0.317647E-08  0.408E-04    2.44      37.8  T
   5    -83.7909137 -0.158337E-08  0.860E-05    2.44     179.5  T
   6    -83.7909137 -0.168384E-09  0.171E-05    2.44     903.0  T
     SCC iter.                  ...        0 min,  0.022 sec
     gradient                   ...        0 min,  0.083 sec
 * total energy  :   -83.0037863 Eh     change       -0.1588572E-03 Eh
   gradient norm :     0.0046626 Eh/α   predicted    -0.1069322E-03 ( -32.69%)
   displ. norm   :     0.2621927 α      lambda       -0.1847026E-03
   maximum displ.:     0.1726645 α      in ANC's #2, #3, #8, ...

........................................................................
.............................. CYCLE   10 ..............................
........................................................................
   1    -83.7912338 -0.837912E+02  0.555E-03    2.45       0.0  T
   2    -83.7912351 -0.126332E-05  0.233E-03    2.45       6.6  T
   3    -83.7912352 -0.852008E-07  0.117E-03    2.45      13.1  T
   4    -83.7912352 -0.415254E-08  0.453E-04    2.45      34.1  T
   5    -83.7912352 -0.946159E-09  0.103E-04    2.45     149.4  T
   6    -83.7912352 -0.195357E-09  0.185E-05    2.45     834.2  T
     SCC iter.                  ...        0 min,  0.021 sec
     gradient                   ...        0 min,  0.082 sec
 * total energy  :   -83.0039352 Eh     change       -0.1489146E-03 Eh
   gradient norm :     0.0052370 Eh/α   predicted    -0.9870045E-04 ( -33.72%)
   displ. norm   :     0.2829636 α      lambda       -0.1798372E-03
   maximum displ.:     0.1883866 α      in ANC's #2, #3, #8, ...

........................................................................
.............................. CYCLE   11 ..............................
........................................................................
   1    -83.7912422 -0.837912E+02  0.486E-03    2.45       0.0  T
   2    -83.7912430 -0.854630E-06  0.225E-03    2.45       6.8  T
   3    -83.7912431 -0.761113E-07  0.111E-03    2.45      13.9  T
   4    -83.7912431 -0.354800E-08  0.365E-04    2.45      42.2  T
   5    -83.7912431 -0.695707E-09  0.877E-05    2.45     176.0  T
   6    -83.7912431 -0.125567E-09  0.187E-05    2.45     825.5  T
     SCC iter.                  ...        0 min,  0.022 sec
     gradient                   ...        0 min,  0.080 sec
 * total energy  :   -83.0040761 Eh     change       -0.1409420E-03 Eh
   gradient norm :     0.0051179 Eh/α   predicted    -0.9712410E-04 ( -31.09%)
   displ. norm   :     0.2673262 α      lambda       -0.1407000E-03
   maximum displ.:     0.1806377 α      in ANC's #2, #3, #8, ...

........................................................................
.............................. CYCLE   12 ..............................
........................................................................
   1    -83.7910551 -0.837911E+02  0.455E-03    2.46       0.0  T
   2    -83.7910558 -0.605723E-06  0.211E-03    2.46       7.3  T
   3    -83.7910558 -0.431195E-07  0.111E-03    2.46      13.9  T
   4    -83.7910558 -0.441547E-08  0.328E-04    2.46      47.1  T
   5    -83.7910558 -0.654879E-09  0.761E-05    2.46     202.7  T
   6    -83.7910558 -0.935643E-10  0.180E-05    2.46     855.3  T
     SCC iter.                  ...        0 min,  0.022 sec
     gradient                   ...        0 min,  0.081 sec
 * total energy  :   -83.0041818 Eh     change       -0.1057044E-03 Eh
   gradient norm :     0.0042230 Eh/α   predicted    -0.7537781E-04 ( -28.69%)
   displ. norm   :     0.2124131 α      lambda       -0.9355471E-04
   maximum displ.:     0.1487676 α      in ANC's #2, #3, #8, ...

........................................................................
.............................. CYCLE   13 ..............................
........................................................................
   1    -83.7915255 -0.837915E+02  0.402E-03    2.46       0.0  T
   2    -83.7915260 -0.495121E-06  0.166E-03    2.46       9.3  T
   3    -83.7915260 -0.299176E-07  0.910E-04    2.46      17.0  T
   4    -83.7915260 -0.195753E-08  0.278E-04    2.46      55.6  T
   5    -83.7915260 -0.737799E-09  0.623E-05    2.46     247.6  T
   6    -83.7915260 -0.612488E-10  0.183E-05    2.46     843.2  T
     SCC iter.                  ...        0 min,  0.022 sec
     gradient                   ...        0 min,  0.082 sec
 * total energy  :   -83.0042516 Eh     change       -0.6974225E-04 Eh
   gradient norm :     0.0030600 Eh/α   predicted    -0.4889084E-04 ( -29.90%)
   displ. norm   :     0.1938353 α      lambda       -0.6808083E-04
   maximum displ.:     0.1380520 α      in ANC's #2, #3, #4, ...

........................................................................
.............................. CYCLE   14 ..............................
........................................................................
   1    -83.7912547 -0.837913E+02  0.474E-03    2.46       0.0  T
   2    -83.7912557 -0.933620E-06  0.153E-03    2.46      10.1  T
   3    -83.7912557 -0.324925E-07  0.841E-04    2.46      18.4  T
   4    -83.7912557 -0.113585E-08  0.322E-04    2.46      47.9  T
   5    -83.7912557 -0.801251E-09  0.625E-05    2.46     247.0  T
   6    -83.7912557 -0.652562E-10  0.163E-05    2.46     947.2  T
     SCC iter.                  ...        0 min,  0.022 sec
     gradient                   ...        0 min,  0.081 sec
 * total energy  :   -83.0043028 Eh     change       -0.5121826E-04 Eh
   gradient norm :     0.0027325 Eh/α   predicted    -0.3532193E-04 ( -31.04%)
   displ. norm   :     0.2015727 α      lambda       -0.6408395E-04
   maximum displ.:     0.1469756 α      in ANC's #2, #4, #3, ...

........................................................................
.............................. CYCLE   15 ..............................
........................................................................
   1    -83.7920126 -0.837920E+02  0.402E-03    2.46       0.0  T
   2    -83.7920131 -0.547299E-06  0.149E-03    2.46      10.3  T
   3    -83.7920132 -0.342638E-07  0.805E-04    2.46      19.2  T
   4    -83.7920132 -0.173421E-08  0.303E-04    2.46      50.9  T
   5    -83.7920132 -0.609077E-09  0.659E-05    2.46     234.3  T
   6    -83.7920132 -0.774918E-10  0.166E-05    2.46     932.1  T
     SCC iter.                  ...        0 min,  0.021 sec
     gradient                   ...        0 min,  0.081 sec
 * total energy  :   -83.0043487 Eh     change       -0.4591941E-04 Eh
   gradient norm :     0.0032636 Eh/α   predicted    -0.3334458E-04 ( -27.38%)
   displ. norm   :     0.1921178 α      lambda       -0.5157115E-04
   maximum displ.:     0.1391826 α      in ANC's #2, #4, #5, ...

........................................................................
.............................. CYCLE   16 ..............................
........................................................................
   1    -83.7914263 -0.837914E+02  0.285E-03    2.46       0.0  T
   2    -83.7914267 -0.398914E-06  0.112E-03    2.46      13.7  T
   3    -83.7914268 -0.190478E-07  0.523E-04    2.46      29.5  T
   4    -83.7914268 -0.383764E-09  0.239E-04    2.46      64.6  T
   5    -83.7914268 -0.343661E-09  0.426E-05    2.46     362.5  T
   6    -83.7914268 -0.112124E-10  0.111E-05    2.46    1388.3  T
     SCC iter.                  ...        0 min,  0.022 sec
     gradient                   ...        0 min,  0.081 sec
 * total energy  :   -83.0043879 Eh     change       -0.3923715E-04 Eh
   gradient norm :     0.0033864 Eh/α   predicted    -0.2674233E-04 ( -31.84%)
   displ. norm   :     0.2002447 α      lambda       -0.5603167E-04
   maximum displ.:     0.1467450 α      in ANC's #2, #4, #11, ...

........................................................................
.............................. CYCLE   17 ..............................
........................................................................
   1    -83.7919576 -0.837920E+02  0.226E-03    2.46       0.0  T
   2    -83.7919577 -0.123081E-06  0.117E-03    2.46      13.2  T
   3    -83.7919577 -0.924132E-08  0.587E-04    2.46      26.3  T
   4    -83.7919577 -0.134995E-08  0.167E-04    2.46      92.6  T
   5    -83.7919577 -0.198639E-09  0.363E-05    2.46     425.6  T
     SCC iter.                  ...        0 min,  0.018 sec
     gradient                   ...        0 min,  0.081 sec
 * total energy  :   -83.0044295 Eh     change       -0.4159669E-04 Eh
   gradient norm :     0.0027857 Eh/α   predicted    -0.2914139E-04 ( -29.94%)
   displ. norm   :     0.2146296 α      lambda       -0.4669733E-04
   maximum displ.:     0.1557420 α      in ANC's #2, #4, #11, ...

........................................................................
.............................. CYCLE   18 ..............................
........................................................................
   1    -83.7913480 -0.837913E+02  0.317E-03    2.46       0.0  T
   2    -83.7913483 -0.266395E-06  0.140E-03    2.46      11.0  T
   3    -83.7913483 -0.123571E-07  0.705E-04    2.46      21.9  T
   4    -83.7913483 -0.117373E-08  0.195E-04    2.46      79.3  T
   5    -83.7913483 -0.330843E-09  0.586E-05    2.46     263.1  T
     SCC iter.                  ...        0 min,  0.018 sec
     gradient                   ...        0 min,  0.081 sec
 * total energy  :   -83.0044606 Eh     change       -0.3109665E-04 Eh
   gradient norm :     0.0029302 Eh/α   predicted    -0.2442660E-04 ( -21.45%)
   displ. norm   :     0.1647783 α      lambda       -0.4460135E-04
   maximum displ.:     0.1221615 α      in ANC's #2, #4, #1, ...

........................................................................
.............................. CYCLE   19 ..............................
........................................................................
   1    -83.7922952 -0.837923E+02  0.439E-03    2.46       0.0  T
   2    -83.7922957 -0.527338E-06  0.194E-03    2.46       8.0  T
   3    -83.7922957 -0.289949E-07  0.105E-03    2.46      14.7  T
   4    -83.7922957 -0.229102E-08  0.301E-04    2.46      51.2  T
   5    -83.7922957 -0.884256E-09  0.681E-05    2.46     226.5  T
   6    -83.7922957 -0.832046E-10  0.139E-05    2.46    1111.5  T
     SCC iter.                  ...        0 min,  0.021 sec
     gradient                   ...        0 min,  0.081 sec
 * total energy  :   -83.0044847 Eh     change       -0.2410283E-04 Eh
   gradient norm :     0.0024202 Eh/α   predicted    -0.2290834E-04 (  -4.96%)
   displ. norm   :     0.1168598 α      lambda       -0.2269269E-04
   maximum displ.:     0.0856275 α      in ANC's #2, #4, #1, ...

........................................................................
.............................. CYCLE   20 ..............................
........................................................................
   1    -83.7921667 -0.837922E+02  0.187E-03    2.46       0.0  T
   2    -83.7921668 -0.698889E-07  0.102E-03    2.46      15.1  T
   3    -83.7921668 -0.748956E-08  0.522E-04    2.46      29.5  T
   4    -83.7921668 -0.500449E-09  0.922E-05    2.46     167.4  T
   5    -83.7921668 -0.806182E-10  0.256E-05    2.46     601.7  T
     SCC iter.                  ...        0 min,  0.018 sec
     gradient                   ...        0 min,  0.081 sec
 * total energy  :   -83.0045030 Eh     change       -0.1828562E-04 Eh
   gradient norm :     0.0022361 Eh/α   predicted    -0.1150238E-04 ( -37.10%)
   displ. norm   :     0.1935587 α      lambda       -0.4347225E-04
   maximum displ.:     0.1373942 α      in ANC's #2, #1, #4, ...
 * RMSD in coord.:     0.5780171 α      energy gain  -0.1771939E-01 Eh

generating ANC from model Hessian ...
Using Lindh-Hessian (1995)
 Shifting diagonal of input Hessian by   9.824781060678430E-003
 Lowest  eigenvalues of input Hessian
    0.000000    0.000000    0.000000    0.000000    0.000000    0.000000
    0.010000    0.010233    0.010463    0.010810    0.011701    0.012656
    0.012974    0.013773    0.014636    0.016388    0.016623    0.017575
 Highest eigenvalues
    2.148326    2.186522    2.232198    2.391757    2.408126    2.412303
 

........................................................................
.............................. CYCLE   21 ..............................
........................................................................
   1    -83.7921800 -0.837922E+02  0.263E-03    2.46       0.0  T
   2    -83.7921802 -0.223416E-06  0.150E-03    2.46      10.3  T
   3    -83.7921803 -0.273766E-07  0.735E-04    2.46      21.0  T
   4    -83.7921803 -0.387757E-09  0.148E-04    2.46     104.0  T
   5    -83.7921803 -0.230713E-09  0.384E-05    2.46     401.8  T
     SCC iter.                  ...        0 min,  0.018 sec
     gradient                   ...        0 min,  0.082 sec
 * total energy  :   -83.0045326 Eh     change       -0.2953925E-04 Eh
   gradient norm :     0.0025744 Eh/α   predicted     0.0000000E+00 (-100.00%)
   displ. norm   :     0.0210700 α      lambda       -0.1284874E-04
   maximum displ.:     0.0113884 α      in ANC's #1, #11, #7, ...

........................................................................
.............................. CYCLE   22 ..............................
........................................................................
   1    -83.7923574 -0.837924E+02  0.170E-03    2.46       0.0  T
   2    -83.7923575 -0.597466E-07  0.870E-04    2.46      17.7  T
   3    -83.7923575 -0.359566E-08  0.458E-04    2.46      33.7  T
   4    -83.7923575 -0.330871E-09  0.106E-04    2.46     145.3  T
   5    -83.7923575 -0.130115E-09  0.195E-05    2.46     792.7  T
     SCC iter.                  ...        0 min,  0.018 sec
     gradient                   ...        0 min,  0.088 sec
 * total energy  :   -83.0045441 Eh     change       -0.1154739E-04 Eh
   gradient norm :     0.0012699 Eh/α   predicted    -0.7405734E-05 ( -35.87%)
   displ. norm   :     0.0758205 α      lambda       -0.1836831E-04
   maximum displ.:     0.0424377 α      in ANC's #1, #11, #7, ...

........................................................................
.............................. CYCLE   23 ..............................
........................................................................
   1    -83.7925698 -0.837926E+02  0.382E-03    2.45       0.0  T
   2    -83.7925703 -0.467285E-06  0.181E-03    2.46       8.5  T
   3    -83.7925704 -0.334712E-07  0.935E-04    2.46      16.5  T
   4    -83.7925704 -0.805372E-09  0.301E-04    2.46      51.2  T
   5    -83.7925704 -0.685958E-09  0.461E-05    2.46     334.7  T
   6    -83.7925704 -0.418083E-10  0.935E-06    2.46    1651.0  T
     SCC iter.                  ...        0 min,  0.021 sec
     gradient                   ...        0 min,  0.081 sec
 * total energy  :   -83.0045579 Eh     change       -0.1381225E-04 Eh
   gradient norm :     0.0019007 Eh/α   predicted    -0.9207876E-05 ( -33.34%)
   displ. norm   :     0.0391443 α      lambda       -0.6296469E-05
   maximum displ.:     0.0241931 α      in ANC's #1, #3, #11, ...

........................................................................
.............................. CYCLE   24 ..............................
........................................................................
   1    -83.7924270 -0.837924E+02  0.101E-03    2.45       0.0  T
   2    -83.7924270 -0.222757E-07  0.499E-04    2.45      30.9  T
   3    -83.7924270 -0.166433E-08  0.253E-04    2.45      61.1  T
   4    -83.7924270 -0.315723E-09  0.629E-05    2.45     245.4  T
   5    -83.7924270 -0.212168E-10  0.149E-05    2.45    1037.5  T
     SCC iter.                  ...        0 min,  0.018 sec
     gradient                   ...        0 min,  0.081 sec
 * total energy  :   -83.0045665 Eh     change       -0.8630363E-05 Eh
   gradient norm :     0.0013987 Eh/α   predicted    -0.3357430E-05 ( -61.10%)
   displ. norm   :     0.1133514 α      lambda       -0.1605165E-04
   maximum displ.:     0.0689986 α      in ANC's #1, #3, #10, ...

........................................................................
.............................. CYCLE   25 ..............................
........................................................................
   1    -83.7920899 -0.837921E+02  0.213E-03    2.45       0.0  T
   2    -83.7920900 -0.908104E-07  0.107E-03    2.46      14.4  T
   3    -83.7920900 -0.334322E-08  0.510E-04    2.45      30.3  T
   4    -83.7920900 -0.104446E-08  0.134E-04    2.45     115.3  T
   5    -83.7920900 -0.170630E-09  0.312E-05    2.45     494.8  T
     SCC iter.                  ...        0 min,  0.018 sec
     gradient                   ...        0 min,  0.081 sec
 * total energy  :   -83.0045827 Eh     change       -0.1616903E-04 Eh
   gradient norm :     0.0011762 Eh/α   predicted    -0.8088875E-05 ( -49.97%)
   displ. norm   :     0.0980423 α      lambda       -0.8575190E-05
   maximum displ.:     0.0621752 α      in ANC's #1, #3, #10, ...

........................................................................
.............................. CYCLE   26 ..............................
........................................................................
   1    -83.7920159 -0.837920E+02  0.136E-03    2.45       0.0  T
   2    -83.7920159 -0.688917E-07  0.475E-04    2.45      32.5  T
   3    -83.7920159 -0.214527E-08  0.248E-04    2.45      62.3  T
   4    -83.7920159 -0.182666E-09  0.906E-05    2.45     170.4  T
   5    -83.7920159 -0.574829E-10  0.205E-05    2.45     752.3  T
     SCC iter.                  ...        0 min,  0.018 sec
     gradient                   ...        0 min,  0.081 sec
 * total energy  :   -83.0045918 Eh     change       -0.9054875E-05 Eh
   gradient norm :     0.0013656 Eh/α   predicted    -0.4306191E-05 ( -52.44%)
   displ. norm   :     0.0878118 α      lambda       -0.7509450E-05
   maximum displ.:     0.0573848 α      in ANC's #1, #3, #10, ...

........................................................................
.............................. CYCLE   27 ..............................
........................................................................
   1    -83.7921918 -0.837922E+02  0.107E-03    2.45       0.0  T
   2    -83.7921919 -0.344041E-07  0.415E-04    2.45      37.2  T
   3    -83.7921919 -0.170984E-08  0.214E-04    2.45      72.2  T
   4    -83.7921919 -0.144240E-09  0.711E-05    2.45     217.2  T
   5    -83.7921919 -0.441247E-10  0.160E-05    2.45     961.6  T
     SCC iter.                  ...        0 min,  0.018 sec
     gradient                   ...        0 min,  0.081 sec
 * total energy  :   -83.0046008 Eh     change       -0.9028724E-05 Eh
   gradient norm :     0.0010483 Eh/α   predicted    -0.3772854E-05 ( -58.21%)
   displ. norm   :     0.1067642 α      lambda       -0.8811099E-05
   maximum displ.:     0.0725441 α      in ANC's #1, #3, #10, ...

........................................................................
.............................. CYCLE   28 ..............................
........................................................................
   1    -83.7923665 -0.837924E+02  0.140E-03    2.45       0.0  T
   2    -83.7923665 -0.419319E-07  0.608E-04    2.45      25.4  T
   3    -83.7923665 -0.232359E-08  0.312E-04    2.45      49.5  T
   4    -83.7923665 -0.370378E-09  0.898E-05    2.45     171.9  T
   5    -83.7923665 -0.713385E-10  0.199E-05    2.45     776.7  T
     SCC iter.                  ...        0 min,  0.018 sec
     gradient                   ...        0 min,  0.081 sec
 * total energy  :   -83.0046106 Eh     change       -0.9825045E-05 Eh
   gradient norm :     0.0005690 Eh/α   predicted    -0.4429110E-05 ( -54.92%)
   displ. norm   :     0.0989745 α      lambda       -0.5639248E-05
   maximum displ.:     0.0688660 α      in ANC's #1, #3, #10, ...

........................................................................
.............................. CYCLE   29 ..............................
........................................................................
   1    -83.7923820 -0.837924E+02  0.827E-04    2.45       0.0  T
   2    -83.7923820 -0.149689E-07  0.344E-04    2.45      44.8  T
   3    -83.7923820 -0.908159E-09  0.167E-04    2.45      92.6  T
   4    -83.7923820 -0.204352E-09  0.529E-05    2.45     291.8  T
     SCC iter.                  ...        0 min,  0.014 sec
     gradient                   ...        0 min,  0.081 sec
 * total energy  :   -83.0046172 Eh     change       -0.6613977E-05 Eh
   gradient norm :     0.0006087 Eh/α   predicted    -0.2834012E-05 ( -57.15%)
   displ. norm   :     0.0886305 α      lambda       -0.4634437E-05
   maximum displ.:     0.0633394 α      in ANC's #1, #3, #5, ...

........................................................................
.............................. CYCLE   30 ..............................
........................................................................
   1    -83.7924369 -0.837924E+02  0.713E-04    2.45       0.0  T
   2    -83.7924369 -0.171265E-07  0.345E-04    2.45      44.8  T
   3    -83.7924369 -0.195811E-08  0.157E-04    2.45      98.6  T
   4    -83.7924369 -0.108940E-09  0.481E-05    2.45     321.0  T
     SCC iter.                  ...        0 min,  0.014 sec
     gradient                   ...        0 min,  0.081 sec
 * total energy  :   -83.0046229 Eh     change       -0.5673402E-05 Eh
   gradient norm :     0.0004962 Eh/α   predicted    -0.2333042E-05 ( -58.88%)
   displ. norm   :     0.0825999 α      lambda       -0.4429319E-05
   maximum displ.:     0.0601451 α      in ANC's #1, #3, #5, ...

........................................................................
.............................. CYCLE   31 ..............................
........................................................................
   1    -83.7924146 -0.837924E+02  0.702E-04    2.45       0.0  T
   2    -83.7924146 -0.173504E-07  0.350E-04    2.45      44.0  T
   3    -83.7924146 -0.224367E-08  0.148E-04    2.45     104.5  T
   4    -83.7924146 -0.611493E-10  0.439E-05    2.45     351.5  T
     SCC iter.                  ...        0 min,  0.014 sec
     gradient                   ...        0 min,  0.081 sec
 * total energy  :   -83.0046285 Eh     change       -0.5576967E-05 Eh
   gradient norm :     0.0003511 Eh/α   predicted    -0.2221870E-05 ( -60.16%)
   displ. norm   :     0.0987042 α      lambda       -0.5403429E-05
   maximum displ.:     0.0716059 α      in ANC's #1, #3, #11, ...

........................................................................
.............................. CYCLE   32 ..............................
........................................................................
   1    -83.7923498 -0.837923E+02  0.846E-04    2.45       0.0  T
   2    -83.7923499 -0.214312E-07  0.412E-04    2.45      37.4  T
   3    -83.7923499 -0.246955E-08  0.185E-04    2.45      83.3  T
   4    -83.7923499 -0.998313E-10  0.526E-05    2.45     293.3  T
     SCC iter.                  ...        0 min,  0.015 sec
     gradient                   ...        0 min,  0.080 sec
 * total energy  :   -83.0046353 Eh     change       -0.6835245E-05 Eh
   gradient norm :     0.0005281 Eh/α   predicted    -0.2714452E-05 ( -60.29%)
   displ. norm   :     0.1278962 α      lambda       -0.7092677E-05
   maximum displ.:     0.0918110 α      in ANC's #1, #11, #3, ...

........................................................................
.............................. CYCLE   33 ..............................
........................................................................
   1    -83.7922162 -0.837922E+02  0.107E-03    2.45       0.0  T
   2    -83.7922163 -0.293156E-07  0.446E-04    2.45      34.6  T
   3    -83.7922163 -0.203600E-08  0.223E-04    2.45      69.3  T
   4    -83.7922163 -0.248832E-09  0.597E-05    2.45     258.5  T
   5    -83.7922163 -0.236469E-10  0.170E-05    2.45     908.8  T
     SCC iter.                  ...        0 min,  0.018 sec
     gradient                   ...        0 min,  0.081 sec
 * total energy  :   -83.0046438 Eh     change       -0.8508146E-05 Eh
   gradient norm :     0.0009055 Eh/α   predicted    -0.3573048E-05 ( -58.00%)
   displ. norm   :     0.1267807 α      lambda       -0.7177963E-05
   maximum displ.:     0.0895595 α      in ANC's #1, #8, #11, ...

........................................................................
.............................. CYCLE   34 ..............................
........................................................................
   1    -83.7921205 -0.837921E+02  0.106E-03    2.45       0.0  T
   2    -83.7921205 -0.397626E-07  0.399E-04    2.45      38.6  T
   3    -83.7921205 -0.224355E-08  0.195E-04    2.45      79.3  T
   4    -83.7921205 -0.277325E-09  0.602E-05    2.45     256.3  T
     SCC iter.                  ...        0 min,  0.015 sec
     gradient                   ...        0 min,  0.065 sec
 * total energy  :   -83.0046520 Eh     change       -0.8216814E-05 Eh
   gradient norm :     0.0010578 Eh/α   predicted    -0.3615339E-05 ( -56.00%)
   displ. norm   :     0.1264161 α      lambda       -0.8162348E-05
   maximum displ.:     0.0884367 α      in ANC's #1, #8, #11, ...

........................................................................
.............................. CYCLE   35 ..............................
........................................................................
   1    -83.7921154 -0.837921E+02  0.112E-03    2.45       0.0  T
   2    -83.7921154 -0.538317E-07  0.460E-04    2.45      33.5  T
   3    -83.7921154 -0.429013E-08  0.213E-04    2.45      72.6  T
   4    -83.7921154 -0.330161E-09  0.720E-05    2.45     214.4  T
   5    -83.7921154 -0.963496E-11  0.191E-05    2.45     809.3  T
     SCC iter.                  ...        0 min,  0.019 sec
     gradient                   ...        0 min,  0.086 sec
 * total energy  :   -83.0046624 Eh     change       -0.1030191E-04 Eh
   gradient norm :     0.0009766 Eh/α   predicted    -0.4113472E-05 ( -60.07%)
   displ. norm   :     0.1582138 α      lambda       -0.1101159E-04
   maximum displ.:     0.1089445 α      in ANC's #1, #8, #2, ...

........................................................................
.............................. CYCLE   36 ..............................
........................................................................
   1    -83.7921046 -0.837921E+02  0.154E-03    2.45       0.0  T
   2    -83.7921047 -0.115517E-06  0.678E-04    2.45      22.8  T
   3    -83.7921047 -0.113604E-07  0.284E-04    2.45      54.4  T
   4    -83.7921047 -0.487574E-09  0.104E-04    2.45     148.5  T
   5    -83.7921047 -0.187583E-10  0.258E-05    2.45     597.8  T
     SCC iter.                  ...        0 min,  0.019 sec
     gradient                   ...        0 min,  0.085 sec
 * total energy  :   -83.0046728 Eh     change       -0.1045795E-04 Eh
   gradient norm :     0.0007619 Eh/α   predicted    -0.5569597E-05 ( -46.74%)
   displ. norm   :     0.0531559 α      lambda       -0.4621758E-05
   maximum displ.:     0.0349636 α      in ANC's #1, #8, #2, ...

........................................................................
.............................. CYCLE   37 ..............................
........................................................................
   1    -83.7925924 -0.837926E+02  0.105E-03    2.45       0.0  T
   2    -83.7925925 -0.216173E-07  0.544E-04    2.45      28.4  T
   3    -83.7925925 -0.136610E-08  0.273E-04    2.45      56.6  T
   4    -83.7925925 -0.330303E-09  0.641E-05    2.45     240.9  T
   5    -83.7925925 -0.293454E-10  0.113E-05    2.45    1361.1  T
     SCC iter.                  ...        0 min,  0.019 sec
     gradient                   ...        0 min,  0.085 sec
 * total energy  :   -83.0046777 Eh     change       -0.4850431E-05 Eh
   gradient norm :     0.0004176 Eh/α   predicted    -0.2316586E-05 ( -52.24%)
   displ. norm   :     0.0721834 α      lambda       -0.4734734E-05
   maximum displ.:     0.0476034 α      in ANC's #1, #8, #2, ...

   *** GEOMETRY OPTIMIZATION CONVERGED AFTER 37 ITERATIONS ***

------------------------------------------------------------------------
 total energy gain   :        -0.0178940 Eh      -11.2287 kcal/mol
 total RMSD          :         0.6511840 a0        0.3446 Å
 total power (kW/mol):        -1.2697504 (step)   -8.9241 (real)
------------------------------------------------------------------------

 ANCopt (total)                0 d,  0 h,  0 min,  5.264 sec
 optimizer setup                ...        0 min,  0.001 sec (  0.014%)
 model hessian                  ...        0 min,  0.059 sec (  1.126%)
 ANC generation                 ...        0 min,  0.005 sec (  0.091%)
 coordinate transformation      ...        0 min,  0.001 sec (  0.022%)
 single point calculation       ...        0 min,  5.177 sec ( 98.343%)
 optimization log               ...        0 min,  0.011 sec (  0.206%)
 hessian update                 ...        0 min,  0.001 sec (  0.021%)
 rational function              ...        0 min,  0.005 sec (  0.104%)

================
 final structure:
================
42
 xtb: 6.5.1 (579679a)
C            2.75263494350333        2.05855740226249        2.38744540279017
O            2.48798605163179        1.14342363819358        1.31019042481441
C            2.45478900967361        1.65266450977802        0.09441392399182
O            2.65816361471684        2.80193862320625       -0.18452180946080
C            2.13870539998044        0.56398650270685       -0.97092658728487
C            1.92113358196240        1.24077516061015       -2.32475587698768
N            0.92139485030416       -0.09107751645211       -0.54873309796173
C            0.94365615385145       -1.18088959548977        0.09829342144436
C           -0.35196959241728       -1.82445735904999        0.55448585753641
C           -0.51770430330628       -3.18745028834352       -0.13324296697410
C           -0.36142950439202       -1.96229254416140        2.08375056380944
N           -1.42893685476628       -0.92874290542360        0.14305302464787
C           -2.73164313948429       -1.17502501537518        0.37120059690404
O           -3.18053438903071       -2.17547613745244        0.90907695505663
C           -3.61732683130760       -0.08034391109539       -0.10161191187118
N           -4.91009306457495       -0.02615953830156       -0.01736987468473
N           -5.29046242959242        1.16670621649788       -0.55484719224872
C           -4.20631512629174        1.76851074579136       -0.93319656913209
C           -4.08741727436612        3.09885312407489       -1.56850088174708
O           -3.11126674286645        1.03282219510438       -0.67661696652169
N            2.10757541517194       -1.86122912601730        0.42687765664420
C            3.34973453128265       -1.51879420138549       -0.02001450543761
O            4.34624389231964       -2.12486890157552        0.29945438725400
C            3.36360888215451       -0.32930319367262       -0.98676170716832
O            4.31520554907570       -0.11119407862416       -1.68949969196101
H            3.73313383758199        2.51813485701527        2.25041830868650
H            1.98391630880423        2.83242108180583        2.40884022919893
H            2.72827467508035        1.47033030743972        3.30115843073037
H            1.09737204974506        1.94603350792759       -2.24711031058475
H            1.68353229323424        0.49056782105789       -3.07551762109962
H            2.82563002357090        1.77219193120737       -2.61560574730106
H           -1.42938765025376       -3.66806176951809        0.21706513594568
H           -0.57532007269372       -3.05335073422867       -1.21216940746362
H            0.32956610588757       -3.82787652747625        0.10207545755194
H           -1.30983649531388       -2.38859839119450        2.40608740212682
H           -0.23345212783028       -0.98409919830283        2.54398749678382
H            0.44261823882912       -2.61850901063020        2.40886501402062
H           -1.14834438180081       -0.06570508364334       -0.30512882180711
H           -3.59479685136025        3.00808740972713       -2.53601227680283
H           -5.07690258983504        3.52963942640810       -1.70124918635808
H           -3.48412398506520        3.75651129037679       -0.94322838126727
H            2.06238699818324       -2.66864872378286        1.02988170217977
 
 Bond Distances (Angstroems)
 ---------------------------
C1-O2=1.4380         C1-H26=1.0915        C1-H27=1.0910        C1-H28=1.0870        O2-C1=1.4380         O2-C3=1.3185         
C3-O2=1.3185         C3-O4=1.2000         C3-C5=1.5557         O4-C3=1.2000         C5-C3=1.5557         C5-C6=1.5291         
C5-N7=1.4454         C5-C24=1.5161        C6-C5=1.5291         C6-H29=1.0872        C6-H30=1.0876        C6-H31=1.0886        
N7-C5=1.4454         N7-C8=1.2676         C8-N7=1.2676         C8-C9=1.5169         C8-N21=1.3876        C9-C8=1.5169         
C9-C10=1.5356        C9-C11=1.5355        C9-N12=1.4599        C10-C9=1.5356        C10-H32=1.0885       C10-H33=1.0888       
C10-H34=1.0878       C11-C9=1.5355        C11-H35=1.0886       C11-H36=1.0886       C11-H37=1.0876       N12-C9=1.4599        
N12-C13=1.3453       N12-H38=1.0121       C13-N12=1.3453       C13-O14=1.2214       C13-C15=1.4854       O14-C13=1.2214       
C15-C13=1.4854       C15-N16=1.2966       C15-O20=1.3512       N16-C15=1.2966       N16-N17=1.3625       N17-N16=1.3625       
N17-C18=1.2964       C18-N17=1.2964       C18-C19=1.4790       C18-O20=1.3440       C19-C18=1.4790       C19-H39=1.0895       
C19-H40=1.0873       C19-H41=1.0897       O20-C15=1.3512       O20-C18=1.3440       N21-C8=1.3876        N21-C22=1.3638       
N21-H42=1.0088       C22-N21=1.3638       C22-O23=1.2093       C22-C24=1.5329       O23-C22=1.2093       C24-C5=1.5161        
C24-C22=1.5329       C24-O25=1.2029       O25-C24=1.2029       H26-C1=1.0915        H27-C1=1.0910        H28-C1=1.0870        
H29-C6=1.0872        H30-C6=1.0876        H31-C6=1.0886        H32-C10=1.0885       H33-C10=1.0888       H34-C10=1.0878       
H35-C11=1.0886       H36-C11=1.0886       H37-C11=1.0876       H38-N12=1.0121       H39-C19=1.0895       H40-C19=1.0873       
H41-C19=1.0897       H42-N21=1.0088       
 C  H  Rav=1.0886 sigma=0.0013  Rmin=1.0870  Rmax=1.0915    15
 C  C  Rav=1.5207 sigma=0.0233  Rmin=1.4790  Rmax=1.5557     9
 N  H  Rav=1.0104 sigma=0.0017  Rmin=1.0088  Rmax=1.0121     2
 N  C  Rav=1.3578 sigma=0.0660  Rmin=1.2676  Rmax=1.4599     8
 N  N  Rav=1.3625 sigma=0.0000  Rmin=1.3625  Rmax=1.3625     1
 O  C  Rav=1.2857 sigma=0.0838  Rmin=1.2000  Rmax=1.4380     8
 
 selected bond angles (degree)
 --------------------
H26-C1-O2=109.83               H27-C1-O2=109.66               H27-C1-H26=109.68              H28-C1-O2=106.33               
H28-C1-H26=110.70              H28-C1-H27=110.58              C3-O2-C1=116.72                O4-C3-O2=125.45                
C5-C3-O2=111.49                C5-C3-O4=123.06                C6-C5-C3=108.99                N7-C5-C3=106.75                
N7-C5-C6=109.84                C24-C5-C3=104.79               C24-C5-C6=111.50               C24-C5-N7=114.61               
H29-C6-C5=109.37               H30-C6-C5=109.69               H30-C6-H29=109.34              H31-C6-C5=109.53               
H31-C6-H29=109.39              H31-C6-H30=109.50              C8-N7-C5=121.60                C9-C8-N7=120.22                
N21-C8-N7=123.86               N21-C8-C9=115.93               C10-C9-C8=109.52               C11-C9-C8=110.05               
C11-C9-C10=111.45              N12-C9-C8=106.56               N12-C9-C10=109.80              N12-C9-C11=109.34              
H32-C10-C9=109.76              H33-C10-C9=109.89              H33-C10-H32=109.21             H34-C10-C9=109.97              
H34-C10-H32=108.83             H34-C10-H33=109.15             
 
 selected dihedral angles (degree)
 ---------------------------------
C3-O2-C1-H26=299.07           C3-O2-C1-H27= 59.66           C3-O2-C1-H28=179.25           O4-C3-O2-C1=  1.91            
C5-C3-O2-C1=180.88            C6-C5-C3-O2=172.18            C6-C5-C3-O4=351.18            N7-C5-C3-O2= 53.60            
N7-C5-C3-O4=232.60            C24-C5-C3-O2=291.64           C24-C5-C3-O4=110.64           H29-C6-C5-C3=300.81           
H29-C6-C5-N7= 57.44           H29-C6-C5-C24=185.61          H30-C6-C5-C3=180.89           H30-C6-C5-N7=297.53           
H30-C6-C5-C24= 65.69          H31-C6-C5-C3= 60.68           H31-C6-C5-N7=177.32           H31-C6-C5-C24=305.48          
C8-N7-C5-C3=263.13            C8-N7-C5-C6=145.10            C8-N7-C5-C24= 18.68           C9-C8-N7-C5=178.55            
N21-C8-N7-C5=358.11           C10-C9-C8-N7=116.58           C10-C9-C8-N21=296.99          C11-C9-C8-N7=239.43           
C11-C9-C8-N21= 59.83          N12-C9-C8-N7=357.88           N12-C9-C8-N21=178.28          H32-C10-C9-C8=178.08          
H32-C10-C9-C11= 56.07         H32-C10-C9-N12=294.76         H33-C10-C9-C8=298.19          H33-C10-C9-C11=176.18         
H33-C10-C9-N12= 54.87         H34-C10-C9-C8= 58.37          H34-C10-C9-C11=296.36         H34-C10-C9-N12=175.05         
           -------------------------------------------------
          |                Final Singlepoint                |
           -------------------------------------------------

          ...................................................
          :                      SETUP                      :
          :.................................................:
          :  # basis functions                 134          :
          :  # atomic orbitals                 134          :
          :  # shells                           84          :
          :  # electrons                       134          :
          :  # halogen bonds                     0          :
          :  max. iterations                   250          :
          :  Hamiltonian                  GFN1-xTB          :
          :  restarted?                      false          :
          :  GBSA solvation                   true          :
          :  PC potential                    false          :
          :  electronic temp.          300.0000000     K    :
          :  accuracy                    1.0000000          :
          :  -> integral cutoff          0.2500000E+02      :
          :  -> integral neglect         0.1000000E-07      :
          :  -> SCF convergence          0.1000000E-05 Eh   :
          :  -> wf. convergence          0.2000000E-04 e    :
          :  Broyden damping             0.4000000          :
          ...................................................

 iter      E             dE          RMSdq      gap      omega  full diag
   1    -83.7925925 -0.837926E+02  0.337E-06    2.45       0.0  T
   2    -83.7925925 -0.483169E-12  0.169E-06    2.45    9104.4  T
   3    -83.7925925  0.000000E+00  0.809E-07    2.45   19081.5  T

   *** convergence criteria satisfied after 3 iterations ***

         #    Occupation            Energy/Eh            Energy/eV
      -------------------------------------------------------------
         1        2.0000           -0.8654632             -23.5505
       ...           ...                  ...                  ...
        61        2.0000           -0.4721159             -12.8469
        62        2.0000           -0.4640877             -12.6285
        63        2.0000           -0.4618780             -12.5683
        64        2.0000           -0.4585574             -12.4780
        65        2.0000           -0.4517199             -12.2919
        66        2.0000           -0.4480669             -12.1925
        67        2.0000           -0.4426963             -12.0464 (HOMO)
        68                         -0.3524918              -9.5918 (LUMO)
        69                         -0.3101174              -8.4387
        70                         -0.2994443              -8.1483
        71                         -0.2715195              -7.3884
        72                         -0.2569826              -6.9929
       ...                                ...                  ...
       134                          0.7600511              20.6820
      -------------------------------------------------------------
                  HL-Gap            0.0902044 Eh            2.4546 eV
             Fermi-level           -0.3975940 Eh          -10.8191 eV

 SCC (total)                   0 d,  0 h,  0 min,  0.137 sec
 SCC setup                      ...        0 min,  0.002 sec (  1.442%)
 Dispersion                     ...        0 min,  0.000 sec (  0.256%)
 classical contributions        ...        0 min,  0.000 sec (  0.082%)
 integral evaluation            ...        0 min,  0.036 sec ( 26.433%)
 iterations                     ...        0 min,  0.012 sec (  8.708%)
 molecular gradient             ...        0 min,  0.085 sec ( 62.282%)
 printout                       ...        0 min,  0.001 sec (  0.751%)

         :::::::::::::::::::::::::::::::::::::::::::::::::::::
         ::                     SUMMARY                     ::
         :::::::::::::::::::::::::::::::::::::::::::::::::::::
         :: total energy             -83.004677658911 Eh    ::
         :: total w/o Gsasa/hb       -82.985037194507 Eh    ::
         :: gradient norm              0.000421301948 Eh/a0 ::
         :: HOMO-LUMO gap              2.454587845778 eV    ::
         ::.................................................::
         :: SCC energy               -83.792592461696 Eh    ::
         :: -> electrostatic           0.356668239803 Eh    ::
         :: -> Gsolv                  -0.054464380397 Eh    ::
         ::    -> Gelec               -0.034823915993 Eh    ::
         ::    -> Gsasa               -0.023493072352 Eh    ::
         ::    -> Ghb                 -0.003771671056 Eh    ::
         ::    -> Gshift               0.007624279005 Eh    ::
         :: repulsion energy           0.814898398786 Eh    ::
         :: dispersion energy         -0.026983596000 Eh    ::
         :: halogen bond corr.         0.000000000000 Eh    ::
         :: add. restraining           0.000000000000 Eh    ::
         :: total charge              -0.000000000000 e     ::
         :::::::::::::::::::::::::::::::::::::::::::::::::::::

           -------------------------------------------------
          |                Property Printout                |
           -------------------------------------------------

    * Orbital Energies and Occupations

         #    Occupation            Energy/Eh            Energy/eV
      -------------------------------------------------------------
         1        2.0000           -0.8654632             -23.5505
       ...           ...                  ...                  ...
        55        2.0000           -0.5118251             -13.9275
        56        2.0000           -0.5065458             -13.7838
        57        2.0000           -0.5049330             -13.7399
        58        2.0000           -0.5043360             -13.7237
        59        2.0000           -0.4972434             -13.5307
        60        2.0000           -0.4800984             -13.0641
        61        2.0000           -0.4721159             -12.8469
        62        2.0000           -0.4640877             -12.6285
        63        2.0000           -0.4618780             -12.5683
        64        2.0000           -0.4585574             -12.4780
        65        2.0000           -0.4517199             -12.2919
        66        2.0000           -0.4480669             -12.1925
        67        2.0000           -0.4426963             -12.0464 (HOMO)
        68                         -0.3524918              -9.5918 (LUMO)
        69                         -0.3101174              -8.4387
        70                         -0.2994443              -8.1483
        71                         -0.2715195              -7.3884
        72                         -0.2569826              -6.9929
        73                         -0.2273624              -6.1868
        74                         -0.1978696              -5.3843
        75                         -0.1464184              -3.9842
        76                         -0.1430545              -3.8927
        77                         -0.1426823              -3.8826
        78                         -0.1268317              -3.4513
       ...                                ...                  ...
       134                          0.7600511              20.6820
      -------------------------------------------------------------
                  HL-Gap            0.0902044 Eh            2.4546 eV
             Fermi-level           -0.3975940 Eh          -10.8191 eV

  Mulliken/CM5 charges         n(s)   n(p)   n(d)
     1C     0.16033  0.03877   0.986  2.854  0.000
     2O    -0.40986 -0.49397   1.685  4.725  0.000
     3C     0.59236  0.65959   0.973  2.435  0.000
     4O    -0.52320 -0.57402   1.721  4.803  0.000
     5C     0.09954  0.15452   1.072  2.828  0.000
     6C    -0.08407 -0.22159   1.014  3.070  0.000
     7N    -0.38738 -0.58023   1.535  3.852  0.000
     8C     0.29452  0.44707   1.020  2.685  0.000
     9C     0.15261  0.19365   1.065  2.783  0.000
    10C    -0.10843 -0.24792   1.021  3.087  0.000
    11C    -0.10877 -0.24847   1.021  3.087  0.000
    12N    -0.33531 -0.68615   1.428  3.907  0.000
    13C     0.46795  0.57729   0.975  2.557  0.000
    14O    -0.58045 -0.62613   1.727  4.854  0.000
    15C     0.33079  0.45668   1.008  2.661  0.000
    16N    -0.22297 -0.32695   1.566  3.657  0.000
    17N    -0.26876 -0.37659   1.564  3.705  0.000
    18C     0.39084  0.49952   1.007  2.602  0.000
    19C    -0.11140 -0.24883   1.012  3.100  0.000
    20O    -0.35831 -0.41451   1.697  4.661  0.000
    21N    -0.30880 -0.65651   1.433  3.876  0.000
    22C     0.46654  0.57274   0.999  2.535  0.000
    23O    -0.52267 -0.56184   1.724  4.799  0.000
    24C     0.36705  0.41429   1.079  2.553  0.000
    25O    -0.46866 -0.51479   1.728  4.741  0.000
    26H     0.06241  0.12398   0.938  0.000  0.000
    27H     0.06281  0.12453   0.937  0.000  0.000
    28H     0.06354  0.12400   0.936  0.000  0.000
    29H     0.05921  0.11738   0.941  0.000  0.000
    30H     0.05587  0.11234   0.944  0.000  0.000
    31H     0.06212  0.12153   0.938  0.000  0.000
    32H     0.07000  0.13038   0.930  0.000  0.000
    33H     0.05150  0.10848   0.948  0.000  0.000
    34H     0.04732  0.10417   0.953  0.000  0.000
    35H     0.07077  0.13147   0.929  0.000  0.000
    36H     0.05072  0.10782   0.949  0.000  0.000
    37H     0.04861  0.10521   0.951  0.000  0.000
    38H     0.25954  0.47516   0.740  0.000  0.000
    39H     0.07871  0.13324   0.921  0.000  0.000
    40H     0.06976  0.12560   0.930  0.000  0.000
    41H     0.07930  0.13381   0.921  0.000  0.000
    42H     0.28432  0.48526   0.716  0.000  0.000

Wiberg/Mayer (AO) data.
largest (>0.10) Wiberg bond orders for each atom

 ---------------------------------------------------------------------------
     #   Z sym  total        # sym  WBO       # sym  WBO       # sym  WBO
 ---------------------------------------------------------------------------
     1   6 C    3.854 --    28 H    0.985    27 H    0.980    26 H    0.980
                             2 O    0.876
     2   8 O    2.213 --     3 C    1.150     1 C    0.876     4 O    0.139
     3   6 C    3.843 --     4 O    1.706     2 O    1.150     5 C    0.864
     4   8 O    1.986 --     3 C    1.706     2 O    0.139
     5   6 C    3.962 --     6 C    0.980     7 N    0.976    24 C    0.955
                             3 C    0.864
     6   6 C    3.983 --    30 H    0.984    29 H    0.984    31 H    0.982
                             5 C    0.980
     7   7 N    3.047 --     8 C    1.750     5 C    0.976
     8   6 C    3.928 --     7 N    1.750    21 N    1.073     9 C    0.980
     9   6 C    3.939 --     8 C    0.980    11 C    0.978    10 C    0.977
                            12 N    0.937
    10   6 C    3.986 --    33 H    0.985    34 H    0.984     9 C    0.977
                            32 H    0.977
    11   6 C    3.987 --    36 H    0.985    37 H    0.982     9 C    0.978
                            35 H    0.977
    12   7 N    3.358 --    13 C    1.267     9 C    0.937    38 H    0.877
                            14 O    0.179
    13   6 C    3.918 --    14 O    1.577    12 N    1.267    15 C    0.991
    14   8 O    1.898 --    13 C    1.577    12 N    0.179
    15   6 C    3.872 --    16 N    1.624    20 O    1.047    13 C    0.991
    16   7 N    2.999 --    15 C    1.624    17 N    1.198
    17   7 N    2.982 --    18 C    1.612    16 N    1.198
    18   6 C    3.869 --    17 N    1.612    20 O    1.072    19 C    1.031
    19   6 C    3.986 --    18 C    1.031    40 H    0.982    39 H    0.964
                            41 H    0.963
    20   8 O    2.315 --    18 C    1.072    15 C    1.047
    21   7 N    3.428 --    22 C    1.181     8 C    1.073    42 H    0.880
                            23 O    0.147
    22   6 C    3.891 --    23 O    1.677    21 N    1.181    24 C    0.907
    23   8 O    1.960 --    22 C    1.677    21 N    0.147
    24   6 C    3.848 --    25 O    1.811     5 C    0.955    22 C    0.907
    25   8 O    2.024 --    24 C    1.811
    26   1 H    1.004 --     1 C    0.980
    27   1 H    1.003 --     1 C    0.980
    28   1 H    1.008 --     1 C    0.985
    29   1 H    1.003 --     6 C    0.984
    30   1 H    1.000 --     6 C    0.984
    31   1 H    1.006 --     6 C    0.982
    32   1 H    1.008 --    10 C    0.977
    33   1 H    1.001 --    10 C    0.985
    34   1 H    0.999 --    10 C    0.984
    35   1 H    1.006 --    11 C    0.977
    36   1 H    1.001 --    11 C    0.985
    37   1 H    0.998 --    11 C    0.982
    38   1 H    0.955 --    12 N    0.877
    39   1 H    0.997 --    19 C    0.964
    40   1 H    0.998 --    19 C    0.982
    41   1 H    0.997 --    19 C    0.963
    42   1 H    0.928 --    21 N    0.880
 ---------------------------------------------------------------------------

Topologies differ in total number of bonds
Writing topology from bond orders to xtbtopo.mol

 dipole moment from electron density (au)
     X       Y       Z   
   0.1312   1.2378   0.6553  total (Debye):    3.575

           -------------------------------------------------
          |                Geometry Summary                 |
           -------------------------------------------------

      molecular mass/u    :      351.3152409
   center of mass at/Å    :        0.0353945      -0.0676295      -0.0671441
  moments of inertia/u·Å² :        0.1458432E+04   0.3658370E+04   0.4368368E+04
rotational constants/cm⁻¹ :        0.1155874E-01   0.4607963E-02   0.3859023E-02

 * 36 selected distances

     #   Z          #   Z                                           value/Å
     1   6 C        2   8 O                                       1.4380499
     2   8 O        3   6 C                                       1.3185375
     3   6 C        4   8 O                                       1.1999990
     5   6 C        6   6 C                                       1.5291287
     7   7 N        8   6 C                                       1.2676078
     9   6 C       10   6 C                                       1.5356396 (max)
     9   6 C       11   6 C                                       1.5354931
     9   6 C       12   7 N                                       1.4599453
    12   7 N       13   6 C                                       1.3452696
    13   6 C       14   8 O                                       1.2213587
    15   6 C       16   7 N                                       1.2966409
    17   7 N       18   6 C                                       1.2964153
    18   6 C       19   6 C                                       1.4790401
    15   6 C       20   8 O                                       1.3512464
    18   6 C       20   8 O                                       1.3439502
     8   6 C       21   7 N                                       1.3876375
    21   7 N       22   6 C                                       1.3637939
    22   6 C       23   8 O                                       1.2093048
    24   6 C       25   8 O                                       1.2028918
     1   6 C       26   1 H                                       1.0914972
     1   6 C       27   1 H                                       1.0909864
     1   6 C       28   1 H                                       1.0869573
     6   6 C       29   1 H                                       1.0871989
     6   6 C       30   1 H                                       1.0876161
     6   6 C       31   1 H                                       1.0886282
    10   6 C       32   1 H                                       1.0885173
    10   6 C       33   1 H                                       1.0887538
    10   6 C       34   1 H                                       1.0878363
    11   6 C       35   1 H                                       1.0886293
    11   6 C       36   1 H                                       1.0886040
    11   6 C       37   1 H                                       1.0875718
    12   7 N       38   1 H                                       1.0121431
    19   6 C       39   1 H                                       1.0894915
    19   6 C       40   1 H                                       1.0873272
    19   6 C       41   1 H                                       1.0896986
    21   7 N       42   1 H                                       1.0087529 (min)

 * 5 distinct bonds (by element types)

   Z      Z             #   av. dist./Å        max./Å        min./Å
   1 H    6 C          15     1.0886209     1.0914972     1.0869573
   6 C    6 C           4     1.5198254     1.5356396     1.4790401
   1 H    7 N           2     1.0104480     1.0121431     1.0087529
   6 C    7 N           7     1.3453300     1.4599453     1.2676078
   6 C    8 O           8     1.2856673     1.4380499     1.1999990


optimized geometry written to: xtbopt.xyz


           -------------------------------------------------
          | TOTAL ENERGY              -83.004677658911 Eh   |
          | GRADIENT NORM               0.000421301948 Eh/α |
          | HOMO-LUMO GAP               2.454587845778 eV   |
           -------------------------------------------------

------------------------------------------------------------------------
 * finished run on 2023/06/21 at 17:32:38.352     
------------------------------------------------------------------------
 total:
 * wall-time:     0 d,  0 h,  0 min,  5.686 sec
 *  cpu-time:     0 d,  0 h,  0 min,  5.605 sec
 * ratio c/w:     0.986 speedup
 SCF:
 * wall-time:     0 d,  0 h,  0 min,  0.173 sec
 *  cpu-time:     0 d,  0 h,  0 min,  0.171 sec
 * ratio c/w:     0.990 speedup
 ANC optimizer:
 * wall-time:     0 d,  0 h,  0 min,  5.408 sec
 *  cpu-time:     0 d,  0 h,  0 min,  5.384 sec
 * ratio c/w:     0.995 speedup

