      -----------------------------------------------------------      
     |                   =====================                   |     
     |                           x T B                           |     
     |                   =====================                   |     
     |                         S. Grimme                         |     
     |          Mulliken Center for Theoretical Chemistry        |     
     |                    University of Bonn                     |     
      -----------------------------------------------------------      

   * xtb version 6.5.1 (579679a) compiled by 'ehlert@majestix' on 2022-07-11

   xtb is free software: you can redistribute it and/or modify it under
   the terms of the GNU Lesser General Public License as published by
   the Free Software Foundation, either version 3 of the License, or
   (at your option) any later version.
   
   xtb is distributed in the hope that it will be useful,
   but WITHOUT ANY WARRANTY; without even the implied warranty of
   MERCHANTABILITY or FITNESS FOR A PARTICULAR PURPOSE.  See the
   GNU Lesser General Public License for more details.
   
   Cite this work as:
   * C. Bannwarth, E. Caldeweyher, S. Ehlert, A. Hansen, P. Pracht,
     J. Seibert, S. Spicher, S. Grimme, WIREs Comput. Mol. Sci., 2020, 11,
     e01493. DOI: 10.1002/wcms.1493
   
   for GFN2-xTB:
   * C. Bannwarth, S. Ehlert and S. Grimme., J. Chem. Theory Comput., 2019,
     15, 1652-1671. DOI: 10.1021/acs.jctc.8b01176
   for GFN1-xTB:
   * S. Grimme, C. Bannwarth, P. Shushkov, J. Chem. Theory Comput., 2017,
     13, 1989-2009. DOI: 10.1021/acs.jctc.7b00118
   for GFN0-xTB:
   * P. Pracht, E. Caldeweyher, S. Ehlert, S. Grimme, ChemRxiv, 2019, preprint.
     DOI: 10.26434/chemrxiv.8326202.v1
   for GFN-FF:
   * S. Spicher and S. Grimme, Angew. Chem. Int. Ed., 2020, 59, 15665-15673.
     DOI: 10.1002/anie.202004239
   
   for ALPB and GBSA implicit solvation:
   * S. Ehlert, M. Stahn, S. Spicher, S. Grimme, J. Chem. Theory Comput.,
     2021, 17, 4250-4261. DOI: 10.1021/acs.jctc.1c00471
   
   for DFT-D4:
   * E. Caldeweyher, C. Bannwarth and S. Grimme, J. Chem. Phys., 2017,
     147, 034112. DOI: 10.1063/1.4993215
   * E. Caldeweyher, S. Ehlert, A. Hansen, H. Neugebauer, S. Spicher,
     C. Bannwarth and S. Grimme, J. Chem. Phys., 2019, 150, 154122.
     DOI: 10.1063/1.5090222
   * E. Caldeweyher, J.-M. Mewes, S. Ehlert and S. Grimme, Phys. Chem. Chem. Phys.
     2020, 22, 8499-8512. DOI: 10.1039/D0CP00502A
   
   for sTDA-xTB:
   * S. Grimme and C. Bannwarth, J. Chem. Phys., 2016, 145, 054103.
     DOI: 10.1063/1.4959605
   
   in the mass-spec context:
   * V. Asgeirsson, C. Bauer and S. Grimme, Chem. Sci., 2017, 8, 4879.
     DOI: 10.1039/c7sc00601b
   * J. Koopman and S. Grimme, ACS Omega 2019, 4, 12, 15120-15133.
     DOI: 10.1021/acsomega.9b02011
   
   for metadynamics refer to:
   * S. Grimme, J. Chem. Theory Comput., 2019, 155, 2847-2862
     DOI: 10.1021/acs.jctc.9b00143
   
   for SPH calculations refer to:
   * S. Spicher and S. Grimme, J. Chem. Theory Comput., 2021, 17, 1701-1714
     DOI: 10.1021/acs.jctc.0c01306
   
   with help from (in alphabetical order)
   P. Atkinson, C. Bannwarth, F. Bohle, G. Brandenburg, E. Caldeweyher
   M. Checinski, S. Dohm, S. Ehlert, S. Ehrlich, I. Gerasimov, C. Hölzer
   A. Katbashev, J. Koopman, C. Lavigne, S. Lehtola, F. März, M. Müller,
   F. Musil, H. Neugebauer, J. Pisarek, C. Plett, P. Pracht, F. Pultar,
   J. Seibert, P. Shushkov, S. Spicher, M. Stahn, M. Steiner, T. Strunk,
   J. Stückrath, T. Rose, and J. Unsleber
   
 * started run on 2023/06/21 at 17:18:07.153     

           -------------------------------------------------
          |                Calculation Setup                |
           -------------------------------------------------

          program call               : /lustre/hpc/kemi/ree/PhD/git/ReactivityQM/dep/xtb-6.5.1/bin/xtb --gfn 1 /lustre/hpc/kemi/ree/PhD/git/ReactivityQM/calculations/R02oxygendeprot/reac01prodN02/conf16/R02oxygendeprot_reac01prodN02_conf16_gfn1.xyz --opt --vfukui --chrg 0 --uhf 0 --alpb DMSO
          hostname                   : node070
          coordinate file            : /lustre/hpc/kemi/ree/PhD/git/ReactivityQM/calculations/R02oxygendeprot/reac01prodN02/conf16/R02oxygendeprot_reac01prodN02_conf16_gfn1.xyz
          omp threads                :                     1

   ID    Z sym.   atoms
    1    6 C      1, 3, 5, 7-10, 12, 14, 15, 18, 19, 22, 24
    2    8 O      2, 4, 13, 20, 23, 25
    3    7 N      6, 11, 16, 17, 21
    4    1 H      26-42

           -------------------------------------------------
          |                 G F N 1 - x T B                 |
           -------------------------------------------------

        Reference                      10.1021/acs.jctc.7b00118
      * Hamiltonian:
        H0-scaling (s, p, d)           1.850000    2.250000    2.000000
        zeta-weighting                 0.000000
      * Dispersion:
        s8                             2.400000
        a1                             0.630000
        a2                             5.000000
        s9                             0.000000
      * Repulsion:
        kExp                           1.500000
        rExp                           1.000000
      * Coulomb:
        alpha                          2.000000
        third order                    atomic
        anisotropic                    false
      * Halogen bond correction:
        rad-scale                      1.300000
        damping                        0.440000

      * Solvation model:               ALPB
        Solvent                        DMSO
        Parameter file                 internal GFN1-xTB/ALPB
        Dielectric constant                4.6680E+01
        Reference state                gsolv [1 M gas/solution]
        Free energy shift                  7.6243E-03 Eh       4.7843E+00 kcal/mol
        Temperature                        2.9815E+02 K
        Density                            1.1000E+00 kg/L
        Solvent mass                       7.8130E+01 g/mol
        Interaction kernel             P16
        Born radius scaling (c1)           1.7672E+00
        Born radii integrator          GBOBC
        Born offset                        0.0000E+00 a0       0.0000E+00 AA
        H-bond correction              true
        Ion screening                  false
        Surface tension                    1.0000E-05 Eh       1.5569E+01 dyn/cm
        Grid points                               230 per atom

          ...................................................
          :                      SETUP                      :
          :.................................................:
          :  # basis functions                 134          :
          :  # atomic orbitals                 134          :
          :  # shells                           84          :
          :  # electrons                       134          :
          :  # halogen bonds                     0          :
          :  max. iterations                   250          :
          :  Hamiltonian                  GFN1-xTB          :
          :  restarted?                      false          :
          :  GBSA solvation                   true          :
          :  PC potential                    false          :
          :  electronic temp.          300.0000000     K    :
          :  accuracy                    1.0000000          :
          :  -> integral cutoff          0.2500000E+02      :
          :  -> integral neglect         0.1000000E-07      :
          :  -> SCF convergence          0.1000000E-05 Eh   :
          :  -> wf. convergence          0.2000000E-04 e    :
          :  Broyden damping             0.4000000          :
          ...................................................

 iter      E             dE          RMSdq      gap      omega  full diag
   1    -83.3063119 -0.833063E+02  0.850E+00    2.50       0.0  T
   2    -83.6645718 -0.358260E+00  0.510E+00    0.45       1.0  T
   3    -83.3321695  0.332402E+00  0.241E+00    0.51       1.0  T
   4    -83.6021552 -0.269986E+00  0.130E+00    2.55       1.0  T
   5    -83.6781425 -0.759873E-01  0.576E-01    1.45       1.0  T
   6    -83.6855410 -0.739852E-02  0.393E-01    0.79       1.0  T
   7    -83.6916312 -0.609017E-02  0.232E-01    0.23       1.0  T
   8    -83.3727975  0.318834E+00  0.165E+00    0.35       1.0  T
   9    -83.6926737 -0.319876E+00  0.211E-01    0.19       1.0  T
  10    -83.6905174  0.215625E-02  0.253E-01    0.26       1.0  T
  11    -83.6927446 -0.222716E-02  0.204E-01    0.19       1.0  T
  12    -83.6964117 -0.366710E-02  0.952E-02    0.13       1.0  T
  13    -83.6974757 -0.106403E-02  0.129E-02    0.10       1.2  T
  14    -83.6974442  0.315000E-04  0.206E-02    0.11       1.0  T
  15    -83.6974846 -0.403306E-04  0.978E-03    0.10       1.6  T
  16    -83.6974953 -0.107812E-04  0.282E-03    0.10       5.5  T
  17    -83.6974962 -0.845057E-06  0.103E-03    0.10      14.9  T
  18    -83.6974963 -0.113976E-06  0.369E-04    0.10      41.8  T
  19    -83.6974963 -0.161557E-07  0.673E-05    0.10     229.2  T
  20    -83.6974963 -0.516351E-09  0.138E-05    0.10    1115.6  T

   *** convergence criteria satisfied after 20 iterations ***

         #    Occupation            Energy/Eh            Energy/eV
      -------------------------------------------------------------
         1        2.0000           -0.8835358             -24.0422
       ...           ...                  ...                  ...
        61        2.0000           -0.4725939             -12.8599
        62        2.0000           -0.4688402             -12.7578
        63        2.0000           -0.4662044             -12.6861
        64        2.0000           -0.4545963             -12.3702
        65        2.0000           -0.4427624             -12.0482
        66        2.0000           -0.3971545             -10.8071
        67        1.7500           -0.3815474             -10.3824 (HOMO)
        68        0.2500           -0.3778498             -10.2818 (LUMO)
        69                         -0.2904492              -7.9035
        70                         -0.2850910              -7.7577
        71                         -0.2661492              -7.2423
        72                         -0.2514427              -6.8421
       ...                                ...                  ...
       134                          0.7930874              21.5810
      -------------------------------------------------------------
                  HL-Gap            0.0036976 Eh            0.1006 eV
             Fermi-level           -0.3796986 Eh          -10.3321 eV

 SCC (total)                   0 d,  0 h,  0 min,  0.196 sec
 SCC setup                      ...        0 min,  0.002 sec (  0.923%)
 Dispersion                     ...        0 min,  0.000 sec (  0.139%)
 classical contributions        ...        0 min,  0.000 sec (  0.049%)
 integral evaluation            ...        0 min,  0.025 sec ( 12.667%)
 iterations                     ...        0 min,  0.108 sec ( 55.263%)
 molecular gradient             ...        0 min,  0.059 sec ( 30.233%)
 printout                       ...        0 min,  0.001 sec (  0.708%)

         :::::::::::::::::::::::::::::::::::::::::::::::::::::
         ::                     SUMMARY                     ::
         :::::::::::::::::::::::::::::::::::::::::::::::::::::
         :: total energy             -82.941896365367 Eh    ::
         :: total w/o Gsasa/hb       -82.919948802395 Eh    ::
         :: gradient norm              0.141296721872 Eh/a0 ::
         :: HOMO-LUMO gap              0.100616530807 eV    ::
         ::.................................................::
         :: SCC energy               -83.697496309115 Eh    ::
         :: -> electrostatic           0.395686641171 Eh    ::
         :: -> Gsolv                  -0.087548786432 Eh    ::
         ::    -> Gelec               -0.065601223460 Eh    ::
         ::    -> Gsasa               -0.025083441029 Eh    ::
         ::    -> Ghb                 -0.004488400948 Eh    ::
         ::    -> Gshift               0.007624279005 Eh    ::
         :: repulsion energy           0.781009645305 Eh    ::
         :: dispersion energy         -0.025409701558 Eh    ::
         :: halogen bond corr.         0.000000000000 Eh    ::
         :: add. restraining           0.000000000000 Eh    ::
         :: total charge              -0.000000000000 e     ::
         :::::::::::::::::::::::::::::::::::::::::::::::::::::

      ----------------------------------------------------------- 
     |                   =====================                   |
     |                        A N C O P T                        |
     |                   =====================                   |
     |               Approximate Normal Coordinate               |
     |                Rational Function Optimizer                |
      ----------------------------------------------------------- 

          ...................................................
          :                      SETUP                      :
          :.................................................:
          :   optimization level            normal          :
          :   max. optcycles                   200          :
          :   ANC micro-cycles                  20          :
          :   degrees of freedom               120          :
          :.................................................:
          :   RF solver                   davidson          :
          :   write xtbopt.log                true          :
          :   linear?                        false          :
          :   energy convergence         0.5000000E-05 Eh   :
          :   grad. convergence          0.1000000E-02 Eh/α :
          :   maximium RF displ.         1.0000000          :
          :   Hlow (freq-cutoff)         0.1000000E-01      :
          :   Hmax (freq-cutoff)         5.0000000          :
          :   S6 in model hess.         20.0000000          :
          ...................................................

generating ANC from model Hessian ...
Using Lindh-Hessian (1995)
 Shifting diagonal of input Hessian by   9.810517652722471E-003
 Lowest  eigenvalues of input Hessian
    0.000000    0.000000    0.000000    0.000000    0.000000    0.000000
    0.010000    0.010155    0.010279    0.011083    0.012049    0.012113
    0.012347    0.013049    0.013345    0.013698    0.014453    0.015873
 Highest eigenvalues
    2.022964    2.089009    2.136127    2.255483    2.332576    2.457922
 

........................................................................
.............................. CYCLE    1 ..............................
........................................................................
   1    -83.6974963 -0.836975E+02  0.116E-05    0.10       0.0  T
   2    -83.6974963  0.125983E-08  0.102E-04    0.10     150.8  T
   3    -83.6974963 -0.127626E-08  0.174E-07    0.10   88794.3  T
     SCC iter.                  ...        0 min,  0.016 sec
     gradient                   ...        0 min,  0.059 sec
 * total energy  :   -82.9418964 Eh     change       -0.2428635E-10 Eh
   gradient norm :     0.1412950 Eh/α   predicted     0.0000000E+00 (-100.00%)
   displ. norm   :     0.3324068 α      lambda       -0.2374725E-01
   maximum displ.:     0.1035375 α      in ANC's #31, #27, #36, ...

........................................................................
.............................. CYCLE    2 ..............................
........................................................................
   1    -83.7148568 -0.837149E+02  0.235E-01    0.48       0.0  T
   2    -83.4139249  0.300932E+00  0.159E+00    0.13       1.0  T
   3    -83.7170698 -0.303145E+00  0.189E-01    0.34       1.0  T
   4    -83.7175070 -0.437151E-03  0.167E-01    0.28       1.0  T
   5    -83.7193258 -0.181881E-02  0.106E-01    0.18       1.0  T
   6    -83.7204220 -0.109626E-02  0.428E-02    0.11       1.0  T
   7    -83.7206453 -0.223302E-03  0.256E-03    0.13       6.0  T
   8    -83.7206435  0.182137E-05  0.418E-03    0.13       3.7  T
   9    -83.7206454 -0.192572E-05  0.408E-04    0.13      37.8  T
  10    -83.7206452  0.206655E-06  0.137E-03    0.13      11.3  T
  11    -83.7206455 -0.213535E-06  0.798E-05    0.13     193.4  T
  12    -83.7206455  0.359748E-09  0.796E-05    0.13     193.7  T
     SCC iter.                  ...        0 min,  0.064 sec
     gradient                   ...        0 min,  0.056 sec
 * total energy  :   -82.9600443 Eh     change       -0.1814792E-01 Eh
   gradient norm :     0.0822408 Eh/α   predicted    -0.1320743E-01 ( -27.22%)
   displ. norm   :     0.3700302 α      lambda       -0.1411184E-01
   maximum displ.:     0.1128785 α      in ANC's #36, #14, #6, ...

........................................................................
.............................. CYCLE    3 ..............................
........................................................................
   1    -83.7395637 -0.837396E+02  0.184E-01    0.60       0.0  T
   2    -83.7419441 -0.238035E-02  0.898E-02    0.17       1.0  T
   3    -83.7422208 -0.276786E-03  0.370E-02    0.22       1.0  T
   4    -83.7393198  0.290101E-02  0.162E-01    0.11       1.0  T
   5    -83.7422963 -0.297645E-02  0.239E-02    0.17       1.0  T
   6    -83.7422810  0.152390E-04  0.224E-02    0.17       1.0  T
   7    -83.7423314 -0.503796E-04  0.644E-03    0.18       2.4  T
   8    -83.7423347 -0.326142E-05  0.326E-03    0.18       4.7  T
   9    -83.7423355 -0.862012E-06  0.155E-03    0.18      10.0  T
  10    -83.7423358 -0.225685E-06  0.488E-04    0.18      31.7  T
  11    -83.7423358 -0.193517E-07  0.216E-04    0.18      71.3  T
  12    -83.7423358 -0.416718E-08  0.837E-05    0.18     184.3  T
  13    -83.7423358 -0.691514E-09  0.141E-05    0.18    1093.9  T
     SCC iter.                  ...        0 min,  0.070 sec
     gradient                   ...        0 min,  0.057 sec
 * total energy  :   -82.9678389 Eh     change       -0.7794629E-02 Eh
   gradient norm :     0.0249939 Eh/α   predicted    -0.8023640E-02 (   2.94%)
   displ. norm   :     0.2384416 α      lambda       -0.1614835E-02
   maximum displ.:     0.1294163 α      in ANC's #6, #7, #14, ...

........................................................................
.............................. CYCLE    4 ..............................
........................................................................
   1    -83.7420008 -0.837420E+02  0.370E-02    0.23       0.0  T
   2    -83.7417583  0.242499E-03  0.549E-02    0.16       1.0  T
   3    -83.7420825 -0.324240E-03  0.164E-02    0.21       1.0  T
   4    -83.7421017 -0.191996E-04  0.672E-03    0.20       2.3  T
   5    -83.7421049 -0.313419E-05  0.177E-03    0.19       8.7  T
   6    -83.7421051 -0.226138E-06  0.588E-04    0.19      26.2  T
   7    -83.7421051 -0.375834E-07  0.121E-04    0.20     127.4  T
   8    -83.7421051 -0.225896E-09  0.598E-05    0.20     257.9  T
     SCC iter.                  ...        0 min,  0.045 sec
     gradient                   ...        0 min,  0.057 sec
 * total energy  :   -82.9690646 Eh     change       -0.1225668E-02 Eh
   gradient norm :     0.0139271 Eh/α   predicted    -0.8533647E-03 ( -30.38%)
   displ. norm   :     0.3293229 α      lambda       -0.1261695E-02
   maximum displ.:     0.1944031 α      in ANC's #6, #7, #3, ...

........................................................................
.............................. CYCLE    5 ..............................
........................................................................
   1    -83.7421078 -0.837421E+02  0.287E-02    0.22       0.0  T
   2    -83.7420973  0.105019E-04  0.223E-02    0.18       1.0  T
   3    -83.7421395 -0.422429E-04  0.135E-02    0.22       1.1  T
   4    -83.7421514 -0.118557E-04  0.511E-03    0.21       3.0  T
   5    -83.7421522 -0.836526E-06  0.109E-03    0.20      14.2  T
   6    -83.7421523 -0.526972E-07  0.236E-04    0.20      65.3  T
   7    -83.7421523 -0.164943E-08  0.102E-04    0.20     150.8  T
   8    -83.7421523 -0.336343E-09  0.369E-05    0.20     417.9  T
     SCC iter.                  ...        0 min,  0.043 sec
     gradient                   ...        0 min,  0.057 sec
 * total energy  :   -82.9698875 Eh     change       -0.8229323E-03 Eh
   gradient norm :     0.0073348 Eh/α   predicted    -0.6992839E-03 ( -15.03%)
   displ. norm   :     0.2502157 α      lambda       -0.4192877E-03
   maximum displ.:     0.1514792 α      in ANC's #6, #7, #3, ...

........................................................................
.............................. CYCLE    6 ..............................
........................................................................
   1    -83.7431990 -0.837432E+02  0.116E-02    0.21       0.0  T
   2    -83.7432000 -0.950216E-06  0.807E-03    0.20       1.9  T
   3    -83.7432047 -0.477315E-05  0.504E-03    0.21       3.1  T
   4    -83.7432063 -0.157175E-05  0.180E-03    0.21       8.6  T
   5    -83.7432063 -0.178115E-07  0.548E-04    0.21      28.2  T
   6    -83.7432063 -0.152056E-08  0.708E-05    0.21     218.0  T
   7    -83.7432063 -0.119101E-09  0.304E-05    0.21     507.7  T
     SCC iter.                  ...        0 min,  0.022 sec
     gradient                   ...        0 min,  0.055 sec
 * total energy  :   -82.9702012 Eh     change       -0.3137049E-03 Eh
   gradient norm :     0.0075676 Eh/α   predicted    -0.2227708E-03 ( -28.99%)
   displ. norm   :     0.2987588 α      lambda       -0.3795786E-03
   maximum displ.:     0.1737418 α      in ANC's #6, #7, #3, ...

........................................................................
.............................. CYCLE    7 ..............................
........................................................................
   1    -83.7447929 -0.837448E+02  0.791E-03    0.20       0.0  T
   2    -83.7447949 -0.193751E-05  0.478E-03    0.21       3.2  T
   3    -83.7447953 -0.469257E-06  0.279E-03    0.20       5.5  T
   4    -83.7447956 -0.272337E-06  0.188E-03    0.21       8.2  T
   5    -83.7447958 -0.173465E-06  0.472E-04    0.21      32.7  T
   6    -83.7447958 -0.390234E-08  0.540E-05    0.21     285.8  T
   7    -83.7447958 -0.947864E-10  0.187E-05    0.21     826.7  T
     SCC iter.                  ...        0 min,  0.036 sec
     gradient                   ...        0 min,  0.054 sec
 * total energy  :   -82.9704856 Eh     change       -0.2843999E-03 Eh
   gradient norm :     0.0064032 Eh/α   predicted    -0.2067297E-03 ( -27.31%)
   displ. norm   :     0.3144242 α      lambda       -0.3047924E-03
   maximum displ.:     0.1676581 α      in ANC's #6, #3, #2, ...

........................................................................
.............................. CYCLE    8 ..............................
........................................................................
   1    -83.7461498 -0.837461E+02  0.815E-03    0.20       0.0  T
   2    -83.7461486  0.117914E-05  0.742E-03    0.21       2.1  T
   3    -83.7461534 -0.480878E-05  0.272E-03    0.20       5.7  T
   4    -83.7461538 -0.346729E-06  0.106E-03    0.21      14.5  T
   5    -83.7461538 -0.329888E-08  0.348E-04    0.21      44.3  T
   6    -83.7461538 -0.273324E-08  0.661E-05    0.21     233.5  T
   7    -83.7461538 -0.277680E-09  0.162E-05    0.21     955.0  T
     SCC iter.                  ...        0 min,  0.037 sec
     gradient                   ...        0 min,  0.055 sec
 * total energy  :   -82.9707028 Eh     change       -0.2171327E-03 Eh
   gradient norm :     0.0059870 Eh/α   predicted    -0.1674635E-03 ( -22.88%)
   displ. norm   :     0.2624678 α      lambda       -0.1960099E-03
   maximum displ.:     0.1261698 α      in ANC's #6, #2, #3, ...

........................................................................
.............................. CYCLE    9 ..............................
........................................................................
   1    -83.7472031 -0.837472E+02  0.645E-03    0.20       0.0  T
   2    -83.7472020  0.108076E-05  0.567E-03    0.21       2.7  T
   3    -83.7472052 -0.311443E-05  0.247E-03    0.20       6.2  T
   4    -83.7472055 -0.318078E-06  0.898E-04    0.20      17.2  T
   5    -83.7472055 -0.746927E-08  0.236E-04    0.20      65.4  T
   6    -83.7472055 -0.102615E-08  0.507E-05    0.20     304.5  T
   7    -83.7472055 -0.136751E-09  0.137E-05    0.20    1123.1  T
     SCC iter.                  ...        0 min,  0.035 sec
     gradient                   ...        0 min,  0.055 sec
 * total energy  :   -82.9708468 Eh     change       -0.1440794E-03 Eh
   gradient norm :     0.0057058 Eh/α   predicted    -0.1047583E-03 ( -27.29%)
   displ. norm   :     0.2488355 α      lambda       -0.1610525E-03
   maximum displ.:     0.1152935 α      in ANC's #2, #3, #6, ...

........................................................................
.............................. CYCLE   10 ..............................
........................................................................
   1    -83.7477225 -0.837477E+02  0.540E-03    0.21       0.0  T
   2    -83.7477232 -0.779149E-06  0.265E-03    0.21       5.8  T
   3    -83.7477234 -0.119377E-06  0.200E-03    0.20       7.7  T
   4    -83.7477235 -0.142988E-06  0.101E-03    0.21      15.3  T
   5    -83.7477236 -0.439708E-07  0.257E-04    0.21      60.0  T
   6    -83.7477236 -0.180354E-08  0.433E-05    0.21     356.5  T
   7    -83.7477236 -0.559339E-10  0.172E-05    0.21     896.6  T
     SCC iter.                  ...        0 min,  0.037 sec
     gradient                   ...        0 min,  0.047 sec
 * total energy  :   -82.9709668 Eh     change       -0.1199199E-03 Eh
   gradient norm :     0.0046598 Eh/α   predicted    -0.8551447E-04 ( -28.69%)
   displ. norm   :     0.2473650 α      lambda       -0.1372845E-03
   maximum displ.:     0.1268755 α      in ANC's #2, #3, #4, ...

........................................................................
.............................. CYCLE   11 ..............................
........................................................................
   1    -83.7474938 -0.837475E+02  0.574E-03    0.21       0.0  T
   2    -83.7474942 -0.421021E-06  0.436E-03    0.20       3.5  T
   3    -83.7474951 -0.897669E-06  0.191E-03    0.21       8.1  T
   4    -83.7474953 -0.155939E-06  0.121E-03    0.21      12.7  T
   5    -83.7474953 -0.598100E-07  0.252E-04    0.21      61.3  T
   6    -83.7474953 -0.549832E-09  0.423E-05    0.21     364.9  T
   7    -83.7474953 -0.378719E-10  0.169E-05    0.21     910.8  T
     SCC iter.                  ...        0 min,  0.035 sec
     gradient                   ...        0 min,  0.051 sec
 * total energy  :   -82.9710686 Eh     change       -0.1018827E-03 Eh
   gradient norm :     0.0034254 Eh/α   predicted    -0.7284369E-04 ( -28.50%)
   displ. norm   :     0.2235110 α      lambda       -0.1082128E-03
   maximum displ.:     0.1252774 α      in ANC's #2, #4, #3, ...

........................................................................
.............................. CYCLE   12 ..............................
........................................................................
   1    -83.7471989 -0.837472E+02  0.607E-03    0.21       0.0  T
   2    -83.7471983  0.614846E-06  0.569E-03    0.20       2.7  T
   3    -83.7472009 -0.260063E-05  0.175E-03    0.21       8.8  T
   4    -83.7472010 -0.157831E-06  0.781E-04    0.21      19.8  T
   5    -83.7472011 -0.107508E-07  0.228E-04    0.21      67.6  T
   6    -83.7472011 -0.540766E-09  0.376E-05    0.21     410.2  T
   7    -83.7472011 -0.283791E-10  0.139E-05    0.21    1107.8  T
     SCC iter.                  ...        0 min,  0.032 sec
     gradient                   ...        0 min,  0.055 sec
 * total energy  :   -82.9711508 Eh     change       -0.8219127E-04 Eh
   gradient norm :     0.0033448 Eh/α   predicted    -0.5681176E-04 ( -30.88%)
   displ. norm   :     0.2268023 α      lambda       -0.8966704E-04
   maximum displ.:     0.1336523 α      in ANC's #2, #4, #3, ...

........................................................................
.............................. CYCLE   13 ..............................
........................................................................
   1    -83.7465277 -0.837465E+02  0.561E-03    0.22       0.0  T
   2    -83.7465268  0.951397E-06  0.553E-03    0.21       2.8  T
   3    -83.7465297 -0.288972E-05  0.142E-03    0.21      10.9  T
   4    -83.7465297 -0.979010E-07  0.497E-04    0.21      31.1  T
   5    -83.7465297 -0.404981E-09  0.104E-04    0.21     149.0  T
   6    -83.7465297 -0.284629E-09  0.299E-05    0.21     516.7  T
     SCC iter.                  ...        0 min,  0.031 sec
     gradient                   ...        0 min,  0.055 sec
 * total energy  :   -82.9712185 Eh     change       -0.6765773E-04 Eh
   gradient norm :     0.0034755 Eh/α   predicted    -0.4714049E-04 ( -30.33%)
   displ. norm   :     0.1913357 α      lambda       -0.7350884E-04
   maximum displ.:     0.1192305 α      in ANC's #2, #4, #1, ...

........................................................................
.............................. CYCLE   14 ..............................
........................................................................
   1    -83.7472909 -0.837473E+02  0.464E-03    0.22       0.0  T
   2    -83.7472906  0.370206E-06  0.408E-03    0.21       3.8  T
   3    -83.7472920 -0.146725E-05  0.150E-03    0.21      10.3  T
   4    -83.7472921 -0.880964E-07  0.502E-04    0.21      30.7  T
   5    -83.7472921 -0.164377E-08  0.101E-04    0.21     152.5  T
   6    -83.7472921 -0.153193E-09  0.293E-05    0.21     526.4  T
     SCC iter.                  ...        0 min,  0.033 sec
     gradient                   ...        0 min,  0.057 sec
 * total energy  :   -82.9712699 Eh     change       -0.5142657E-04 Eh
   gradient norm :     0.0034107 Eh/α   predicted    -0.3810320E-04 ( -25.91%)
   displ. norm   :     0.1926148 α      lambda       -0.6188358E-04
   maximum displ.:     0.1222797 α      in ANC's #2, #4, #1, ...

........................................................................
.............................. CYCLE   15 ..............................
........................................................................
   1    -83.7465089 -0.837465E+02  0.435E-03    0.22       0.0  T
   2    -83.7465092 -0.313904E-06  0.252E-03    0.21       6.1  T
   3    -83.7465093 -0.139308E-06  0.179E-03    0.22       8.6  T
   4    -83.7465095 -0.128412E-06  0.789E-04    0.21      19.6  T
   5    -83.7465095 -0.206310E-07  0.148E-04    0.21     104.1  T
   6    -83.7465095 -0.616140E-09  0.319E-05    0.21     483.0  T
     SCC iter.                  ...        0 min,  0.032 sec
     gradient                   ...        0 min,  0.056 sec
 * total energy  :   -82.9713086 Eh     change       -0.3870189E-04 Eh
   gradient norm :     0.0027356 Eh/α   predicted    -0.3209008E-04 ( -17.08%)
   displ. norm   :     0.1080034 α      lambda       -0.4212337E-04
   maximum displ.:     0.0706601 α      in ANC's #2, #1, #11, ...

........................................................................
.............................. CYCLE   16 ..............................
........................................................................
   1    -83.7475934 -0.837476E+02  0.317E-03    0.21       0.0  T
   2    -83.7475936 -0.224702E-06  0.163E-03    0.22       9.4  T
   3    -83.7475937 -0.232344E-07  0.992E-04    0.21      15.6  T
   4    -83.7475937  0.208198E-08  0.683E-04    0.22      22.6  T
   5    -83.7475937 -0.340395E-07  0.123E-04    0.21     125.3  T
   6    -83.7475937 -0.359961E-09  0.249E-05    0.21     619.6  T
     SCC iter.                  ...        0 min,  0.031 sec
     gradient                   ...        0 min,  0.058 sec
 * total energy  :   -82.9713397 Eh     change       -0.3107988E-04 Eh
   gradient norm :     0.0020041 Eh/α   predicted    -0.2130889E-04 ( -31.44%)
   displ. norm   :     0.1255609 α      lambda       -0.3907376E-04
   maximum displ.:     0.0842717 α      in ANC's #2, #1, #11, ...

........................................................................
.............................. CYCLE   17 ..............................
........................................................................
   1    -83.7480746 -0.837481E+02  0.376E-03    0.21       0.0  T
   2    -83.7480745  0.842464E-07  0.328E-03    0.22       4.7  T
   3    -83.7480754 -0.919064E-06  0.954E-04    0.21      16.2  T
   4    -83.7480755 -0.418436E-07  0.399E-04    0.21      38.7  T
   5    -83.7480755 -0.128578E-08  0.128E-04    0.21     120.6  T
   6    -83.7480755 -0.289390E-09  0.221E-05    0.21     697.6  T
     SCC iter.                  ...        0 min,  0.031 sec
     gradient                   ...        0 min,  0.056 sec
 * total energy  :   -82.9713702 Eh     change       -0.3051850E-04 Eh
   gradient norm :     0.0021832 Eh/α   predicted    -0.1984997E-04 ( -34.96%)
   displ. norm   :     0.1406902 α      lambda       -0.3965418E-04
   maximum displ.:     0.0924548 α      in ANC's #2, #1, #11, ...

........................................................................
.............................. CYCLE   18 ..............................
........................................................................
   1    -83.7480878 -0.837481E+02  0.344E-03    0.21       0.0  T
   2    -83.7480875  0.344852E-06  0.360E-03    0.22       4.3  T
   3    -83.7480887 -0.124500E-05  0.641E-04    0.21      24.1  T
   4    -83.7480887 -0.123955E-07  0.271E-04    0.21      57.0  T
   5    -83.7480887 -0.126860E-09  0.791E-05    0.21     195.1  T
   6    -83.7480887 -0.124075E-09  0.181E-05    0.21     853.7  T
     SCC iter.                  ...        0 min,  0.031 sec
     gradient                   ...        0 min,  0.056 sec
 * total energy  :   -82.9714017 Eh     change       -0.3149394E-04 Eh
   gradient norm :     0.0024532 Eh/α   predicted    -0.2022322E-04 ( -35.79%)
   displ. norm   :     0.1590606 α      lambda       -0.4000536E-04
   maximum displ.:     0.1035567 α      in ANC's #2, #1, #15, ...

........................................................................
.............................. CYCLE   19 ..............................
........................................................................
   1    -83.7476968 -0.837477E+02  0.265E-03    0.21       0.0  T
   2    -83.7476966  0.211641E-06  0.279E-03    0.22       5.5  T
   3    -83.7476973 -0.730351E-06  0.676E-04    0.21      22.8  T
   4    -83.7476973 -0.874159E-08  0.299E-04    0.21      51.6  T
   5    -83.7476973 -0.356025E-09  0.605E-05    0.21     255.2  T
   6    -83.7476973 -0.388951E-10  0.184E-05    0.21     837.4  T
     SCC iter.                  ...        0 min,  0.031 sec
     gradient                   ...        0 min,  0.055 sec
 * total energy  :   -82.9714336 Eh     change       -0.3193979E-04 Eh
   gradient norm :     0.0023459 Eh/α   predicted    -0.2051076E-04 ( -35.78%)
   displ. norm   :     0.1667268 α      lambda       -0.3710925E-04
   maximum displ.:     0.1085682 α      in ANC's #2, #1, #16, ...

........................................................................
.............................. CYCLE   20 ..............................
........................................................................
   1    -83.7471960 -0.837472E+02  0.217E-03    0.21       0.0  T
   2    -83.7471961 -0.113730E-06  0.105E-03    0.21      14.7  T
   3    -83.7471961 -0.102890E-07  0.557E-04    0.21      27.7  T
   4    -83.7471961  0.742021E-08  0.347E-04    0.21      44.5  T
   5    -83.7471961 -0.939717E-08  0.104E-04    0.21     149.0  T
   6    -83.7471961 -0.647077E-09  0.205E-05    0.21     752.3  T
     SCC iter.                  ...        0 min,  0.032 sec
     gradient                   ...        0 min,  0.058 sec
 * total energy  :   -82.9714617 Eh     change       -0.2801887E-04 Eh
   gradient norm :     0.0019959 Eh/α   predicted    -0.1907307E-04 ( -31.93%)
   displ. norm   :     0.1912933 α      lambda       -0.2585976E-04
   maximum displ.:     0.1259768 α      in ANC's #2, #1, #5, ...
 * RMSD in coord.:     0.5036623 α      energy gain  -0.2956530E-01 Eh

generating ANC from model Hessian ...
Using Lindh-Hessian (1995)
 Shifting diagonal of input Hessian by   9.801524095361967E-003
 Lowest  eigenvalues of input Hessian
    0.000000    0.000000    0.000000    0.000000    0.000000    0.000000
    0.010000    0.010173    0.010311    0.011272    0.012037    0.012319
    0.012729    0.013274    0.013901    0.014322    0.014542    0.016087
 Highest eigenvalues
    2.079389    2.243695    2.253884    2.312973    2.328615    2.370190
 

........................................................................
.............................. CYCLE   21 ..............................
........................................................................
   1    -83.7468998 -0.837469E+02  0.393E-03    0.22       0.0  T
   2    -83.7468997  0.877005E-07  0.329E-03    0.21       4.7  T
   3    -83.7469005 -0.808689E-06  0.120E-03    0.21      12.9  T
   4    -83.7469006 -0.657645E-07  0.491E-04    0.21      31.4  T
   5    -83.7469006 -0.379420E-08  0.139E-04    0.21     111.2  T
   6    -83.7469006 -0.420329E-09  0.227E-05    0.21     680.9  T
     SCC iter.                  ...        0 min,  0.032 sec
     gradient                   ...        0 min,  0.057 sec
 * total energy  :   -82.9714880 Eh     change       -0.2637150E-04 Eh
   gradient norm :     0.0016661 Eh/α   predicted     0.0000000E+00 (-100.00%)
   displ. norm   :     0.0356405 α      lambda       -0.1066600E-04
   maximum displ.:     0.0144994 α      in ANC's #1, #2, #16, ...

........................................................................
.............................. CYCLE   22 ..............................
........................................................................
   1    -83.7475176 -0.837475E+02  0.193E-03    0.21       0.0  T
   2    -83.7475176  0.526281E-07  0.174E-03    0.21       8.8  T
   3    -83.7475178 -0.253658E-06  0.669E-04    0.21      23.1  T
   4    -83.7475178 -0.138549E-07  0.275E-04    0.21      56.1  T
   5    -83.7475178 -0.360274E-09  0.455E-05    0.21     339.4  T
   6    -83.7475178 -0.268869E-10  0.115E-05    0.21    1345.0  T
     SCC iter.                  ...        0 min,  0.032 sec
     gradient                   ...        0 min,  0.058 sec
 * total energy  :   -82.9715020 Eh     change       -0.1397399E-04 Eh
   gradient norm :     0.0006439 Eh/α   predicted    -0.5867322E-05 ( -58.01%)
   displ. norm   :     0.0956853 α      lambda       -0.1908722E-04
   maximum displ.:     0.0422344 α      in ANC's #1, #2, #16, ...

........................................................................
.............................. CYCLE   23 ..............................
........................................................................
   1    -83.7479257 -0.837479E+02  0.296E-03    0.22       0.0  T
   2    -83.7479254  0.286769E-06  0.332E-03    0.21       4.6  T
   3    -83.7479265 -0.109224E-05  0.676E-04    0.21      22.8  T
   4    -83.7479265 -0.653012E-08  0.341E-04    0.21      45.3  T
   5    -83.7479265 -0.392035E-09  0.717E-05    0.21     215.1  T
   6    -83.7479265 -0.484874E-10  0.172E-05    0.21     897.0  T
     SCC iter.                  ...        0 min,  0.030 sec
     gradient                   ...        0 min,  0.055 sec
 * total energy  :   -82.9715204 Eh     change       -0.1834129E-04 Eh
   gradient norm :     0.0012325 Eh/α   predicted    -0.9582941E-05 ( -47.75%)
   displ. norm   :     0.0781092 α      lambda       -0.9150618E-05
   maximum displ.:     0.0394802 α      in ANC's #2, #1, #16, ...

........................................................................
.............................. CYCLE   24 ..............................
........................................................................
   1    -83.7479026 -0.837479E+02  0.139E-03    0.22       0.0  T
   2    -83.7479025  0.491822E-07  0.143E-03    0.21      10.8  T
   3    -83.7479027 -0.200611E-06  0.307E-04    0.21      50.2  T
   4    -83.7479027 -0.252493E-08  0.136E-04    0.21     113.4  T
   5    -83.7479027 -0.429736E-10  0.357E-05    0.21     432.4  T
     SCC iter.                  ...        0 min,  0.027 sec
     gradient                   ...        0 min,  0.057 sec
 * total energy  :   -82.9715297 Eh     change       -0.9296014E-05 Eh
   gradient norm :     0.0013176 Eh/α   predicted    -0.4588697E-05 ( -50.64%)
   displ. norm   :     0.0978827 α      lambda       -0.1066199E-04
   maximum displ.:     0.0530892 α      in ANC's #2, #1, #16, ...

........................................................................
.............................. CYCLE   25 ..............................
........................................................................
   1    -83.7477840 -0.837478E+02  0.144E-03    0.22       0.0  T
   2    -83.7477840 -0.512028E-08  0.106E-03    0.21      14.6  T
   3    -83.7477841 -0.783886E-07  0.463E-04    0.21      33.4  T
   4    -83.7477841 -0.106157E-07  0.183E-04    0.21      84.3  T
   5    -83.7477841 -0.374570E-09  0.472E-05    0.21     326.6  T
     SCC iter.                  ...        0 min,  0.026 sec
     gradient                   ...        0 min,  0.057 sec
 * total energy  :   -82.9715416 Eh     change       -0.1194652E-04 Eh
   gradient norm :     0.0008636 Eh/α   predicted    -0.5355272E-05 ( -55.17%)
   displ. norm   :     0.1097806 α      lambda       -0.1150112E-04
   maximum displ.:     0.0625013 α      in ANC's #2, #1, #16, ...

........................................................................
.............................. CYCLE   26 ..............................
........................................................................
   1    -83.7475826 -0.837476E+02  0.139E-03    0.21       0.0  T
   2    -83.7475826 -0.570112E-07  0.612E-04    0.21      25.2  T
   3    -83.7475826 -0.687056E-08  0.331E-04    0.21      46.6  T
   4    -83.7475826  0.179125E-08  0.260E-04    0.21      59.4  T
   5    -83.7475826 -0.460109E-08  0.597E-05    0.21     258.3  T
   6    -83.7475826 -0.122853E-09  0.129E-05    0.21    1197.1  T
     SCC iter.                  ...        0 min,  0.032 sec
     gradient                   ...        0 min,  0.056 sec
 * total energy  :   -82.9715552 Eh     change       -0.1360634E-04 Eh
   gradient norm :     0.0006866 Eh/α   predicted    -0.5789512E-05 ( -57.45%)
   displ. norm   :     0.1308560 α      lambda       -0.1146804E-04
   maximum displ.:     0.0764574 α      in ANC's #2, #1, #3, ...

........................................................................
.............................. CYCLE   27 ..............................
........................................................................
   1    -83.7473897 -0.837474E+02  0.135E-03    0.21       0.0  T
   2    -83.7473897 -0.387678E-07  0.930E-04    0.21      16.6  T
   3    -83.7473897 -0.542415E-07  0.452E-04    0.21      34.1  T
   4    -83.7473898 -0.993899E-08  0.227E-04    0.21      68.0  T
   5    -83.7473898 -0.105324E-08  0.513E-05    0.21     300.9  T
   6    -83.7473898 -0.261906E-10  0.126E-05    0.21    1223.0  T
     SCC iter.                  ...        0 min,  0.032 sec
     gradient                   ...        0 min,  0.057 sec
 * total energy  :   -82.9715683 Eh     change       -0.1309211E-04 Eh
   gradient norm :     0.0010425 Eh/α   predicted    -0.5777932E-05 ( -55.87%)
   displ. norm   :     0.1216454 α      lambda       -0.8906256E-05
   maximum displ.:     0.0731821 α      in ANC's #2, #1, #3, ...

........................................................................
.............................. CYCLE   28 ..............................
........................................................................
   1    -83.7474509 -0.837475E+02  0.859E-04    0.21       0.0  T
   2    -83.7474509 -0.188064E-07  0.511E-04    0.21      30.2  T
   3    -83.7474509 -0.668481E-08  0.317E-04    0.21      48.6  T
   4    -83.7474509 -0.511726E-08  0.168E-04    0.21      92.1  T
   5    -83.7474509 -0.103040E-08  0.472E-05    0.21     326.7  T
     SCC iter.                  ...        0 min,  0.026 sec
     gradient                   ...        0 min,  0.056 sec
 * total energy  :   -82.9715791 Eh     change       -0.1076654E-04 Eh
   gradient norm :     0.0009520 Eh/α   predicted    -0.4483608E-05 ( -58.36%)
   displ. norm   :     0.1275191 α      lambda       -0.8728533E-05
   maximum displ.:     0.0785030 α      in ANC's #2, #1, #3, ...

........................................................................
.............................. CYCLE   29 ..............................
........................................................................
   1    -83.7475752 -0.837476E+02  0.943E-04    0.21       0.0  T
   2    -83.7475752 -0.147144E-07  0.629E-04    0.21      24.5  T
   3    -83.7475752 -0.202084E-07  0.389E-04    0.21      39.6  T
   4    -83.7475753 -0.730675E-08  0.149E-04    0.21     103.7  T
   5    -83.7475753 -0.184457E-09  0.434E-05    0.21     355.5  T
     SCC iter.                  ...        0 min,  0.027 sec
     gradient                   ...        0 min,  0.055 sec
 * total energy  :   -82.9715895 Eh     change       -0.1041223E-04 Eh
   gradient norm :     0.0006423 Eh/α   predicted    -0.4396918E-05 ( -57.77%)
   displ. norm   :     0.1162590 α      lambda       -0.6867138E-05
   maximum displ.:     0.0736038 α      in ANC's #2, #1, #3, ...

........................................................................
.............................. CYCLE   30 ..............................
........................................................................
   1    -83.7477472 -0.837477E+02  0.128E-03    0.21       0.0  T
   2    -83.7477472  0.156917E-07  0.121E-03    0.21      12.8  T
   3    -83.7477473 -0.137373E-06  0.353E-04    0.21      43.7  T
   4    -83.7477474 -0.429721E-08  0.155E-04    0.21      99.6  T
   5    -83.7477474 -0.745644E-10  0.382E-05    0.21     404.3  T
     SCC iter.                  ...        0 min,  0.027 sec
     gradient                   ...        0 min,  0.056 sec
 * total energy  :   -82.9715976 Eh     change       -0.8136361E-05 Eh
   gradient norm :     0.0004471 Eh/α   predicted    -0.3455092E-05 ( -57.54%)
   displ. norm   :     0.0998859 α      lambda       -0.5111164E-05
   maximum displ.:     0.0644722 α      in ANC's #2, #1, #3, ...

........................................................................
.............................. CYCLE   31 ..............................
........................................................................
   1    -83.7478635 -0.837479E+02  0.121E-03    0.21       0.0  T
   2    -83.7478635  0.359054E-07  0.129E-03    0.21      12.0  T
   3    -83.7478637 -0.165128E-06  0.238E-04    0.21      64.8  T
   4    -83.7478637 -0.147891E-08  0.111E-04    0.21     139.0  T
   5    -83.7478637 -0.365503E-10  0.290E-05    0.21     531.4  T
     SCC iter.                  ...        0 min,  0.028 sec
     gradient                   ...        0 min,  0.057 sec
 * total energy  :   -82.9716038 Eh     change       -0.6182201E-05 Eh
   gradient norm :     0.0005064 Eh/α   predicted    -0.2568879E-05 ( -58.45%)
   displ. norm   :     0.0912581 α      lambda       -0.4401687E-05
   maximum displ.:     0.0593623 α      in ANC's #2, #1, #3, ...

........................................................................
.............................. CYCLE   32 ..............................
........................................................................
   1    -83.7478657 -0.837479E+02  0.919E-04    0.21       0.0  T
   2    -83.7478656  0.188684E-07  0.968E-04    0.21      15.9  T
   3    -83.7478657 -0.913964E-07  0.169E-04    0.21      91.3  T
   4    -83.7478657 -0.805343E-09  0.760E-05    0.21     203.0  T
     SCC iter.                  ...        0 min,  0.022 sec
     gradient                   ...        0 min,  0.056 sec
 * total energy  :   -82.9716093 Eh     change       -0.5498876E-05 Eh
   gradient norm :     0.0005398 Eh/α   predicted    -0.2210800E-05 ( -59.80%)
   displ. norm   :     0.0974378 α      lambda       -0.4576726E-05
   maximum displ.:     0.0631717 α      in ANC's #2, #1, #3, ...

........................................................................
.............................. CYCLE   33 ..............................
........................................................................
   1    -83.7478592 -0.837479E+02  0.716E-04    0.21       0.0  T
   2    -83.7478592  0.152968E-08  0.606E-04    0.21      25.5  T
   3    -83.7478592 -0.311373E-07  0.182E-04    0.21      85.0  T
   4    -83.7478592 -0.171693E-08  0.710E-05    0.21     217.4  T
     SCC iter.                  ...        0 min,  0.022 sec
     gradient                   ...        0 min,  0.058 sec
 * total energy  :   -82.9716149 Eh     change       -0.5645594E-05 Eh
   gradient norm :     0.0004916 Eh/α   predicted    -0.2300113E-05 ( -59.26%)
   displ. norm   :     0.1073189 α      lambda       -0.4433590E-05
   maximum displ.:     0.0692459 α      in ANC's #2, #1, #4, ...

........................................................................
.............................. CYCLE   34 ..............................
........................................................................
   1    -83.7477583 -0.837478E+02  0.654E-04    0.21       0.0  T
   2    -83.7477583 -0.115374E-07  0.272E-04    0.21      56.8  T
   3    -83.7477583 -0.101679E-08  0.143E-04    0.21     108.2  T
   4    -83.7477583  0.345366E-09  0.105E-04    0.21     147.2  T
     SCC iter.                  ...        0 min,  0.022 sec
     gradient                   ...        0 min,  0.058 sec
 * total energy  :   -82.9716202 Eh     change       -0.5248902E-05 Eh
   gradient norm :     0.0003760 Eh/α   predicted    -0.2229258E-05 ( -57.53%)
   displ. norm   :     0.1033323 α      lambda       -0.3419376E-05
   maximum displ.:     0.0670195 α      in ANC's #1, #2, #4, ...

........................................................................
.............................. CYCLE   35 ..............................
........................................................................
   1    -83.7476870 -0.837477E+02  0.641E-04    0.21       0.0  T
   2    -83.7476870 -0.768425E-08  0.358E-04    0.21      43.1  T
   3    -83.7476870 -0.579556E-08  0.211E-04    0.21      73.0  T
   4    -83.7476870 -0.258491E-08  0.998E-05    0.21     154.5  T
   5    -83.7476870 -0.241286E-09  0.201E-05    0.21     766.6  T
     SCC iter.                  ...        0 min,  0.027 sec
     gradient                   ...        0 min,  0.058 sec
 * total energy  :   -82.9716241 Eh     change       -0.3894155E-05 Eh
   gradient norm :     0.0003418 Eh/α   predicted    -0.1719205E-05 ( -55.85%)
   displ. norm   :     0.0853617 α      lambda       -0.2250545E-05
   maximum displ.:     0.0562941 α      in ANC's #1, #2, #4, ...

   *** GEOMETRY OPTIMIZATION CONVERGED AFTER 35 ITERATIONS ***

------------------------------------------------------------------------
 total energy gain   :        -0.0297277 Eh      -18.6544 kcal/mol
 total RMSD          :         0.6050453 a0        0.3202 Å
 total power (kW/mol):        -2.2300030 (step)  -19.0376 (real)
------------------------------------------------------------------------

 ANCopt (total)                0 d,  0 h,  0 min,  4.100 sec
 optimizer setup                ...        0 min,  0.001 sec (  0.020%)
 model hessian                  ...        0 min,  0.040 sec (  0.968%)
 ANC generation                 ...        0 min,  0.006 sec (  0.137%)
 coordinate transformation      ...        0 min,  0.001 sec (  0.018%)
 single point calculation       ...        0 min,  4.041 sec ( 98.557%)
 optimization log               ...        0 min,  0.007 sec (  0.173%)
 hessian update                 ...        0 min,  0.001 sec (  0.017%)
 rational function              ...        0 min,  0.003 sec (  0.068%)

================
 final structure:
================
42
 xtb: 6.5.1 (579679a)
C            6.68299258816393        1.50020354445952        0.86292723142604
O            5.51365223152455        1.44143437495207        0.05514186925684
C            4.49800763721693        0.68996986259782        0.53702404647820
O            4.60221707664515        0.10057547547605        1.60475885524348
C            3.31227026524433        0.65391417085724       -0.31300907325565
N            2.30922928325142       -0.13660931933492        0.20903810201730
C            1.19916255497263       -0.28039940521582       -0.40967124649267
C            0.13064827950844       -1.19778990910043        0.14443484788202
C            0.01523985145669       -2.44255702001045       -0.74456054062223
C            0.45836525496514       -1.56080047599579        1.59370198582741
N           -1.15113193429587       -0.44759073854575        0.10407475577329
C           -2.32871259395440       -0.89823020596435        0.45537646890655
O           -2.43885697676820       -2.11099147507133        0.91706651100612
C           -3.69470856410969       -2.68546427728020        1.30777558640937
C           -3.45556763507714       -0.00938492486784        0.30613732057308
N           -4.71581136740407       -0.20160625969629        0.59124290857618
N           -5.36973030099963        0.92767228110574        0.26053316314783
C           -4.48206763425430        1.76004596348527       -0.21301124378436
C           -4.70702840948646        3.12867996949578       -0.71505145975524
O           -3.25550869417422        1.22373194119494       -0.20670943768395
N            0.94712572658392        0.33187741926611       -1.62315691339038
C            1.85409608472405        1.15077985854970       -2.25916323171488
O            1.55927787185506        1.66152872853753       -3.33230364505170
C            3.17868805211687        1.34263785594331       -1.54922265070864
O            4.03434212373813        2.06556595778919       -2.08305788290780
H            7.39865824887399        2.13502093474900        0.34156894161192
H            6.45212656308542        1.92725774959786        1.84361604761295
H            7.10538369788183        0.50053491389080        1.00345740531825
H            0.99187229503869       -2.92164004265948       -0.80351558858596
H           -0.30187345828695       -2.15792187978343       -1.74569944288549
H           -0.69901501400874       -3.15177624399098       -0.33517482909839
H            1.45782890125359       -1.99406055658481        1.62527803064151
H           -0.25633997766960       -2.27943404577247        1.98514891390118
H            0.44488480563796       -0.66446066053051        2.21160515411904
H           -1.12217324750415        0.50688838410633       -0.23287890849147
H           -4.13117187524054       -2.11030340703491        2.12560594765359
H           -3.46285295492788       -3.69874035866228        1.63020260326388
H           -4.37946298996960       -2.69745454188092        0.45866617261965
H           -5.76272989957223        3.37787408793460       -0.63946619647942
H           -4.38453239164941        3.19768969455595       -1.75435034188077
H           -4.11757473743901        3.83845935687900       -0.13396338838364
H            0.07078226305016        0.18487022255224       -2.09096384809719
 
 Bond Distances (Angstroems)
 ---------------------------
C1-O2=1.4224         C1-H26=1.0895        C1-H27=1.0943        C1-H28=1.0943        O2-C1=1.4224         O2-C3=1.3522         
C3-O2=1.3522         C3-O4=1.2241         C3-C5=1.4594         O4-C3=1.2241         C5-C3=1.4594         C5-N6=1.3797         
C5-C24=1.4214        N6-C5=1.3797         N6-C7=1.2790         C7-N6=1.2790         C7-C8=1.5134         C7-N21=1.3824        
C8-C7=1.5134         C8-C9=1.5340         C8-C10=1.5296        C8-N11=1.4857        C9-C8=1.5340         C9-H29=1.0894        
C9-H30=1.0881        C9-H31=1.0866        C10-C8=1.5296        C10-H32=1.0898       C10-H33=1.0865       C10-H34=1.0888       
N11-C8=1.4857        N11-C12=1.3089       N11-H35=1.0126       C12-N11=1.3089       C12-O13=1.3023       C12-C15=1.4430       
O13-C12=1.3023       O13-C14=1.4352       C14-O13=1.4352       C14-H36=1.0909       C14-H37=1.0883       C14-H38=1.0909       
C15-C12=1.4430       C15-N16=1.3063       C15-O20=1.3504       N16-C15=1.3063       N16-N17=1.3462       N17-N16=1.3462       
N17-C18=1.3058       C18-N17=1.3058       C18-C19=1.4751       C18-O20=1.3387       C19-C18=1.4751       C19-H39=1.0873       
C19-H40=1.0904       C19-H41=1.0904       O20-C15=1.3504       O20-C18=1.3387       N21-C7=1.3824        N21-C22=1.3776       
N21-H42=1.0042       C22-N21=1.3776       C22-O23=1.2245       C22-C24=1.5150       O23-C22=1.2245       C24-C5=1.4214        
C24-C22=1.5150       C24-O25=1.2409       O25-C24=1.2409       H26-C1=1.0895        H27-C1=1.0943        H28-C1=1.0943        
H29-C9=1.0894        H30-C9=1.0881        H31-C9=1.0866        H32-C10=1.0898       H33-C10=1.0865       H34-C10=1.0888       
H35-N11=1.0126       H36-C14=1.0909       H37-C14=1.0883       H38-C14=1.0909       H39-C19=1.0873       H40-C19=1.0904       
H41-C19=1.0904       H42-N21=1.0042       
 C  H  Rav=1.0897 sigma=0.0023  Rmin=1.0865  Rmax=1.0943    15
 C  C  Rav=1.4863 sigma=0.0398  Rmin=1.4214  Rmax=1.5340     8
 N  H  Rav=1.0084 sigma=0.0042  Rmin=1.0042  Rmax=1.0126     2
 N  C  Rav=1.3532 sigma=0.0629  Rmin=1.2790  Rmax=1.4857     8
 N  N  Rav=1.3462 sigma=0.0000  Rmin=1.3462  Rmax=1.3462     1
 O  C  Rav=1.3212 sigma=0.0753  Rmin=1.2241  Rmax=1.4352     9
 
 selected bond angles (degree)
 --------------------
H26-C1-O2=107.00               H27-C1-O2=110.59               H27-C1-H26=109.88              H28-C1-O2=110.64               
H28-C1-H26=109.89              H28-C1-H27=108.84              C3-O2-C1=115.98                O4-C3-O2=120.96                
C5-C3-O2=114.61                C5-C3-O4=124.43                N6-C5-C3=112.61                C24-C5-C3=124.82               
C24-C5-N6=122.57               C7-N6-C5=120.82                C8-C7-N6=120.25                N21-C7-N6=122.22               
N21-C7-C8=117.46               C9-C8-C7=109.44                C10-C8-C7=109.85               C10-C8-C9=111.88               
N11-C8-C7=107.04               N11-C8-C9=109.21               N11-C8-C10=109.29              H29-C9-C8=108.71               
H30-C9-C8=110.05               H30-C9-H29=109.06              H31-C9-C8=111.15               H31-C9-H29=108.82              
H31-C9-H30=109.02              H32-C10-C8=108.56              H33-C10-C8=110.94              H33-C10-H32=109.26             
H34-C10-C8=109.86              H34-C10-H32=108.80             H34-C10-H33=109.38             
 
 selected dihedral angles (degree)
 ---------------------------------
C3-O2-C1-H26=179.90           C3-O2-C1-H27=299.55           C3-O2-C1-H28= 60.21           O4-C3-O2-C1=359.77            
C5-C3-O2-C1=179.82            N6-C5-C3-O2=179.25            N6-C5-C3-O4=359.30            C24-C5-C3-O2=359.47           
C24-C5-C3-O4=179.52           C7-N6-C5-C3=180.07            C7-N6-C5-C24=359.85           C8-C7-N6-C5=177.34            
N21-C7-N6-C5=  0.42           C9-C8-C7-N6=250.70            C9-C8-C7-N21= 67.77           C10-C8-C7-N6= 13.90           
C10-C8-C7-N21=190.97          N11-C8-C7-N6=132.46           N11-C8-C7-N21=309.53          H29-C9-C8-C7= 56.50           
H29-C9-C8-C10=294.52          H29-C9-C8-N11=173.38          H30-C9-C8-C7=297.12           H30-C9-C8-C10=175.13          
H30-C9-C8-N11= 54.00          H31-C9-C8-C7=176.25           H31-C9-C8-C10= 54.27          H31-C9-C8-N11=293.13          
H32-C10-C8-C7=304.42          H32-C10-C8-C9= 66.17          H32-C10-C8-N11=187.25         H33-C10-C8-C7=184.34          
H33-C10-C8-C9=306.10          H33-C10-C8-N11= 67.18         H34-C10-C8-C7= 63.28          H34-C10-C8-C9=185.03          
H34-C10-C8-N11=306.11         
           -------------------------------------------------
          |                Final Singlepoint                |
           -------------------------------------------------

          ...................................................
          :                      SETUP                      :
          :.................................................:
          :  # basis functions                 134          :
          :  # atomic orbitals                 134          :
          :  # shells                           84          :
          :  # electrons                       134          :
          :  # halogen bonds                     0          :
          :  max. iterations                   250          :
          :  Hamiltonian                  GFN1-xTB          :
          :  restarted?                      false          :
          :  GBSA solvation                   true          :
          :  PC potential                    false          :
          :  electronic temp.          300.0000000     K    :
          :  accuracy                    1.0000000          :
          :  -> integral cutoff          0.2500000E+02      :
          :  -> integral neglect         0.1000000E-07      :
          :  -> SCF convergence          0.1000000E-05 Eh   :
          :  -> wf. convergence          0.2000000E-04 e    :
          :  Broyden damping             0.4000000          :
          ...................................................

 iter      E             dE          RMSdq      gap      omega  full diag
   1    -83.7476870 -0.837477E+02  0.544E-06    0.21       0.0  T
   2    -83.7476870 -0.127898E-12  0.295E-06    0.21    5238.2  T
   3    -83.7476870  0.852651E-13  0.166E-06    0.21    9307.8  T

   *** convergence criteria satisfied after 3 iterations ***

         #    Occupation            Energy/Eh            Energy/eV
      -------------------------------------------------------------
         1        2.0000           -0.8978974             -24.4330
       ...           ...                  ...                  ...
        61        2.0000           -0.4699358             -12.7876
        62        2.0000           -0.4670930             -12.7102
        63        2.0000           -0.4520860             -12.3019
        64        2.0000           -0.4438026             -12.0765
        65        2.0000           -0.4299509             -11.6996
        66        2.0000           -0.3889880             -10.5849
        67        1.9685           -0.3768600             -10.2549 (HOMO)
        68        0.0315           -0.3690052             -10.0411 (LUMO)
        69                         -0.2843610              -7.7379
        70                         -0.2790270              -7.5927
        71                         -0.2544931              -6.9251
        72                         -0.2494222              -6.7871
       ...                                ...                  ...
       134                          0.7545460              20.5322
      -------------------------------------------------------------
                  HL-Gap            0.0078548 Eh            0.2137 eV
             Fermi-level           -0.3729326 Eh          -10.1480 eV

 SCC (total)                   0 d,  0 h,  0 min,  0.102 sec
 SCC setup                      ...        0 min,  0.002 sec (  1.630%)
 Dispersion                     ...        0 min,  0.000 sec (  0.241%)
 classical contributions        ...        0 min,  0.000 sec (  0.084%)
 integral evaluation            ...        0 min,  0.025 sec ( 24.057%)
 iterations                     ...        0 min,  0.016 sec ( 16.060%)
 molecular gradient             ...        0 min,  0.058 sec ( 56.687%)
 printout                       ...        0 min,  0.001 sec (  1.211%)

         :::::::::::::::::::::::::::::::::::::::::::::::::::::
         ::                     SUMMARY                     ::
         :::::::::::::::::::::::::::::::::::::::::::::::::::::
         :: total energy             -82.971624080428 Eh    ::
         :: total w/o Gsasa/hb       -82.949344867127 Eh    ::
         :: gradient norm              0.000342572577 Eh/a0 ::
         :: HOMO-LUMO gap              0.213739103333 eV    ::
         ::.................................................::
         :: SCC energy               -83.747687008656 Eh    ::
         :: -> electrostatic           0.429713544512 Eh    ::
         :: -> Gsolv                  -0.104161238404 Eh    ::
         ::    -> Gelec               -0.081882025102 Eh    ::
         ::    -> Gsasa               -0.025377961905 Eh    ::
         ::    -> Ghb                 -0.004525530401 Eh    ::
         ::    -> Gshift               0.007624279005 Eh    ::
         :: repulsion energy           0.801417849821 Eh    ::
         :: dispersion energy         -0.025354921593 Eh    ::
         :: halogen bond corr.         0.000000000000 Eh    ::
         :: add. restraining           0.000000000000 Eh    ::
         :: total charge               0.000000000000 e     ::
         :::::::::::::::::::::::::::::::::::::::::::::::::::::

           -------------------------------------------------
          |                Property Printout                |
           -------------------------------------------------

    * Orbital Energies and Occupations

         #    Occupation            Energy/Eh            Energy/eV
      -------------------------------------------------------------
         1        2.0000           -0.8978974             -24.4330
       ...           ...                  ...                  ...
        55        2.0000           -0.5075793             -13.8119
        56        2.0000           -0.5028624             -13.6836
        57        2.0000           -0.4982171             -13.5572
        58        2.0000           -0.4919451             -13.3865
        59        2.0000           -0.4835566             -13.1582
        60        2.0000           -0.4797560             -13.0548
        61        2.0000           -0.4699358             -12.7876
        62        2.0000           -0.4670930             -12.7102
        63        2.0000           -0.4520860             -12.3019
        64        2.0000           -0.4438026             -12.0765
        65        2.0000           -0.4299509             -11.6996
        66        2.0000           -0.3889880             -10.5849
        67        1.9685           -0.3768600             -10.2549 (HOMO)
        68        0.0315           -0.3690052             -10.0411 (LUMO)
        69                         -0.2843610              -7.7379
        70                         -0.2790270              -7.5927
        71                         -0.2544931              -6.9251
        72                         -0.2494222              -6.7871
        73                         -0.2056863              -5.5970
        74                         -0.1585280              -4.3138
        75                         -0.1521750              -4.1409
        76                         -0.1363004              -3.7089
        77                         -0.1340224              -3.6469
        78                         -0.1238830              -3.3710
       ...                                ...                  ...
       134                          0.7545460              20.5322
      -------------------------------------------------------------
                  HL-Gap            0.0078548 Eh            0.2137 eV
             Fermi-level           -0.3729326 Eh          -10.1480 eV

  Mulliken/CM5 charges         n(s)   n(p)   n(d)
     1C     0.17060  0.05100   0.973  2.857  0.000
     2O    -0.42657 -0.50941   1.687  4.740  0.000
     3C     0.55112  0.61632   0.974  2.475  0.000
     4O    -0.61765 -0.66107   1.734  4.884  0.000
     5C    -0.01260  0.06365   1.040  2.972  0.000
     6N    -0.36770 -0.55415   1.530  3.838  0.000
     7C     0.23041  0.38079   0.996  2.774  0.000
     8C     0.14269  0.18028   1.076  2.781  0.000
     9C    -0.10962 -0.24934   1.022  3.087  0.000
    10C    -0.09745 -0.23548   1.017  3.080  0.000
    11N    -0.25173 -0.60912   1.440  3.811  0.000
    12C     0.43977  0.54744   0.979  2.582  0.000
    13O    -0.35854 -0.45173   1.663  4.696  0.000
    14C     0.15120  0.03103   0.994  2.854  0.000
    15C     0.33254  0.45508   0.983  2.685  0.000
    16N    -0.18851 -0.30150   1.562  3.626  0.000
    17N    -0.23002 -0.33646   1.556  3.674  0.000
    18C     0.40949  0.51649   1.016  2.574  0.000
    19C    -0.11145 -0.24874   1.015  3.097  0.000
    20O    -0.34013 -0.39779   1.691  4.649  0.000
    21N    -0.32734 -0.67393   1.437  3.891  0.000
    22C     0.43302  0.53577   1.012  2.555  0.000
    23O    -0.59367 -0.63155   1.733  4.861  0.000
    24C     0.29410  0.33978   1.033  2.673  0.000
    25O    -0.61778 -0.65611   1.741  4.876  0.000
    26H     0.03828  0.09850   0.962  0.000  0.000
    27H     0.03619  0.09787   0.964  0.000  0.000
    28H     0.03621  0.09791   0.964  0.000  0.000
    29H     0.06221  0.11714   0.938  0.000  0.000
    30H     0.05423  0.11276   0.946  0.000  0.000
    31H     0.05941  0.11991   0.941  0.000  0.000
    32H     0.06059  0.11931   0.939  0.000  0.000
    33H     0.05063  0.11062   0.949  0.000  0.000
    34H     0.05185  0.11028   0.948  0.000  0.000
    35H     0.29253  0.50064   0.707  0.000  0.000
    36H     0.06853  0.13288   0.931  0.000  0.000
    37H     0.08489  0.14555   0.915  0.000  0.000
    38H     0.06912  0.13352   0.931  0.000  0.000
    39H     0.08183  0.13766   0.918  0.000  0.000
    40H     0.09520  0.14972   0.905  0.000  0.000
    41H     0.09414  0.14862   0.906  0.000  0.000
    42H     0.26002  0.46584   0.740  0.000  0.000

Wiberg/Mayer (AO) data.
largest (>0.10) Wiberg bond orders for each atom

 ---------------------------------------------------------------------------
     #   Z sym  total        # sym  WBO       # sym  WBO       # sym  WBO
 ---------------------------------------------------------------------------
     1   6 C    3.895 --    26 H    0.987    27 H    0.980    28 H    0.980
                             2 O    0.920
     2   8 O    2.168 --     3 C    1.060     1 C    0.920     4 O    0.113
     3   6 C    3.850 --     4 O    1.584     5 C    1.099     2 O    1.060
     4   8 O    1.855 --     3 C    1.584     2 O    0.113
     5   6 C    3.895 --    24 C    1.260     6 N    1.165     3 C    1.099
                            25 O    0.124
     6   7 N    3.036 --     7 C    1.628     5 C    1.165
     7   6 C    3.924 --     6 N    1.628    21 N    1.089     8 C    0.978
     8   6 C    3.893 --    10 C    0.989     9 C    0.979     7 C    0.978
                            11 N    0.875
     9   6 C    3.981 --    30 H    0.983    29 H    0.981    31 H    0.981
                             8 C    0.979
    10   6 C    3.983 --     8 C    0.989    33 H    0.984    34 H    0.984
                            32 H    0.979
    11   7 N    3.471 --    12 C    1.454     8 C    0.875    35 H    0.874
                            13 O    0.108
    12   6 C    3.879 --    11 N    1.454    13 O    1.188    15 C    1.090
    13   8 O    2.270 --    12 C    1.188    14 C    0.864    11 N    0.108
    14   6 C    3.831 --    37 H    0.980    36 H    0.974    38 H    0.974
                            13 O    0.864
    15   6 C    3.881 --    16 N    1.542    12 C    1.090    20 O    1.046
    16   7 N    3.014 --    15 C    1.542    17 N    1.248
    17   7 N    2.986 --    18 C    1.553    16 N    1.248
    18   6 C    3.847 --    17 N    1.553    20 O    1.086    19 C    1.039
    19   6 C    3.979 --    18 C    1.039    39 H    0.980    41 H    0.955
                            40 H    0.955
    20   8 O    2.329 --    18 C    1.086    15 C    1.046
    21   7 N    3.411 --    22 C    1.143     7 C    1.089    42 H    0.896
                            23 O    0.133
    22   6 C    3.871 --    23 O    1.599    21 N    1.143    24 C    0.962
    23   8 O    1.875 --    22 C    1.599    21 N    0.133
    24   6 C    3.937 --    25 O    1.537     5 C    1.260    22 C    0.962
    25   8 O    1.832 --    24 C    1.537     5 C    0.124
    26   1 H    1.015 --     1 C    0.987
    27   1 H    1.013 --     1 C    0.980
    28   1 H    1.013 --     1 C    0.980
    29   1 H    1.000 --     9 C    0.981
    30   1 H    0.999 --     9 C    0.983
    31   1 H    1.003 --     9 C    0.981
    32   1 H    1.012 --    10 C    0.979
    33   1 H    1.004 --    10 C    0.984
    34   1 H    1.004 --    10 C    0.984
    35   1 H    0.925 --    11 N    0.874
    36   1 H    1.009 --    14 C    0.974
    37   1 H    1.003 --    14 C    0.980
    38   1 H    1.008 --    14 C    0.974
    39   1 H    0.995 --    19 C    0.980
    40   1 H    0.992 --    19 C    0.955
    41   1 H    0.992 --    19 C    0.955
    42   1 H    0.940 --    21 N    0.896
 ---------------------------------------------------------------------------

Topologies differ in total number of bonds
Writing topology from bond orders to xtbtopo.mol

 dipole moment from electron density (au)
     X       Y       Z   
 -10.2743  -2.6242   2.1536  total (Debye):   27.503

           -------------------------------------------------
          |                Geometry Summary                 |
           -------------------------------------------------

      molecular mass/u    :      351.3152409
   center of mass at/Å    :        0.2154469       0.2405795      -0.1752625
  moments of inertia/u·Å² :        0.1275284E+04   0.4815854E+04   0.5453090E+04
rotational constants/cm⁻¹ :        0.1321873E-01   0.3500445E-02   0.3091391E-02

 * 37 selected distances

     #   Z          #   Z                                           value/Å
     1   6 C        2   8 O                                       1.4224374
     2   8 O        3   6 C                                       1.3521996
     3   6 C        4   8 O                                       1.2240520
     6   7 N        7   6 C                                       1.2789548
     8   6 C        9   6 C                                       1.5339744 (max)
     8   6 C       10   6 C                                       1.5295590
    11   7 N       12   6 C                                       1.3088871
    12   6 C       13   8 O                                       1.3023362
    13   8 O       14   6 C                                       1.4352129
    12   6 C       15   6 C                                       1.4429556
    15   6 C       16   7 N                                       1.3063111
    17   7 N       18   6 C                                       1.3057701
    18   6 C       19   6 C                                       1.4750631
    15   6 C       20   8 O                                       1.3504121
    18   6 C       20   8 O                                       1.3387007
     7   6 C       21   7 N                                       1.3823723
    21   7 N       22   6 C                                       1.3775706
    22   6 C       23   8 O                                       1.2245051
     5   6 C       24   6 C                                       1.4214109
    24   6 C       25   8 O                                       1.2408663
     1   6 C       26   1 H                                       1.0894885
     1   6 C       27   1 H                                       1.0942693
     1   6 C       28   1 H                                       1.0943037
     9   6 C       29   1 H                                       1.0894069
     9   6 C       30   1 H                                       1.0880521
     9   6 C       31   1 H                                       1.0866227
    10   6 C       32   1 H                                       1.0897886
    10   6 C       33   1 H                                       1.0864938
    10   6 C       34   1 H                                       1.0887660
    11   7 N       35   1 H                                       1.0126238
    14   6 C       36   1 H                                       1.0909432
    14   6 C       37   1 H                                       1.0883220
    14   6 C       38   1 H                                       1.0908801
    19   6 C       39   1 H                                       1.0873439
    19   6 C       40   1 H                                       1.0903708
    19   6 C       41   1 H                                       1.0903697
    21   7 N       42   1 H                                       1.0042074 (min)

 * 5 distinct bonds (by element types)

   Z      Z             #   av. dist./Å        max./Å        min./Å
   1 H    6 C          15     1.0896947     1.0943037     1.0864938
   6 C    6 C           5     1.4805926     1.5339744     1.4214109
   1 H    7 N           2     1.0084156     1.0126238     1.0042074
   6 C    7 N           6     1.3266443     1.3823723     1.2789548
   6 C    8 O           9     1.3211914     1.4352129     1.2240520


optimized geometry written to: xtbopt.xyz


           -------------------------------------------------
          | TOTAL ENERGY              -82.971624080428 Eh   |
          | GRADIENT NORM               0.000342572577 Eh/α |
          | HOMO-LUMO GAP               0.213739103333 eV   |
           -------------------------------------------------

------------------------------------------------------------------------
 * finished run on 2023/06/21 at 17:18:11.676     
------------------------------------------------------------------------
 total:
 * wall-time:     0 d,  0 h,  0 min,  4.523 sec
 *  cpu-time:     0 d,  0 h,  0 min,  4.436 sec
 * ratio c/w:     0.981 speedup
 SCF:
 * wall-time:     0 d,  0 h,  0 min,  0.197 sec
 *  cpu-time:     0 d,  0 h,  0 min,  0.196 sec
 * ratio c/w:     0.997 speedup
 ANC optimizer:
 * wall-time:     0 d,  0 h,  0 min,  4.207 sec
 *  cpu-time:     0 d,  0 h,  0 min,  4.201 sec
 * ratio c/w:     0.998 speedup

