42
 energy: -82.998294715887 gnorm: 0.000797389972 xtb: 6.5.1 (579679a)
C           -5.23488906129405        2.67114334959479        0.03821630190894
O           -4.58229810132358        1.44801447197692       -0.31985163667017
C           -3.26541815311588        1.40923198960942       -0.17426533226183
O           -2.61792258754952        2.34129560826793        0.24922818648337
C           -2.68580178375262        0.10911231983589       -0.63115755083021
C           -3.24135185252040       -0.63619439027321       -1.62730396601963
O           -4.38913524118955       -0.33189129424714       -2.23939412836009
C           -2.56571297494263       -1.84249456714995       -2.13176082322879
O           -3.10752740370632       -2.52393109286692       -2.99559257734697
N           -1.33500073194210       -2.10342654081966       -1.60458059821465
C           -0.82409597936438       -1.37584175890934       -0.64906224040328
C            0.55267668834049       -1.84765620952294       -0.18449150615575
C            0.38618426443222       -2.74219386032147        1.05414553913935
C            1.21871074705263       -2.65914884509067       -1.30764687598244
N            1.39432382367767       -0.67901696781506        0.08518925236705
C            2.62914101261932       -0.75648252602760        0.63644750819050
O            3.13670033961243       -1.75322221855788        1.11361096836369
C            3.28999032953553        0.57322419226033        0.61306597717041
N            2.79293599910197        1.66690044683998        0.11757818313999
N            3.72572298258246        2.64163361112316        0.30409840402069
C            4.73356786982809        2.07996009600653        0.90149309168498
C            6.00181831352613        2.71250695708973        1.32537660813297
O            4.51816168979993        0.77506306190731        1.12263640205969
N           -1.46448855610419       -0.31710143077206       -0.09918830457599
C           -0.98686262255623        0.36431149128340        1.10861013555670
H           -4.99526974922874        2.93470470090067        1.07066484287304
H           -6.30290364730250        2.49482871214166       -0.07141315144536
H           -4.91111105984867        3.47543560211415       -0.62614960109213
H           -4.55393547539760       -1.02032758854466       -2.91632903862880
H           -0.38432687696099       -3.48354337404360        0.84749498971611
H            1.31924947446633       -3.25729567863501        1.27267116038082
H            0.09397440383879       -2.16745048571370        1.92939402516466
H            2.21825062063211       -2.95324024788416       -0.99254349610978
H            0.63349415862298       -3.55192413032097       -1.51893777378813
H            1.28949772066168       -2.05968636482502       -2.21329046908136
H            1.17356375287291        0.17178534969637       -0.41187243563557
H            5.98817500749175        3.76934469071144        1.06907798705993
H            6.84341881774950        2.22687242851504        0.83038414274134
H            6.13249297421576        2.59818064845681        2.40195074981515
H           -0.51114771564174        1.30691221377637        0.84048120313509
H           -1.83581636751329        0.55534064934965        1.76154680378610
H           -0.27703304940672       -0.26373001911478        1.63244904294100
