      -----------------------------------------------------------      
     |                   =====================                   |     
     |                           x T B                           |     
     |                   =====================                   |     
     |                         S. Grimme                         |     
     |          Mulliken Center for Theoretical Chemistry        |     
     |                    University of Bonn                     |     
      -----------------------------------------------------------      

   * xtb version 6.5.1 (579679a) compiled by 'ehlert@majestix' on 2022-07-11

   xtb is free software: you can redistribute it and/or modify it under
   the terms of the GNU Lesser General Public License as published by
   the Free Software Foundation, either version 3 of the License, or
   (at your option) any later version.
   
   xtb is distributed in the hope that it will be useful,
   but WITHOUT ANY WARRANTY; without even the implied warranty of
   MERCHANTABILITY or FITNESS FOR A PARTICULAR PURPOSE.  See the
   GNU Lesser General Public License for more details.
   
   Cite this work as:
   * C. Bannwarth, E. Caldeweyher, S. Ehlert, A. Hansen, P. Pracht,
     J. Seibert, S. Spicher, S. Grimme, WIREs Comput. Mol. Sci., 2020, 11,
     e01493. DOI: 10.1002/wcms.1493
   
   for GFN2-xTB:
   * C. Bannwarth, S. Ehlert and S. Grimme., J. Chem. Theory Comput., 2019,
     15, 1652-1671. DOI: 10.1021/acs.jctc.8b01176
   for GFN1-xTB:
   * S. Grimme, C. Bannwarth, P. Shushkov, J. Chem. Theory Comput., 2017,
     13, 1989-2009. DOI: 10.1021/acs.jctc.7b00118
   for GFN0-xTB:
   * P. Pracht, E. Caldeweyher, S. Ehlert, S. Grimme, ChemRxiv, 2019, preprint.
     DOI: 10.26434/chemrxiv.8326202.v1
   for GFN-FF:
   * S. Spicher and S. Grimme, Angew. Chem. Int. Ed., 2020, 59, 15665-15673.
     DOI: 10.1002/anie.202004239
   
   for ALPB and GBSA implicit solvation:
   * S. Ehlert, M. Stahn, S. Spicher, S. Grimme, J. Chem. Theory Comput.,
     2021, 17, 4250-4261. DOI: 10.1021/acs.jctc.1c00471
   
   for DFT-D4:
   * E. Caldeweyher, C. Bannwarth and S. Grimme, J. Chem. Phys., 2017,
     147, 034112. DOI: 10.1063/1.4993215
   * E. Caldeweyher, S. Ehlert, A. Hansen, H. Neugebauer, S. Spicher,
     C. Bannwarth and S. Grimme, J. Chem. Phys., 2019, 150, 154122.
     DOI: 10.1063/1.5090222
   * E. Caldeweyher, J.-M. Mewes, S. Ehlert and S. Grimme, Phys. Chem. Chem. Phys.
     2020, 22, 8499-8512. DOI: 10.1039/D0CP00502A
   
   for sTDA-xTB:
   * S. Grimme and C. Bannwarth, J. Chem. Phys., 2016, 145, 054103.
     DOI: 10.1063/1.4959605
   
   in the mass-spec context:
   * V. Asgeirsson, C. Bauer and S. Grimme, Chem. Sci., 2017, 8, 4879.
     DOI: 10.1039/c7sc00601b
   * J. Koopman and S. Grimme, ACS Omega 2019, 4, 12, 15120-15133.
     DOI: 10.1021/acsomega.9b02011
   
   for metadynamics refer to:
   * S. Grimme, J. Chem. Theory Comput., 2019, 155, 2847-2862
     DOI: 10.1021/acs.jctc.9b00143
   
   for SPH calculations refer to:
   * S. Spicher and S. Grimme, J. Chem. Theory Comput., 2021, 17, 1701-1714
     DOI: 10.1021/acs.jctc.0c01306
   
   with help from (in alphabetical order)
   P. Atkinson, C. Bannwarth, F. Bohle, G. Brandenburg, E. Caldeweyher
   M. Checinski, S. Dohm, S. Ehlert, S. Ehrlich, I. Gerasimov, C. Hölzer
   A. Katbashev, J. Koopman, C. Lavigne, S. Lehtola, F. März, M. Müller,
   F. Musil, H. Neugebauer, J. Pisarek, C. Plett, P. Pracht, F. Pultar,
   J. Seibert, P. Shushkov, S. Spicher, M. Stahn, M. Steiner, T. Strunk,
   J. Stückrath, T. Rose, and J. Unsleber
   
 * started run on 2023/06/20 at 18:23:53.433     

           -------------------------------------------------
          |                Calculation Setup                |
           -------------------------------------------------

          program call               : /lustre/hpc/kemi/ree/PhD/git/ReactivityQM/dep/xtb-6.5.1/bin/xtb --gfn 1 /lustre/hpc/kemi/ree/PhD/git/ReactivityQM/calculations/R02deprot/reac01prodN15/conf06/R02deprot_reac01prodN15_conf06_gfn1.xyz --opt --vfukui --chrg 0 --uhf 0 --alpb DMSO
          hostname                   : node308
          coordinate file            : /lustre/hpc/kemi/ree/PhD/git/ReactivityQM/calculations/R02deprot/reac01prodN15/conf06/R02deprot_reac01prodN15_conf06_gfn1.xyz
          omp threads                :                     1

   ID    Z sym.   atoms
    1    6 C      1, 3, 5, 6, 8, 9, 12-15, 17, 19, 22, 23
    2    8 O      2, 4, 7, 10, 18, 24
    3    7 N      11, 16, 20, 21, 25
    4    1 H      26-42

           -------------------------------------------------
          |                 G F N 1 - x T B                 |
           -------------------------------------------------

        Reference                      10.1021/acs.jctc.7b00118
      * Hamiltonian:
        H0-scaling (s, p, d)           1.850000    2.250000    2.000000
        zeta-weighting                 0.000000
      * Dispersion:
        s8                             2.400000
        a1                             0.630000
        a2                             5.000000
        s9                             0.000000
      * Repulsion:
        kExp                           1.500000
        rExp                           1.000000
      * Coulomb:
        alpha                          2.000000
        third order                    atomic
        anisotropic                    false
      * Halogen bond correction:
        rad-scale                      1.300000
        damping                        0.440000

      * Solvation model:               ALPB
        Solvent                        DMSO
        Parameter file                 internal GFN1-xTB/ALPB
        Dielectric constant                4.6680E+01
        Reference state                gsolv [1 M gas/solution]
        Free energy shift                  7.6243E-03 Eh       4.7843E+00 kcal/mol
        Temperature                        2.9815E+02 K
        Density                            1.1000E+00 kg/L
        Solvent mass                       7.8130E+01 g/mol
        Interaction kernel             P16
        Born radius scaling (c1)           1.7672E+00
        Born radii integrator          GBOBC
        Born offset                        0.0000E+00 a0       0.0000E+00 AA
        H-bond correction              true
        Ion screening                  false
        Surface tension                    1.0000E-05 Eh       1.5569E+01 dyn/cm
        Grid points                               230 per atom

          ...................................................
          :                      SETUP                      :
          :.................................................:
          :  # basis functions                 134          :
          :  # atomic orbitals                 134          :
          :  # shells                           84          :
          :  # electrons                       134          :
          :  # halogen bonds                     0          :
          :  max. iterations                   250          :
          :  Hamiltonian                  GFN1-xTB          :
          :  restarted?                      false          :
          :  GBSA solvation                   true          :
          :  PC potential                    false          :
          :  electronic temp.          300.0000000     K    :
          :  accuracy                    1.0000000          :
          :  -> integral cutoff          0.2500000E+02      :
          :  -> integral neglect         0.1000000E-07      :
          :  -> SCF convergence          0.1000000E-05 Eh   :
          :  -> wf. convergence          0.2000000E-04 e    :
          :  Broyden damping             0.4000000          :
          ...................................................

 iter      E             dE          RMSdq      gap      omega  full diag
   1    -83.2248537 -0.832249E+02  0.840E+00    0.84       0.0  T
   2    -83.2483515 -0.234977E-01  0.550E+00    0.16       1.0  T
   3    -83.3601293 -0.111778E+00  0.328E+00    0.69       1.0  T
   4    -83.5108898 -0.150760E+00  0.145E+00    0.68       1.0  T
   5    -83.5560182 -0.451284E-01  0.834E-01    0.50       1.0  T
   6    -83.2273551  0.328663E+00  0.223E+00    0.24       1.0  T
   7    -83.5661315 -0.338776E+00  0.735E-01    0.43       1.0  T
   8    -83.5724900 -0.635843E-02  0.607E-01    0.33       1.0  T
   9    -83.5862255 -0.137355E-01  0.357E-01    0.15       1.0  T
  10    -83.5668806  0.193448E-01  0.609E-01    0.04       1.0  T
  11    -83.5908498 -0.239692E-01  0.239E-01    0.12       1.0  T
  12    -83.5946228 -0.377296E-02  0.650E-02    0.09       1.0  T
  13    -83.5927937  0.182908E-02  0.170E-01    0.06       1.0  T
  14    -83.5948932 -0.209948E-02  0.228E-02    0.08       1.0  T
  15    -83.5949283 -0.350482E-04  0.613E-03    0.08       2.5  T
  16    -83.5949307 -0.240120E-05  0.210E-03    0.08       7.4  T
  17    -83.5949290  0.169443E-05  0.524E-03    0.08       2.9  T
  18    -83.5949309 -0.190880E-05  0.119E-03    0.08      13.0  T
  19    -83.5949309 -0.728582E-07  0.659E-04    0.08      23.4  T
  20    -83.5949310 -0.293306E-07  0.192E-04    0.08      80.3  T
  21    -83.5949310 -0.261862E-08  0.352E-05    0.08     437.8  T

   *** convergence criteria satisfied after 21 iterations ***

         #    Occupation            Energy/Eh            Energy/eV
      -------------------------------------------------------------
         1        2.0000           -0.8642375             -23.5171
       ...           ...                  ...                  ...
        61        2.0000           -0.4679155             -12.7326
        62        2.0000           -0.4631970             -12.6042
        63        2.0000           -0.4565175             -12.4225
        64        2.0000           -0.4464453             -12.1484
        65        2.0000           -0.4430452             -12.0559
        66        1.9998           -0.4351430             -11.8408
        67        1.6566           -0.4280268             -11.6472 (HOMO)
        68        0.3437           -0.4250377             -11.5659 (LUMO)
        69                         -0.3386980              -9.2164
        70                         -0.3185091              -8.6671
        71                         -0.2857839              -7.7766
        72                         -0.2608050              -7.0969
       ...                                ...                  ...
       134                          0.6913391              18.8123
      -------------------------------------------------------------
                  HL-Gap            0.0029891 Eh            0.0813 eV
             Fermi-level           -0.4265319 Eh          -11.6065 eV

 SCC (total)                   0 d,  0 h,  0 min,  0.274 sec
 SCC setup                      ...        0 min,  0.002 sec (  0.838%)
 Dispersion                     ...        0 min,  0.000 sec (  0.161%)
 classical contributions        ...        0 min,  0.000 sec (  0.051%)
 integral evaluation            ...        0 min,  0.089 sec ( 32.588%)
 iterations                     ...        0 min,  0.102 sec ( 37.111%)
 molecular gradient             ...        0 min,  0.079 sec ( 28.875%)
 printout                       ...        0 min,  0.001 sec (  0.356%)

         :::::::::::::::::::::::::::::::::::::::::::::::::::::
         ::                     SUMMARY                     ::
         :::::::::::::::::::::::::::::::::::::::::::::::::::::
         :: total energy             -82.856360315238 Eh    ::
         :: total w/o Gsasa/hb       -82.833875352164 Eh    ::
         :: gradient norm              0.141206669609 Eh/a0 ::
         :: HOMO-LUMO gap              0.081337817194 eV    ::
         ::.................................................::
         :: SCC energy               -83.594930970769 Eh    ::
         :: -> electrostatic           0.360675894498 Eh    ::
         :: -> Gsolv                  -0.056053272379 Eh    ::
         ::    -> Gelec               -0.033568309305 Eh    ::
         ::    -> Gsasa               -0.024544651899 Eh    ::
         ::    -> Ghb                 -0.005564590179 Eh    ::
         ::    -> Gshift               0.007624279005 Eh    ::
         :: repulsion energy           0.763896838982 Eh    ::
         :: dispersion energy         -0.025326183451 Eh    ::
         :: halogen bond corr.         0.000000000000 Eh    ::
         :: add. restraining           0.000000000000 Eh    ::
         :: total charge               0.000000000018 e     ::
         :::::::::::::::::::::::::::::::::::::::::::::::::::::

      ----------------------------------------------------------- 
     |                   =====================                   |
     |                        A N C O P T                        |
     |                   =====================                   |
     |               Approximate Normal Coordinate               |
     |                Rational Function Optimizer                |
      ----------------------------------------------------------- 

          ...................................................
          :                      SETUP                      :
          :.................................................:
          :   optimization level            normal          :
          :   max. optcycles                   200          :
          :   ANC micro-cycles                  20          :
          :   degrees of freedom               120          :
          :.................................................:
          :   RF solver                   davidson          :
          :   write xtbopt.log                true          :
          :   linear?                        false          :
          :   energy convergence         0.5000000E-05 Eh   :
          :   grad. convergence          0.1000000E-02 Eh/α :
          :   maximium RF displ.         1.0000000          :
          :   Hlow (freq-cutoff)         0.1000000E-01      :
          :   Hmax (freq-cutoff)         5.0000000          :
          :   S6 in model hess.         20.0000000          :
          ...................................................

generating ANC from model Hessian ...
Using Lindh-Hessian (1995)
 Shifting diagonal of input Hessian by   9.848005496637125E-003
 Lowest  eigenvalues of input Hessian
    0.000000    0.000000    0.000000    0.000000    0.000000    0.000000
    0.010000    0.010190    0.010807    0.011112    0.011815    0.012214
    0.013342    0.014056    0.014726    0.014918    0.016624    0.017695
 Highest eigenvalues
    2.030799    2.035375    2.103193    2.153765    2.304925    2.357138
 

........................................................................
.............................. CYCLE    1 ..............................
........................................................................
   1    -83.5949310 -0.835949E+02  0.132E-05    0.08       0.0  T
   2    -83.5949310  0.161369E-08  0.148E-04    0.08     104.3  T
   3    -83.5949310 -0.162640E-08  0.351E-07    0.08   43959.1  T
     SCC iter.                  ...        0 min,  0.013 sec
     gradient                   ...        0 min,  0.081 sec
 * total energy  :   -82.8563603 Eh     change       -0.9062262E-10 Eh
   gradient norm :     0.1412059 Eh/α   predicted     0.0000000E+00 (-100.00%)
   displ. norm   :     0.3479977 α      lambda       -0.2258475E-01
   maximum displ.:     0.1535840 α      in ANC's #26, #19, #27, ...

........................................................................
.............................. CYCLE    2 ..............................
........................................................................
   1    -83.6190492 -0.836190E+02  0.185E-01    0.29       0.0  T
   2    -83.5752551  0.437941E-01  0.785E-01    0.20       1.0  T
   3    -83.6206051 -0.453500E-01  0.135E-01    0.26       1.0  T
   4    -83.6214017 -0.796644E-03  0.475E-02    0.25       1.0  T
   5    -83.6215396 -0.137850E-03  0.137E-02    0.24       1.1  T
   6    -83.6215362  0.334659E-05  0.115E-02    0.23       1.3  T
   7    -83.6215426 -0.638811E-05  0.330E-03    0.23       4.7  T
   8    -83.6215433 -0.684371E-06  0.353E-04    0.23      43.7  T
   9    -83.6215433  0.104662E-08  0.301E-04    0.23      51.2  T
  10    -83.6215433 -0.116901E-08  0.209E-04    0.23      73.8  T
  11    -83.6215433 -0.289138E-08  0.355E-05    0.23     435.1  T
  12    -83.6215433 -0.761986E-10  0.681E-06    0.23    2267.4  T
     SCC iter.                  ...        0 min,  0.054 sec
     gradient                   ...        0 min,  0.080 sec
 * total energy  :   -82.8756457 Eh     change       -0.1928539E-01 Eh
   gradient norm :     0.0925307 Eh/α   predicted    -0.1267708E-01 ( -34.27%)
   displ. norm   :     0.6873714 α      lambda       -0.3701809E-01
   maximum displ.:     0.2209677 α      in ANC's #19, #26, #39, ...

........................................................................
.............................. CYCLE    3 ..............................
........................................................................
   1    -83.6563256 -0.836563E+02  0.372E-01    0.96       0.0  T
   2    -83.6598219 -0.349623E-02  0.182E-01    0.94       1.0  T
   3    -83.6614564 -0.163450E-02  0.773E-02    0.94       1.0  T
   4    -83.6616033 -0.146905E-03  0.358E-02    0.95       1.0  T
   5    -83.6615982  0.504580E-05  0.141E-02    0.94       1.1  T
   6    -83.6616071 -0.891251E-05  0.174E-03    0.95       8.9  T
   7    -83.6616072 -0.586028E-07  0.522E-04    0.95      29.6  T
   8    -83.6616072 -0.370520E-08  0.233E-04    0.95      66.2  T
   9    -83.6616072 -0.589637E-09  0.748E-05    0.95     206.3  T
  10    -83.6616072 -0.904805E-10  0.175E-05    0.95     880.9  T
     SCC iter.                  ...        0 min,  0.042 sec
     gradient                   ...        0 min,  0.080 sec
 * total energy  :   -82.8930237 Eh     change       -0.1737804E-01 Eh
   gradient norm :     0.1084569 Eh/α   predicted    -0.2725421E-01 (  56.83%)
   displ. norm   :     0.3179240 α      lambda       -0.1205376E-01
   maximum displ.:     0.1588477 α      in ANC's #19, #20, #26, ...

........................................................................
.............................. CYCLE    4 ..............................
........................................................................
   1    -83.6642048 -0.836642E+02  0.169E-01    1.16       0.0  T
   2    -83.6648879 -0.683128E-03  0.138E-01    1.17       1.0  T
   3    -83.6659716 -0.108374E-02  0.140E-02    1.16       1.1  T
   4    -83.6659729 -0.129481E-05  0.798E-03    1.16       1.9  T
   5    -83.6659732 -0.304751E-06  0.299E-03    1.16       5.2  T
   6    -83.6659733 -0.968250E-07  0.602E-04    1.16      25.7  T
   7    -83.6659733 -0.762169E-08  0.181E-04    1.16      85.1  T
   8    -83.6659733 -0.284331E-09  0.558E-05    1.16     276.4  T
     SCC iter.                  ...        0 min,  0.035 sec
     gradient                   ...        0 min,  0.081 sec
 * total energy  :   -82.9037998 Eh     change       -0.1077602E-01 Eh
   gradient norm :     0.0826296 Eh/α   predicted    -0.6636564E-02 ( -38.41%)
   displ. norm   :     0.6893394 α      lambda       -0.3179296E-01
   maximum displ.:     0.2329068 α      in ANC's #19, #24, #45, ...

........................................................................
.............................. CYCLE    5 ..............................
........................................................................
   1    -83.6827945 -0.836828E+02  0.420E-01    1.92       0.0  T
   2    -83.6907151 -0.792063E-02  0.112E-01    1.91       1.0  T
   3    -83.6911466 -0.431423E-03  0.481E-02    1.93       1.0  T
   4    -83.6911605 -0.139258E-04  0.246E-02    1.92       1.0  T
   5    -83.6911608 -0.281461E-06  0.571E-03    1.92       2.7  T
   6    -83.6911613 -0.503601E-06  0.142E-03    1.92      10.8  T
   7    -83.6911613 -0.355801E-07  0.512E-04    1.92      30.1  T
   8    -83.6911613 -0.264279E-08  0.182E-04    1.92      84.6  T
   9    -83.6911613 -0.193353E-09  0.366E-05    1.92     421.1  T
     SCC iter.                  ...        0 min,  0.035 sec
     gradient                   ...        0 min,  0.080 sec
 * total energy  :   -82.9360368 Eh     change       -0.3223700E-01 Eh
   gradient norm :     0.0942253 Eh/α   predicted    -0.2345209E-01 ( -27.25%)
   displ. norm   :     0.9140392 α      lambda       -0.5500537E-01
   maximum displ.:     0.3007127 α      in ANC's #70, #64, #39, ...

........................................................................
.............................. CYCLE    6 ..............................
........................................................................
   1    -83.6541504 -0.836542E+02  0.588E-01    2.00       0.0  T
   2    -83.6755025 -0.213521E-01  0.225E-01    2.23       1.0  T
   3    -83.6765729 -0.107039E-02  0.114E-01    2.22       1.0  T
   4    -83.6765974 -0.244801E-04  0.546E-02    2.22       1.0  T
   5    -83.6766082 -0.107791E-04  0.110E-02    2.22       1.4  T
   6    -83.6766113 -0.311406E-05  0.187E-03    2.22       8.2  T
   7    -83.6766114 -0.571858E-07  0.700E-04    2.22      22.0  T
   8    -83.6766114 -0.631817E-08  0.266E-04    2.22      58.0  T
   9    -83.6766114 -0.533603E-09  0.692E-05    2.22     223.0  T
  10    -83.6766114 -0.522249E-10  0.914E-06    2.22    1689.0  T
     SCC iter.                  ...        0 min,  0.037 sec
     gradient                   ...        0 min,  0.083 sec
 * total energy  :   -82.8782928 Eh     change        0.5774395E-01 Eh
   gradient norm :     0.5013179 Eh/α   predicted    -0.5048201E-01 (-187.42%)
   displ. norm   :     0.5080342 α      lambda       -0.2298452E+00
   maximum displ.:     0.1556222 α      in ANC's #45, #70, #64, ...

........................................................................
.............................. CYCLE    7 ..............................
........................................................................
   1    -83.6887880 -0.836888E+02  0.434E-01    2.20       0.0  T
   2    -83.6981973 -0.940926E-02  0.156E-01    2.16       1.0  T
   3    -83.6986463 -0.448951E-03  0.917E-02    2.16       1.0  T
   4    -83.6986565 -0.102330E-04  0.411E-02    2.16       1.0  T
   5    -83.6986602 -0.367806E-05  0.518E-03    2.16       3.0  T
   6    -83.6986612 -0.101039E-05  0.119E-03    2.16      13.0  T
   7    -83.6986612 -0.246520E-07  0.374E-04    2.16      41.3  T
   8    -83.6986612 -0.182935E-08  0.150E-04    2.16     102.8  T
   9    -83.6986612 -0.330942E-09  0.449E-05    2.16     344.0  T
     SCC iter.                  ...        0 min,  0.037 sec
     gradient                   ...        0 min,  0.080 sec
 * total energy  :   -82.9526249 Eh     change       -0.7433208E-01 Eh
   gradient norm :     0.0958075 Eh/α   predicted    -0.1445808E+00 (  94.51%)
   displ. norm   :     0.6575564 α      lambda       -0.1007162E-01
   maximum displ.:     0.2303809 α      in ANC's #26, #19, #24, ...

........................................................................
.............................. CYCLE    8 ..............................
........................................................................
   1    -83.6798516 -0.836799E+02  0.249E-01    2.24       0.0  T
   2    -83.6836856 -0.383391E-02  0.108E-01    2.24       1.0  T
   3    -83.6839888 -0.303257E-03  0.460E-02    2.23       1.0  T
   4    -83.6839886  0.194414E-06  0.264E-02    2.23       1.0  T
   5    -83.6839922 -0.354527E-05  0.246E-03    2.22       6.3  T
   6    -83.6839924 -0.222587E-06  0.716E-04    2.22      21.6  T
   7    -83.6839924 -0.124340E-07  0.285E-04    2.23      54.2  T
   8    -83.6839924 -0.111838E-08  0.679E-05    2.23     227.3  T
   9    -83.6839924 -0.785150E-10  0.215E-05    2.23     716.4  T
     SCC iter.                  ...        0 min,  0.039 sec
     gradient                   ...        0 min,  0.081 sec
 * total energy  :   -82.9304946 Eh     change        0.2213031E-01 Eh
   gradient norm :     0.2037034 Eh/α   predicted    -0.7213405E-02 (-132.60%)
   displ. norm   :     0.4314122 α      lambda       -0.3940168E-01
   maximum displ.:     0.1722206 α      in ANC's #24, #19, #26, ...

........................................................................
.............................. CYCLE    9 ..............................
........................................................................
   1    -83.7015616 -0.837016E+02  0.172E-01    2.23       0.0  T
   2    -83.7032469 -0.168527E-02  0.681E-02    2.20       1.0  T
   3    -83.7033875 -0.140674E-03  0.261E-02    2.21       1.0  T
   4    -83.7033881 -0.516540E-06  0.153E-02    2.21       1.0  T
   5    -83.7033890 -0.948814E-06  0.177E-03    2.21       8.7  T
   6    -83.7033891 -0.765061E-07  0.441E-04    2.21      35.0  T
   7    -83.7033891 -0.395941E-08  0.168E-04    2.21      91.6  T
   8    -83.7033891 -0.411404E-09  0.400E-05    2.21     385.6  T
     SCC iter.                  ...        0 min,  0.032 sec
     gradient                   ...        0 min,  0.081 sec
 * total energy  :   -82.9542242 Eh     change       -0.2372957E-01 Eh
   gradient norm :     0.1093251 Eh/α   predicted    -0.2336693E-01 (  -1.53%)
   displ. norm   :     0.8050074 α      lambda       -0.8522675E-02
   maximum displ.:     0.4951501 α      in ANC's #19, #20, #14, ...

........................................................................
.............................. CYCLE   10 ..............................
........................................................................
   1    -83.6955510 -0.836956E+02  0.754E-02    2.21       0.0  T
   2    -83.6957878 -0.236762E-03  0.344E-02    2.21       1.0  T
   3    -83.6958089 -0.211272E-04  0.191E-02    2.21       1.0  T
   4    -83.6958093 -0.392514E-06  0.585E-03    2.21       2.6  T
   5    -83.6958095 -0.213796E-06  0.701E-04    2.21      22.0  T
   6    -83.6958095 -0.134096E-07  0.233E-04    2.21      66.1  T
   7    -83.6958095 -0.890836E-09  0.654E-05    2.21     235.8  T
   8    -83.6958095 -0.655263E-10  0.244E-05    2.21     632.2  T
     SCC iter.                  ...        0 min,  0.034 sec
     gradient                   ...        0 min,  0.080 sec
 * total energy  :   -82.9531484 Eh     change        0.1075776E-02 Eh
   gradient norm :     0.1227375 Eh/α   predicted    -0.7022830E-02 (-752.82%)
   displ. norm   :     0.4437047 α      lambda       -0.1455542E-01
   maximum displ.:     0.2312822 α      in ANC's #5, #19, #39, ...

........................................................................
.............................. CYCLE   11 ..............................
........................................................................
   1    -83.7072102 -0.837072E+02  0.137E-01    2.14       0.0  T
   2    -83.7078769 -0.666691E-03  0.606E-02    2.12       1.0  T
   3    -83.7079271 -0.501815E-04  0.335E-02    2.13       1.0  T
   4    -83.7079280 -0.904918E-06  0.102E-02    2.12       1.5  T
   5    -83.7079292 -0.119209E-05  0.147E-03    2.12      10.5  T
   6    -83.7079293 -0.625693E-07  0.417E-04    2.12      37.0  T
   7    -83.7079293 -0.295292E-08  0.962E-05    2.12     160.4  T
   8    -83.7079293 -0.120565E-09  0.201E-05    2.12     766.7  T
     SCC iter.                  ...        0 min,  0.031 sec
     gradient                   ...        0 min,  0.080 sec
 * total energy  :   -82.9535197 Eh     change       -0.3712730E-03 Eh
   gradient norm :     0.0867752 Eh/α   predicted    -0.8710504E-02 (2246.12%)
   displ. norm   :     0.3015156 α      lambda       -0.1255946E-01
   maximum displ.:     0.1198124 α      in ANC's #24, #38, #26, ...

........................................................................
.............................. CYCLE   12 ..............................
........................................................................
   1    -83.7078282 -0.837078E+02  0.102E-01    2.17       0.0  T
   2    -83.7082131 -0.384901E-03  0.425E-02    2.19       1.0  T
   3    -83.7082568 -0.437291E-04  0.212E-02    2.19       1.0  T
   4    -83.7082571 -0.265516E-06  0.611E-03    2.19       2.5  T
   5    -83.7082576 -0.507625E-06  0.780E-04    2.19      19.8  T
   6    -83.7082576 -0.157257E-07  0.245E-04    2.19      63.0  T
   7    -83.7082576 -0.989644E-09  0.806E-05    2.19     191.5  T
   8    -83.7082576 -0.114184E-09  0.242E-05    2.19     638.3  T
     SCC iter.                  ...        0 min,  0.029 sec
     gradient                   ...        0 min,  0.080 sec
 * total energy  :   -82.9590341 Eh     change       -0.5514420E-02 Eh
   gradient norm :     0.0813765 Eh/α   predicted    -0.6850614E-02 (  24.23%)
   displ. norm   :     0.1755748 α      lambda       -0.2231072E-02
   maximum displ.:     0.0863153 α      in ANC's #28, #39, #19, ...

........................................................................
.............................. CYCLE   13 ..............................
........................................................................
   1    -83.7085125 -0.837085E+02  0.210E-02    2.19       0.0  T
   2    -83.7085231 -0.105107E-04  0.111E-02    2.19       1.4  T
   3    -83.7085242 -0.113809E-05  0.616E-03    2.19       2.5  T
   4    -83.7085243 -0.920974E-07  0.947E-04    2.19      16.3  T
   5    -83.7085243 -0.157519E-07  0.272E-04    2.19      56.8  T
   6    -83.7085243 -0.929575E-09  0.732E-05    2.19     210.7  T
   7    -83.7085243 -0.563034E-10  0.231E-05    2.19     667.7  T
     SCC iter.                  ...        0 min,  0.028 sec
     gradient                   ...        0 min,  0.080 sec
 * total energy  :   -82.9602493 Eh     change       -0.1215215E-02 Eh
   gradient norm :     0.0721762 Eh/α   predicted    -0.1149943E-02 (  -5.37%)
   displ. norm   :     0.1324560 α      lambda       -0.1581463E-02
   maximum displ.:     0.0507894 α      in ANC's #19, #3, #11, ...

........................................................................
.............................. CYCLE   14 ..............................
........................................................................
   1    -83.7137186 -0.837137E+02  0.242E-02    2.19       0.0  T
   2    -83.7137426 -0.239982E-04  0.113E-02    2.19       1.4  T
   3    -83.7137444 -0.177897E-05  0.626E-03    2.19       2.5  T
   4    -83.7137445 -0.495576E-07  0.199E-03    2.19       7.8  T
   5    -83.7137445 -0.275543E-07  0.214E-04    2.19      72.0  T
   6    -83.7137445 -0.176510E-08  0.632E-05    2.19     244.2  T
   7    -83.7137445 -0.761844E-10  0.272E-05    2.19     568.1  T
     SCC iter.                  ...        0 min,  0.029 sec
     gradient                   ...        0 min,  0.080 sec
 * total energy  :   -82.9615170 Eh     change       -0.1267726E-02 Eh
   gradient norm :     0.0637235 Eh/α   predicted    -0.8046097E-03 ( -36.53%)
   displ. norm   :     0.3523581 α      lambda       -0.4234205E-02
   maximum displ.:     0.1391672 α      in ANC's #28, #3, #4, ...

........................................................................
.............................. CYCLE   15 ..............................
........................................................................
   1    -83.7216309 -0.837216E+02  0.399E-02    2.19       0.0  T
   2    -83.7217015 -0.705665E-04  0.187E-02    2.19       1.0  T
   3    -83.7217075 -0.608681E-05  0.926E-03    2.19       1.7  T
   4    -83.7217075  0.950719E-08  0.225E-03    2.19       6.9  T
   5    -83.7217076 -0.773008E-07  0.394E-04    2.19      39.2  T
   6    -83.7217076 -0.463639E-08  0.929E-05    2.19     166.1  T
   7    -83.7217076 -0.134833E-09  0.459E-05    2.19     336.0  T
     SCC iter.                  ...        0 min,  0.027 sec
     gradient                   ...        0 min,  0.080 sec
 * total energy  :   -82.9644374 Eh     change       -0.2920437E-02 Eh
   gradient norm :     0.0394690 Eh/α   predicted    -0.2379963E-02 ( -18.51%)
   displ. norm   :     0.2640761 α      lambda       -0.3241803E-02
   maximum displ.:     0.0966905 α      in ANC's #3, #26, #4, ...

........................................................................
.............................. CYCLE   16 ..............................
........................................................................
   1    -83.7311381 -0.837311E+02  0.400E-02    2.20       0.0  T
   2    -83.7311853 -0.472277E-04  0.193E-02    2.21       1.0  T
   3    -83.7311898 -0.450304E-05  0.102E-02    2.21       1.5  T
   4    -83.7311902 -0.426757E-06  0.305E-03    2.21       5.1  T
   5    -83.7311903 -0.453482E-07  0.486E-04    2.21      31.7  T
   6    -83.7311903 -0.532306E-08  0.144E-04    2.21     107.1  T
   7    -83.7311903 -0.298883E-09  0.617E-05    2.21     250.2  T
     SCC iter.                  ...        0 min,  0.026 sec
     gradient                   ...        0 min,  0.080 sec
 * total energy  :   -82.9660840 Eh     change       -0.1646553E-02 Eh
   gradient norm :     0.0248676 Eh/α   predicted    -0.1733942E-02 (   5.31%)
   displ. norm   :     0.2697505 α      lambda       -0.1670431E-02
   maximum displ.:     0.0998243 α      in ANC's #4, #28, #3, ...

........................................................................
.............................. CYCLE   17 ..............................
........................................................................
   1    -83.7264140 -0.837264E+02  0.351E-02    2.21       0.0  T
   2    -83.7264410 -0.269838E-04  0.190E-02    2.21       1.0  T
   3    -83.7264435 -0.249212E-05  0.969E-03    2.21       1.6  T
   4    -83.7264439 -0.490262E-06  0.229E-03    2.21       6.7  T
   5    -83.7264440 -0.420836E-07  0.466E-04    2.21      33.1  T
   6    -83.7264440 -0.513890E-08  0.939E-05    2.21     164.3  T
   7    -83.7264440 -0.226464E-09  0.422E-05    2.21     366.1  T
     SCC iter.                  ...        0 min,  0.026 sec
     gradient                   ...        0 min,  0.080 sec
 * total energy  :   -82.9663862 Eh     change       -0.3022243E-03 Eh
   gradient norm :     0.0277599 Eh/α   predicted    -0.8959920E-03 ( 196.47%)
   displ. norm   :     0.1191664 α      lambda       -0.1174586E-02
   maximum displ.:     0.0424004 α      in ANC's #28, #19, #7, ...

........................................................................
.............................. CYCLE   18 ..............................
........................................................................
   1    -83.7276906 -0.837277E+02  0.206E-02    2.21       0.0  T
   2    -83.7276940 -0.332007E-05  0.117E-02    2.21       1.3  T
   3    -83.7276939  0.139269E-07  0.503E-03    2.21       3.1  T
   4    -83.7276943 -0.345314E-06  0.843E-04    2.21      18.3  T
   5    -83.7276943 -0.618350E-08  0.213E-04    2.21      72.5  T
   6    -83.7276943 -0.717506E-09  0.733E-05    2.21     210.6  T
   7    -83.7276943 -0.100954E-09  0.206E-05    2.21     747.9  T
     SCC iter.                  ...        0 min,  0.026 sec
     gradient                   ...        0 min,  0.080 sec
 * total energy  :   -82.9670337 Eh     change       -0.6474911E-03 Eh
   gradient norm :     0.0075967 Eh/α   predicted    -0.5956396E-03 (  -8.01%)
   displ. norm   :     0.1363083 α      lambda       -0.3293714E-03
   maximum displ.:     0.0475641 α      in ANC's #19, #5, #7, ...

........................................................................
.............................. CYCLE   19 ..............................
........................................................................
   1    -83.7273184 -0.837273E+02  0.112E-02    2.22       0.0  T
   2    -83.7273225 -0.409411E-05  0.482E-03    2.22       3.2  T
   3    -83.7273229 -0.434734E-06  0.264E-03    2.22       5.8  T
   4    -83.7273230 -0.477762E-07  0.880E-04    2.22      17.5  T
   5    -83.7273230 -0.254832E-08  0.128E-04    2.22     120.1  T
   6    -83.7273230 -0.327248E-09  0.354E-05    2.22     435.9  T
     SCC iter.                  ...        0 min,  0.025 sec
     gradient                   ...        0 min,  0.081 sec
 * total energy  :   -82.9672773 Eh     change       -0.2435469E-03 Eh
   gradient norm :     0.0064224 Eh/α   predicted    -0.1677500E-03 ( -31.12%)
   displ. norm   :     0.2046635 α      lambda       -0.2896893E-03
   maximum displ.:     0.0774016 α      in ANC's #7, #5, #4, ...

........................................................................
.............................. CYCLE   20 ..............................
........................................................................
   1    -83.7258784 -0.837259E+02  0.144E-02    2.22       0.0  T
   2    -83.7258878 -0.942965E-05  0.551E-03    2.23       2.8  T
   3    -83.7258887 -0.923808E-06  0.255E-03    2.23       6.1  T
   4    -83.7258888 -0.366698E-07  0.111E-03    2.23      13.9  T
   5    -83.7258888 -0.393790E-08  0.208E-04    2.23      74.3  T
   6    -83.7258888 -0.838000E-09  0.465E-05    2.23     332.1  T
   7    -83.7258888 -0.557918E-10  0.188E-05    2.23     822.1  T
     SCC iter.                  ...        0 min,  0.029 sec
     gradient                   ...        0 min,  0.080 sec
 * total energy  :   -82.9674559 Eh     change       -0.1786782E-03 Eh
   gradient norm :     0.0057040 Eh/α   predicted    -0.1509165E-03 ( -15.54%)
   displ. norm   :     0.1147062 α      lambda       -0.1016887E-03
   maximum displ.:     0.0540465 α      in ANC's #7, #5, #6, ...
 * RMSD in coord.:     0.4268451 α      energy gain  -0.1110956E+00 Eh

generating ANC from model Hessian ...
Using Lindh-Hessian (1995)
 Shifting diagonal of input Hessian by   9.842768350057573E-003
 Lowest  eigenvalues of input Hessian
    0.000000    0.000000    0.000000    0.000000    0.000000    0.000000
    0.010000    0.010223    0.010776    0.011136    0.011623    0.012190
    0.013000    0.013636    0.014584    0.015359    0.016386    0.018274
 Highest eigenvalues
    2.055296    2.111542    2.130539    2.178986    2.391465    2.430004
 

........................................................................
.............................. CYCLE   21 ..............................
........................................................................
   1    -83.7266670 -0.837267E+02  0.761E-03    2.23       0.0  T
   2    -83.7266694 -0.241700E-05  0.256E-03    2.23       6.0  T
   3    -83.7266696 -0.188917E-06  0.142E-03    2.23      10.9  T
   4    -83.7266696 -0.107662E-07  0.599E-04    2.23      25.7  T
   5    -83.7266696 -0.800000E-09  0.937E-05    2.23     164.7  T
   6    -83.7266696 -0.223977E-09  0.165E-05    2.23     934.8  T
     SCC iter.                  ...        0 min,  0.024 sec
     gradient                   ...        0 min,  0.081 sec
 * total energy  :   -82.9675362 Eh     change       -0.8022265E-04 Eh
   gradient norm :     0.0048784 Eh/α   predicted     0.0000000E+00 (-100.00%)
   displ. norm   :     0.0661230 α      lambda       -0.1011899E-03
   maximum displ.:     0.0369004 α      in ANC's #7, #5, #19, ...

........................................................................
.............................. CYCLE   22 ..............................
........................................................................
   1    -83.7277466 -0.837277E+02  0.337E-03    2.24       0.0  T
   2    -83.7277473 -0.651231E-06  0.166E-03    2.23       9.3  T
   3    -83.7277474 -0.727291E-07  0.757E-04    2.23      20.4  T
   4    -83.7277474 -0.162183E-08  0.356E-04    2.23      43.4  T
   5    -83.7277474 -0.327475E-09  0.585E-05    2.23     263.7  T
   6    -83.7277474 -0.740954E-10  0.135E-05    2.23    1147.1  T
     SCC iter.                  ...        0 min,  0.027 sec
     gradient                   ...        0 min,  0.082 sec
 * total energy  :   -82.9676266 Eh     change       -0.9040661E-04 Eh
   gradient norm :     0.0031946 Eh/α   predicted    -0.5121950E-04 ( -43.35%)
   displ. norm   :     0.3107882 α      lambda       -0.3631456E-03
   maximum displ.:     0.1746640 α      in ANC's #7, #5, #19, ...

........................................................................
.............................. CYCLE   23 ..............................
........................................................................
   1    -83.7286932 -0.837287E+02  0.127E-02    2.24       0.0  T
   2    -83.7287029 -0.969555E-05  0.645E-03    2.24       2.4  T
   3    -83.7287039 -0.106636E-05  0.293E-03    2.24       5.3  T
   4    -83.7287039 -0.223631E-07  0.138E-03    2.24      11.2  T
   5    -83.7287039 -0.504565E-08  0.189E-04    2.24      81.6  T
   6    -83.7287039 -0.655376E-09  0.473E-05    2.24     326.4  T
     SCC iter.                  ...        0 min,  0.029 sec
     gradient                   ...        0 min,  0.082 sec
 * total energy  :   -82.9678594 Eh     change       -0.2328694E-03 Eh
   gradient norm :     0.0034326 Eh/α   predicted    -0.1991427E-03 ( -14.48%)
   displ. norm   :     0.1777091 α      lambda       -0.9639176E-04
   maximum displ.:     0.1041199 α      in ANC's #5, #7, #11, ...

........................................................................
.............................. CYCLE   24 ..............................
........................................................................
   1    -83.7280119 -0.837280E+02  0.441E-03    2.24       0.0  T
   2    -83.7280130 -0.103335E-05  0.237E-03    2.24       6.5  T
   3    -83.7280131 -0.111923E-06  0.117E-03    2.24      13.2  T
   4    -83.7280131 -0.184430E-08  0.474E-04    2.24      32.6  T
   5    -83.7280131 -0.933767E-09  0.502E-05    2.24     307.6  T
   6    -83.7280131 -0.693916E-10  0.168E-05    2.24     917.6  T
     SCC iter.                  ...        0 min,  0.029 sec
     gradient                   ...        0 min,  0.083 sec
 * total energy  :   -82.9679327 Eh     change       -0.7326883E-04 Eh
   gradient norm :     0.0049718 Eh/α   predicted    -0.4972486E-04 ( -32.13%)
   displ. norm   :     0.2225235 α      lambda       -0.1259815E-03
   maximum displ.:     0.1291716 α      in ANC's #5, #7, #1, ...

........................................................................
.............................. CYCLE   25 ..............................
........................................................................
   1    -83.7272970 -0.837273E+02  0.425E-03    2.25       0.0  T
   2    -83.7272975 -0.498310E-06  0.139E-03    2.25      11.1  T
   3    -83.7272975 -0.138695E-07  0.780E-04    2.25      19.8  T
   4    -83.7272975 -0.911598E-09  0.242E-04    2.25      63.9  T
   5    -83.7272975 -0.762867E-09  0.355E-05    2.25     434.5  T
   6    -83.7272975 -0.333529E-10  0.167E-05    2.25     922.1  T
     SCC iter.                  ...        0 min,  0.029 sec
     gradient                   ...        0 min,  0.082 sec
 * total energy  :   -82.9680314 Eh     change       -0.9867030E-04 Eh
   gradient norm :     0.0056509 Eh/α   predicted    -0.6615003E-04 ( -32.96%)
   displ. norm   :     0.2721411 α      lambda       -0.1614366E-03
   maximum displ.:     0.1617420 α      in ANC's #5, #7, #1, ...

........................................................................
.............................. CYCLE   26 ..............................
........................................................................
   1    -83.7267959 -0.837268E+02  0.965E-03    2.26       0.0  T
   2    -83.7268000 -0.410015E-05  0.262E-03    2.26       5.9  T
   3    -83.7268002 -0.210503E-06  0.151E-03    2.26      10.2  T
   4    -83.7268002 -0.250950E-07  0.757E-04    2.26      20.4  T
   5    -83.7268002 -0.998483E-09  0.110E-04    2.26     140.3  T
   6    -83.7268002 -0.266866E-09  0.314E-05    2.26     491.5  T
     SCC iter.                  ...        0 min,  0.029 sec
     gradient                   ...        0 min,  0.082 sec
 * total energy  :   -82.9681532 Eh     change       -0.1217782E-03 Eh
   gradient norm :     0.0058898 Eh/α   predicted    -0.8669701E-04 ( -28.81%)
   displ. norm   :     0.2884163 α      lambda       -0.1534004E-03
   maximum displ.:     0.1736737 α      in ANC's #5, #7, #1, ...

........................................................................
.............................. CYCLE   27 ..............................
........................................................................
   1    -83.7269421 -0.837269E+02  0.140E-02    2.27       0.0  T
   2    -83.7269518 -0.972182E-05  0.445E-03    2.27       3.5  T
   3    -83.7269526 -0.808364E-06  0.215E-03    2.27       7.2  T
   4    -83.7269527 -0.581762E-07  0.110E-03    2.27      14.1  T
   5    -83.7269527 -0.169176E-08  0.156E-04    2.27      98.8  T
   6    -83.7269527 -0.514731E-09  0.422E-05    2.27     366.0  T
     SCC iter.                  ...        0 min,  0.028 sec
     gradient                   ...        0 min,  0.082 sec
 * total energy  :   -82.9682586 Eh     change       -0.1054131E-03 Eh
   gradient norm :     0.0069989 Eh/α   predicted    -0.8308093E-04 ( -21.19%)
   displ. norm   :     0.2189206 α      lambda       -0.1235143E-03
   maximum displ.:     0.1301516 α      in ANC's #5, #1, #7, ...

........................................................................
.............................. CYCLE   28 ..............................
........................................................................
   1    -83.7282310 -0.837282E+02  0.151E-02    2.28       0.0  T
   2    -83.7282427 -0.116732E-04  0.568E-03    2.29       2.7  T
   3    -83.7282439 -0.123043E-05  0.258E-03    2.29       6.0  T
   4    -83.7282439 -0.545848E-07  0.128E-03    2.29      12.1  T
   5    -83.7282439 -0.291703E-08  0.170E-04    2.29      90.9  T
   6    -83.7282439 -0.669885E-09  0.507E-05    2.29     304.1  T
     SCC iter.                  ...        0 min,  0.028 sec
     gradient                   ...        0 min,  0.082 sec
 * total energy  :   -82.9683554 Eh     change       -0.9685918E-04 Eh
   gradient norm :     0.0061224 Eh/α   predicted    -0.6474527E-04 ( -33.16%)
   displ. norm   :     0.5021513 α      lambda       -0.2101204E-03
   maximum displ.:     0.2964528 α      in ANC's #5, #1, #7, ...

........................................................................
.............................. CYCLE   29 ..............................
........................................................................
   1    -83.7259066 -0.837259E+02  0.264E-02    2.31       0.0  T
   2    -83.7259401 -0.335536E-04  0.967E-03    2.31       1.6  T
   3    -83.7259442 -0.408946E-05  0.447E-03    2.31       3.5  T
   4    -83.7259444 -0.207215E-06  0.201E-03    2.31       7.7  T
   5    -83.7259444 -0.762799E-08  0.358E-04    2.31      43.1  T
   6    -83.7259444 -0.262590E-08  0.912E-05    2.31     169.1  T
   7    -83.7259444 -0.175660E-09  0.398E-05    2.31     387.4  T
     SCC iter.                  ...        0 min,  0.031 sec
     gradient                   ...        0 min,  0.080 sec
 * total energy  :   -82.9683833 Eh     change       -0.2783821E-04 Eh
   gradient norm :     0.0169423 Eh/α   predicted    -0.1315534E-03 ( 372.56%)
   displ. norm   :     0.1360676 α      lambda       -0.3953732E-03
   maximum displ.:     0.0744285 α      in ANC's #7, #5, #8, ...

........................................................................
.............................. CYCLE   30 ..............................
........................................................................
   1    -83.7319993 -0.837320E+02  0.138E-02    2.32       0.0  T
   2    -83.7320024 -0.309888E-05  0.670E-03    2.32       2.3  T
   3    -83.7320025 -0.108893E-06  0.350E-03    2.32       4.4  T
   4    -83.7320026 -0.432603E-07  0.759E-04    2.32      20.3  T
   5    -83.7320026 -0.978666E-08  0.126E-04    2.32     122.2  T
   6    -83.7320026 -0.482004E-09  0.363E-05    2.32     425.3  T
     SCC iter.                  ...        0 min,  0.025 sec
     gradient                   ...        0 min,  0.080 sec
 * total energy  :   -82.9685432 Eh     change       -0.1598940E-03 Eh
   gradient norm :     0.0067678 Eh/α   predicted    -0.2014889E-03 (  26.01%)
   displ. norm   :     0.1084205 α      lambda       -0.9189923E-04
   maximum displ.:     0.0538675 α      in ANC's #1, #5, #7, ...

........................................................................
.............................. CYCLE   31 ..............................
........................................................................
   1    -83.7306029 -0.837306E+02  0.558E-03    2.32       0.0  T
   2    -83.7306043 -0.140825E-05  0.242E-03    2.32       6.4  T
   3    -83.7306044 -0.898605E-07  0.140E-03    2.32      11.0  T
   4    -83.7306044 -0.603723E-08  0.486E-04    2.32      31.8  T
   5    -83.7306044 -0.150767E-08  0.103E-04    2.32     149.9  T
   6    -83.7306044 -0.339952E-09  0.255E-05    2.32     604.5  T
     SCC iter.                  ...        0 min,  0.024 sec
     gradient                   ...        0 min,  0.080 sec
 * total energy  :   -82.9686165 Eh     change       -0.7337071E-04 Eh
   gradient norm :     0.0036546 Eh/α   predicted    -0.4649425E-04 ( -36.63%)
   displ. norm   :     0.3451118 α      lambda       -0.2118299E-03
   maximum displ.:     0.1897914 α      in ANC's #1, #5, #7, ...

........................................................................
.............................. CYCLE   32 ..............................
........................................................................
   1    -83.7281302 -0.837281E+02  0.192E-02    2.33       0.0  T
   2    -83.7281407 -0.105324E-04  0.825E-03    2.33       1.9  T
   3    -83.7281418 -0.106439E-05  0.468E-03    2.33       3.3  T
   4    -83.7281420 -0.182167E-06  0.137E-03    2.33      11.2  T
   5    -83.7281420 -0.815812E-08  0.283E-04    2.33      54.6  T
   6    -83.7281420 -0.197450E-08  0.545E-05    2.33     283.1  T
   7    -83.7281420 -0.929674E-10  0.223E-05    2.33     690.9  T
     SCC iter.                  ...        0 min,  0.026 sec
     gradient                   ...        0 min,  0.080 sec
 * total energy  :   -82.9686757 Eh     change       -0.5919401E-04 Eh
   gradient norm :     0.0140414 Eh/α   predicted    -0.1185358E-03 ( 100.25%)
   displ. norm   :     0.1060219 α      lambda       -0.1697565E-03
   maximum displ.:     0.0688780 α      in ANC's #5, #7, #17, ...

........................................................................
.............................. CYCLE   33 ..............................
........................................................................
   1    -83.7292950 -0.837293E+02  0.925E-03    2.32       0.0  T
   2    -83.7292975 -0.249284E-05  0.387E-03    2.32       4.0  T
   3    -83.7292978 -0.280908E-06  0.220E-03    2.32       7.0  T
   4    -83.7292978 -0.488353E-07  0.688E-04    2.32      22.4  T
   5    -83.7292978 -0.140501E-08  0.134E-04    2.32     115.4  T
   6    -83.7292978 -0.334410E-09  0.220E-05    2.32     702.8  T
     SCC iter.                  ...        0 min,  0.022 sec
     gradient                   ...        0 min,  0.080 sec
 * total energy  :   -82.9687698 Eh     change       -0.9410494E-04 Eh
   gradient norm :     0.0054193 Eh/α   predicted    -0.8583633E-04 (  -8.79%)
   displ. norm   :     0.1088750 α      lambda       -0.8032074E-04
   maximum displ.:     0.0735497 α      in ANC's #1, #4, #20, ...

........................................................................
.............................. CYCLE   34 ..............................
........................................................................
   1    -83.7299200 -0.837299E+02  0.316E-03    2.32       0.0  T
   2    -83.7299204 -0.398279E-06  0.138E-03    2.32      11.2  T
   3    -83.7299205 -0.437456E-07  0.708E-04    2.32      21.8  T
   4    -83.7299205 -0.239008E-08  0.257E-04    2.32      59.9  T
   5    -83.7299205 -0.209781E-09  0.344E-05    2.32     448.2  T
   6    -83.7299205 -0.457732E-10  0.138E-05    2.32    1116.6  T
     SCC iter.                  ...        0 min,  0.024 sec
     gradient                   ...        0 min,  0.080 sec
 * total energy  :   -82.9688417 Eh     change       -0.7189220E-04 Eh
   gradient norm :     0.0046356 Eh/α   predicted    -0.4063940E-04 ( -43.47%)
   displ. norm   :     0.4878420 α      lambda       -0.3170162E-03
   maximum displ.:     0.3374966 α      in ANC's #1, #4, #20, ...

........................................................................
.............................. CYCLE   35 ..............................
........................................................................
   1    -83.7287656 -0.837288E+02  0.180E-02    2.33       0.0  T
   2    -83.7287757 -0.100954E-04  0.824E-03    2.33       1.9  T
   3    -83.7287767 -0.107005E-05  0.431E-03    2.33       3.6  T
   4    -83.7287769 -0.171941E-06  0.129E-03    2.33      11.9  T
   5    -83.7287769 -0.556960E-08  0.259E-04    2.33      59.6  T
   6    -83.7287769 -0.162618E-08  0.665E-05    2.33     231.9  T
   7    -83.7287769 -0.134321E-09  0.244E-05    2.33     633.0  T
     SCC iter.                  ...        0 min,  0.028 sec
     gradient                   ...        0 min,  0.080 sec
 * total energy  :   -82.9690470 Eh     change       -0.2052678E-03 Eh
   gradient norm :     0.0126443 Eh/α   predicted    -0.1962356E-03 (  -4.40%)
   displ. norm   :     0.1844368 α      lambda       -0.2181943E-03
   maximum displ.:     0.1179083 α      in ANC's #1, #4, #5, ...

........................................................................
.............................. CYCLE   36 ..............................
........................................................................
   1    -83.7299398 -0.837299E+02  0.711E-03    2.32       0.0  T
   2    -83.7299414 -0.159873E-05  0.302E-03    2.32       5.1  T
   3    -83.7299416 -0.179779E-06  0.158E-03    2.32       9.7  T
   4    -83.7299416 -0.638281E-08  0.527E-04    2.32      29.3  T
   5    -83.7299416 -0.276333E-08  0.977E-05    2.32     158.0  T
   6    -83.7299416 -0.184187E-09  0.226E-05    2.32     681.7  T
     SCC iter.                  ...        0 min,  0.022 sec
     gradient                   ...        0 min,  0.081 sec
 * total energy  :   -82.9692145 Eh     change       -0.1675502E-03 Eh
   gradient norm :     0.0077633 Eh/α   predicted    -0.1128102E-03 ( -32.67%)
   displ. norm   :     0.4725032 α      lambda       -0.2992348E-03
   maximum displ.:     0.3451106 α      in ANC's #1, #4, #20, ...

........................................................................
.............................. CYCLE   37 ..............................
........................................................................
   1    -83.7268206 -0.837268E+02  0.144E-02    2.31       0.0  T
   2    -83.7268278 -0.717831E-05  0.550E-03    2.31       2.8  T
   3    -83.7268282 -0.393029E-06  0.270E-03    2.31       5.7  T
   4    -83.7268282 -0.335875E-07  0.105E-03    2.31      14.6  T
   5    -83.7268283 -0.103481E-07  0.218E-04    2.31      70.9  T
   6    -83.7268283 -0.100643E-08  0.549E-05    2.31     281.0  T
   7    -83.7268283 -0.795950E-10  0.183E-05    2.31     843.0  T
     SCC iter.                  ...        0 min,  0.050 sec
     gradient                   ...        0 min,  0.118 sec
 * total energy  :   -82.9693918 Eh     change       -0.1772609E-03 Eh
   gradient norm :     0.0144847 Eh/α   predicted    -0.1830206E-03 (   3.25%)
   displ. norm   :     0.2876956 α      lambda       -0.4983768E-03
   maximum displ.:     0.1859604 α      in ANC's #1, #5, #4, ...

........................................................................
.............................. CYCLE   38 ..............................
........................................................................
   1    -83.7286105 -0.837286E+02  0.260E-02    2.28       0.0  T
   2    -83.7286316 -0.211122E-04  0.118E-02    2.28       1.3  T
   3    -83.7286341 -0.246072E-05  0.624E-03    2.28       2.5  T
   4    -83.7286343 -0.241816E-06  0.222E-03    2.28       6.9  T
   5    -83.7286343 -0.220993E-07  0.244E-04    2.28      63.1  T
   6    -83.7286343 -0.111071E-08  0.796E-05    2.28     193.9  T
   7    -83.7286343 -0.950564E-10  0.204E-05    2.28     755.0  T
     SCC iter.                  ...        0 min,  0.027 sec
     gradient                   ...        0 min,  0.081 sec
 * total energy  :   -82.9694950 Eh     change       -0.1032219E-03 Eh
   gradient norm :     0.0157860 Eh/α   predicted    -0.2698181E-03 ( 161.40%)
   displ. norm   :     0.2614628 α      lambda       -0.3503792E-03
   maximum displ.:     0.1921841 α      in ANC's #1, #4, #5, ...

........................................................................
.............................. CYCLE   39 ..............................
........................................................................
   1    -83.7274872 -0.837275E+02  0.153E-02    2.29       0.0  T
   2    -83.7274932 -0.606923E-05  0.676E-03    2.29       2.3  T
   3    -83.7274938 -0.547939E-06  0.364E-03    2.29       4.2  T
   4    -83.7274939 -0.134725E-06  0.104E-03    2.29      14.8  T
   5    -83.7274939 -0.435659E-08  0.257E-04    2.29      59.9  T
   6    -83.7274939 -0.141465E-08  0.463E-05    2.29     333.2  T
   7    -83.7274939 -0.752891E-10  0.161E-05    2.29     959.0  T
     SCC iter.                  ...        0 min,  0.027 sec
     gradient                   ...        0 min,  0.081 sec
 * total energy  :   -82.9697108 Eh     change       -0.2157669E-03 Eh
   gradient norm :     0.0122902 Eh/α   predicted    -0.1871764E-03 ( -13.25%)
   displ. norm   :     0.1600315 α      lambda       -0.1681157E-03
   maximum displ.:     0.0846039 α      in ANC's #1, #5, #7, ...

........................................................................
.............................. CYCLE   40 ..............................
........................................................................
   1    -83.7292308 -0.837292E+02  0.120E-02    2.30       0.0  T
   2    -83.7292354 -0.461272E-05  0.447E-03    2.30       3.5  T
   3    -83.7292358 -0.318459E-06  0.260E-03    2.30       5.9  T
   4    -83.7292358 -0.256102E-07  0.935E-04    2.30      16.5  T
   5    -83.7292358 -0.483361E-08  0.120E-04    2.30     129.0  T
   6    -83.7292358 -0.600664E-09  0.383E-05    2.30     402.7  T
     SCC iter.                  ...        0 min,  0.022 sec
     gradient                   ...        0 min,  0.081 sec
 * total energy  :   -82.9698225 Eh     change       -0.1117426E-03 Eh
   gradient norm :     0.0094009 Eh/α   predicted    -0.8621176E-04 ( -22.85%)
   displ. norm   :     0.3554050 α      lambda       -0.1998106E-03
   maximum displ.:     0.2875469 α      in ANC's #1, #4, #7, ...

........................................................................
.............................. CYCLE   41 ..............................
........................................................................
   1    -83.7289027 -0.837289E+02  0.108E-02    2.29       0.0  T
   2    -83.7289064 -0.369514E-05  0.460E-03    2.29       3.4  T
   3    -83.7289068 -0.323992E-06  0.232E-03    2.29       6.6  T
   4    -83.7289068 -0.188647E-07  0.551E-04    2.29      28.0  T
   5    -83.7289068 -0.133079E-08  0.127E-04    2.29     121.6  T
   6    -83.7289068 -0.427804E-09  0.289E-05    2.29     533.4  T
     SCC iter.                  ...        0 min,  0.022 sec
     gradient                   ...        0 min,  0.081 sec
 * total energy  :   -82.9699504 Eh     change       -0.1278954E-03 Eh
   gradient norm :     0.0145956 Eh/α   predicted    -0.1125255E-03 ( -12.02%)
   displ. norm   :     0.2291257 α      lambda       -0.3013161E-03
   maximum displ.:     0.1789786 α      in ANC's #1, #4, #15, ...

........................................................................
.............................. CYCLE   42 ..............................
........................................................................
   1    -83.7338106 -0.837338E+02  0.137E-02    2.29       0.0  T
   2    -83.7338153 -0.469828E-05  0.579E-03    2.29       2.7  T
   3    -83.7338156 -0.331487E-06  0.325E-03    2.29       4.8  T
   4    -83.7338157 -0.177981E-07  0.612E-04    2.29      25.2  T
   5    -83.7338157 -0.357765E-08  0.119E-04    2.29     130.1  T
   6    -83.7338157 -0.445965E-09  0.355E-05    2.29     434.1  T
     SCC iter.                  ...        0 min,  0.023 sec
     gradient                   ...        0 min,  0.081 sec
 * total energy  :   -82.9700945 Eh     change       -0.1440610E-03 Eh
   gradient norm :     0.0097113 Eh/α   predicted    -0.1585711E-03 (  10.07%)
   displ. norm   :     0.3908608 α      lambda       -0.2447045E-03
   maximum displ.:     0.3165536 α      in ANC's #1, #4, #7, ...
 * RMSD in coord.:     0.6499867 α      energy gain  -0.2638549E-02 Eh

generating ANC from model Hessian ...
Using Lindh-Hessian (1995)
 Shifting diagonal of input Hessian by   9.835430377347472E-003
 Lowest  eigenvalues of input Hessian
    0.000000    0.000000    0.000000    0.000000    0.000000    0.000000
    0.010000    0.010249    0.010797    0.011095    0.011574    0.012220
    0.013137    0.013724    0.014715    0.015402    0.016627    0.018333
 Highest eigenvalues
    2.057062    2.109132    2.130805    2.190840    2.394825    2.431350
 

........................................................................
.............................. CYCLE   43 ..............................
........................................................................
   1    -83.7298867 -0.837299E+02  0.109E-02    2.29       0.0  T
   2    -83.7298898 -0.305091E-05  0.483E-03    2.30       3.2  T
   3    -83.7298900 -0.153526E-06  0.248E-03    2.30       6.2  T
   4    -83.7298900 -0.203114E-07  0.634E-04    2.30      24.3  T
   5    -83.7298900 -0.356501E-08  0.131E-04    2.30     117.6  T
   6    -83.7298900 -0.476561E-09  0.417E-05    2.30     370.1  T
     SCC iter.                  ...        0 min,  0.023 sec
     gradient                   ...        0 min,  0.080 sec
 * total energy  :   -82.9702658 Eh     change       -0.1713115E-03 Eh
   gradient norm :     0.0095966 Eh/α   predicted     0.0000000E+00 (-100.00%)
   displ. norm   :     0.0622304 α      lambda       -0.1502710E-03
   maximum displ.:     0.0236909 α      in ANC's #20, #5, #13, ...

........................................................................
.............................. CYCLE   44 ..............................
........................................................................
   1    -83.7314533 -0.837315E+02  0.444E-03    2.30       0.0  T
   2    -83.7314538 -0.501346E-06  0.218E-03    2.30       7.1  T
   3    -83.7314538 -0.515122E-07  0.125E-03    2.30      12.3  T
   4    -83.7314538 -0.106167E-07  0.308E-04    2.30      50.1  T
   5    -83.7314538 -0.110533E-08  0.790E-05    2.30     195.3  T
   6    -83.7314538 -0.821956E-10  0.189E-05    2.30     815.4  T
     SCC iter.                  ...        0 min,  0.022 sec
     gradient                   ...        0 min,  0.081 sec
 * total energy  :   -82.9703980 Eh     change       -0.1322095E-03 Eh
   gradient norm :     0.0041073 Eh/α   predicted    -0.8496301E-04 ( -35.74%)
   displ. norm   :     0.1400413 α      lambda       -0.1998155E-03
   maximum displ.:     0.0603820 α      in ANC's #5, #20, #2, ...

........................................................................
.............................. CYCLE   45 ..............................
........................................................................
   1    -83.7326900 -0.837327E+02  0.706E-03    2.31       0.0  T
   2    -83.7326920 -0.197514E-05  0.317E-03    2.32       4.9  T
   3    -83.7326923 -0.280173E-06  0.172E-03    2.32       9.0  T
   4    -83.7326923 -0.218198E-07  0.575E-04    2.32      26.8  T
   5    -83.7326923 -0.746979E-09  0.150E-04    2.32     103.0  T
   6    -83.7326923 -0.310337E-09  0.297E-05    2.32     519.9  T
     SCC iter.                  ...        0 min,  0.022 sec
     gradient                   ...        0 min,  0.081 sec
 * total energy  :   -82.9705367 Eh     change       -0.1386952E-03 Eh
   gradient norm :     0.0038258 Eh/α   predicted    -0.1018683E-03 ( -26.55%)
   displ. norm   :     0.1534240 α      lambda       -0.1251228E-03
   maximum displ.:     0.0730357 α      in ANC's #5, #20, #2, ...

........................................................................
.............................. CYCLE   46 ..............................
........................................................................
   1    -83.7324078 -0.837324E+02  0.917E-03    2.33       0.0  T
   2    -83.7324111 -0.334132E-05  0.366E-03    2.33       4.2  T
   3    -83.7324116 -0.420732E-06  0.183E-03    2.33       8.5  T
   4    -83.7324116 -0.426244E-07  0.647E-04    2.33      23.9  T
   5    -83.7324116 -0.784496E-09  0.197E-04    2.33      78.2  T
   6    -83.7324116 -0.509829E-09  0.330E-05    2.33     467.4  T
     SCC iter.                  ...        0 min,  0.022 sec
     gradient                   ...        0 min,  0.081 sec
 * total energy  :   -82.9706248 Eh     change       -0.8813453E-04 Eh
   gradient norm :     0.0053250 Eh/α   predicted    -0.6408838E-04 ( -27.28%)
   displ. norm   :     0.1334921 α      lambda       -0.8404661E-04
   maximum displ.:     0.0704440 α      in ANC's #5, #2, #1, ...

........................................................................
.............................. CYCLE   47 ..............................
........................................................................
   1    -83.7317463 -0.837317E+02  0.987E-03    2.33       0.0  T
   2    -83.7317504 -0.408381E-05  0.371E-03    2.34       4.2  T
   3    -83.7317509 -0.488282E-06  0.169E-03    2.34       9.1  T
   4    -83.7317509 -0.371793E-07  0.640E-04    2.34      24.1  T
   5    -83.7317509 -0.888335E-09  0.207E-04    2.34      74.6  T
   6    -83.7317509 -0.591413E-09  0.341E-05    2.34     452.3  T
   7    -83.7317509 -0.384830E-10  0.126E-05    2.34    1222.4  T
     SCC iter.                  ...        0 min,  0.026 sec
     gradient                   ...        0 min,  0.067 sec
 * total energy  :   -82.9706848 Eh     change       -0.6000001E-04 Eh
   gradient norm :     0.0061879 Eh/α   predicted    -0.4277319E-04 ( -28.71%)
   displ. norm   :     0.1480061 α      lambda       -0.1008474E-03
   maximum displ.:     0.0835657 α      in ANC's #5, #1, #2, ...

........................................................................
.............................. CYCLE   48 ..............................
........................................................................
   1    -83.7313461 -0.837313E+02  0.122E-02    2.34       0.0  T
   2    -83.7313527 -0.657549E-05  0.452E-03    2.34       3.4  T
   3    -83.7313535 -0.845029E-06  0.184E-03    2.34       8.4  T
   4    -83.7313536 -0.382905E-07  0.782E-04    2.34      19.7  T
   5    -83.7313536 -0.138976E-08  0.238E-04    2.34      64.8  T
   6    -83.7313536 -0.856829E-09  0.401E-05    2.34     384.5  T
   7    -83.7313536 -0.510170E-10  0.150E-05    2.34    1028.5  T
     SCC iter.                  ...        0 min,  0.025 sec
     gradient                   ...        0 min,  0.081 sec
 * total energy  :   -82.9707557 Eh     change       -0.7090454E-04 Eh
   gradient norm :     0.0056975 Eh/α   predicted    -0.5153746E-04 ( -27.31%)
   displ. norm   :     0.1188652 α      lambda       -0.8419397E-04
   maximum displ.:     0.0650164 α      in ANC's #5, #1, #2, ...

........................................................................
.............................. CYCLE   49 ..............................
........................................................................
   1    -83.7319645 -0.837320E+02  0.103E-02    2.35       0.0  T
   2    -83.7319692 -0.473039E-05  0.401E-03    2.35       3.8  T
   3    -83.7319700 -0.719455E-06  0.161E-03    2.35       9.6  T
   4    -83.7319700 -0.181545E-07  0.747E-04    2.35      20.7  T
   5    -83.7319700 -0.120944E-08  0.150E-04    2.35     103.0  T
   6    -83.7319700 -0.627921E-09  0.299E-05    2.35     516.4  T
     SCC iter.                  ...        0 min,  0.027 sec
     gradient                   ...        0 min,  0.081 sec
 * total energy  :   -82.9708118 Eh     change       -0.5608412E-04 Eh
   gradient norm :     0.0034384 Eh/α   predicted    -0.4269226E-04 ( -23.88%)
   displ. norm   :     0.1785359 α      lambda       -0.6421684E-04
   maximum displ.:     0.0976788 α      in ANC's #5, #1, #2, ...

........................................................................
.............................. CYCLE   50 ..............................
........................................................................
   1    -83.7320694 -0.837321E+02  0.152E-02    2.37       0.0  T
   2    -83.7320790 -0.964062E-05  0.586E-03    2.37       2.6  T
   3    -83.7320807 -0.165282E-05  0.251E-03    2.37       6.2  T
   4    -83.7320807 -0.671014E-07  0.990E-04    2.37      15.6  T
   5    -83.7320807 -0.252953E-08  0.290E-04    2.37      53.2  T
   6    -83.7320807 -0.128561E-08  0.418E-05    2.37     369.1  T
   7    -83.7320807 -0.613056E-10  0.161E-05    2.37     958.8  T
     SCC iter.                  ...        0 min,  0.025 sec
     gradient                   ...        0 min,  0.080 sec
 * total energy  :   -82.9708540 Eh     change       -0.4213768E-04 Eh
   gradient norm :     0.0046602 Eh/α   predicted    -0.3315131E-04 ( -21.33%)
   displ. norm   :     0.1588647 α      lambda       -0.7230398E-04
   maximum displ.:     0.0780897 α      in ANC's #5, #1, #2, ...

........................................................................
.............................. CYCLE   51 ..............................
........................................................................
   1    -83.7333835 -0.837334E+02  0.133E-02    2.39       0.0  T
   2    -83.7333913 -0.785277E-05  0.526E-03    2.39       2.9  T
   3    -83.7333929 -0.157862E-05  0.221E-03    2.39       7.0  T
   4    -83.7333929 -0.386132E-07  0.964E-04    2.39      16.0  T
   5    -83.7333929 -0.212147E-08  0.175E-04    2.39      88.0  T
   6    -83.7333929 -0.860851E-09  0.349E-05    2.39     442.6  T
     SCC iter.                  ...        0 min,  0.022 sec
     gradient                   ...        0 min,  0.080 sec
 * total energy  :   -82.9708997 Eh     change       -0.4578023E-04 Eh
   gradient norm :     0.0033742 Eh/α   predicted    -0.3709880E-04 ( -18.96%)
   displ. norm   :     0.1925419 α      lambda       -0.4900754E-04
   maximum displ.:     0.0988113 α      in ANC's #5, #1, #2, ...

........................................................................
.............................. CYCLE   52 ..............................
........................................................................
   1    -83.7333904 -0.837334E+02  0.152E-02    2.41       0.0  T
   2    -83.7334006 -0.101788E-04  0.586E-03    2.41       2.6  T
   3    -83.7334027 -0.205773E-05  0.249E-03    2.41       6.2  T
   4    -83.7334027 -0.665748E-07  0.103E-03    2.41      15.0  T
   5    -83.7334028 -0.309319E-08  0.262E-04    2.41      58.9  T
   6    -83.7334028 -0.117564E-08  0.408E-05    2.41     378.5  T
   7    -83.7334028 -0.524665E-10  0.162E-05    2.41     954.8  T
     SCC iter.                  ...        0 min,  0.025 sec
     gradient                   ...        0 min,  0.080 sec
 * total energy  :   -82.9709355 Eh     change       -0.3573301E-04 Eh
   gradient norm :     0.0030120 Eh/α   predicted    -0.2542152E-04 ( -28.86%)
   displ. norm   :     0.2016367 α      lambda       -0.5760591E-04
   maximum displ.:     0.0948373 α      in ANC's #5, #1, #4, ...

........................................................................
.............................. CYCLE   53 ..............................
........................................................................
   1    -83.7337459 -0.837337E+02  0.145E-02    2.44       0.0  T
   2    -83.7337560 -0.101155E-04  0.573E-03    2.44       2.7  T
   3    -83.7337582 -0.215669E-05  0.225E-03    2.44       6.9  T
   4    -83.7337582 -0.476876E-07  0.103E-03    2.44      15.0  T
   5    -83.7337582 -0.227281E-08  0.213E-04    2.44      72.4  T
   6    -83.7337582 -0.926718E-09  0.394E-05    2.44     391.8  T
   7    -83.7337582 -0.419220E-10  0.167E-05    2.44     923.6  T
     SCC iter.                  ...        0 min,  0.025 sec
     gradient                   ...        0 min,  0.080 sec
 * total energy  :   -82.9709757 Eh     change       -0.4024760E-04 Eh
   gradient norm :     0.0033591 Eh/α   predicted    -0.2997636E-04 ( -25.52%)
   displ. norm   :     0.2110910 α      lambda       -0.3989729E-04
   maximum displ.:     0.1023657 α      in ANC's #5, #1, #4, ...

........................................................................
.............................. CYCLE   54 ..............................
........................................................................
   1    -83.7334330 -0.837334E+02  0.146E-02    2.46       0.0  T
   2    -83.7334430 -0.992585E-05  0.565E-03    2.47       2.7  T
   3    -83.7334450 -0.206244E-05  0.212E-03    2.47       7.3  T
   4    -83.7334451 -0.559887E-07  0.940E-04    2.47      16.4  T
   5    -83.7334451 -0.176342E-08  0.238E-04    2.47      65.0  T
   6    -83.7334451 -0.880078E-09  0.379E-05    2.47     407.1  T
   7    -83.7334451 -0.439826E-10  0.158E-05    2.47     976.0  T
     SCC iter.                  ...        0 min,  0.025 sec
     gradient                   ...        0 min,  0.080 sec
 * total energy  :   -82.9710054 Eh     change       -0.2970538E-04 Eh
   gradient norm :     0.0034826 Eh/α   predicted    -0.2083827E-04 ( -29.85%)
   displ. norm   :     0.2069910 α      lambda       -0.4754802E-04
   maximum displ.:     0.1010588 α      in ANC's #1, #5, #4, ...

........................................................................
.............................. CYCLE   55 ..............................
........................................................................
   1    -83.7340485 -0.837340E+02  0.131E-02    2.49       0.0  T
   2    -83.7340568 -0.826825E-05  0.520E-03    2.49       3.0  T
   3    -83.7340585 -0.174559E-05  0.172E-03    2.49       9.0  T
   4    -83.7340585 -0.330885E-07  0.852E-04    2.49      18.1  T
   5    -83.7340585 -0.752422E-09  0.172E-04    2.49      89.6  T
   6    -83.7340585 -0.637712E-09  0.358E-05    2.49     431.4  T
     SCC iter.                  ...        0 min,  0.022 sec
     gradient                   ...        0 min,  0.080 sec
 * total energy  :   -82.9710383 Eh     change       -0.3291449E-04 Eh
   gradient norm :     0.0040220 Eh/α   predicted    -0.2479602E-04 ( -24.67%)
   displ. norm   :     0.3026697 α      lambda       -0.4746172E-04
   maximum displ.:     0.1488917 α      in ANC's #1, #5, #4, ...

........................................................................
.............................. CYCLE   56 ..............................
........................................................................
   1    -83.7333221 -0.837333E+02  0.197E-02    2.51       0.0  T
   2    -83.7333390 -0.168387E-04  0.761E-03    2.52       2.0  T
   3    -83.7333426 -0.365531E-05  0.288E-03    2.52       5.4  T
   4    -83.7333428 -0.111544E-06  0.120E-03    2.52      12.9  T
   5    -83.7333428 -0.299670E-08  0.303E-04    2.52      50.9  T
   6    -83.7333428 -0.157931E-08  0.492E-05    2.52     313.6  T
   7    -83.7333428 -0.778044E-10  0.211E-05    2.52     731.9  T
     SCC iter.                  ...        0 min,  0.028 sec
     gradient                   ...        0 min,  0.081 sec
 * total energy  :   -82.9710708 Eh     change       -0.3243008E-04 Eh
   gradient norm :     0.0037619 Eh/α   predicted    -0.2590638E-04 ( -20.12%)
   displ. norm   :     0.2228645 α      lambda       -0.6242147E-04
   maximum displ.:     0.1182834 α      in ANC's #1, #4, #5, ...

........................................................................
.............................. CYCLE   57 ..............................
........................................................................
   1    -83.7349646 -0.837350E+02  0.137E-02    2.54       0.0  T
   2    -83.7349722 -0.758511E-05  0.545E-03    2.54       2.8  T
   3    -83.7349739 -0.167549E-05  0.205E-03    2.54       7.5  T
   4    -83.7349739 -0.361388E-07  0.878E-04    2.54      17.6  T
   5    -83.7349739 -0.115466E-08  0.142E-04    2.54     109.0  T
   6    -83.7349739 -0.644917E-09  0.345E-05    2.54     447.5  T
     SCC iter.                  ...        0 min,  0.024 sec
     gradient                   ...        0 min,  0.081 sec
 * total energy  :   -82.9711177 Eh     change       -0.4693667E-04 Eh
   gradient norm :     0.0035482 Eh/α   predicted    -0.3276203E-04 ( -30.20%)
   displ. norm   :     0.4386420 α      lambda       -0.8356205E-04
   maximum displ.:     0.2335328 α      in ANC's #1, #5, #4, ...

........................................................................
.............................. CYCLE   58 ..............................
........................................................................
   1    -83.7345880 -0.837346E+02  0.254E-02    2.58       0.0  T
   2    -83.7346160 -0.280048E-04  0.102E-02    2.58       1.5  T
   3    -83.7346233 -0.723460E-05  0.362E-03    2.58       4.3  T
   4    -83.7346234 -0.125517E-06  0.151E-03    2.58      10.2  T
   5    -83.7346234 -0.689074E-08  0.289E-04    2.58      53.4  T
   6    -83.7346234 -0.233101E-08  0.630E-05    2.58     245.0  T
   7    -83.7346234 -0.999592E-10  0.290E-05    2.58     532.1  T
     SCC iter.                  ...        0 min,  0.031 sec
     gradient                   ...        0 min,  0.081 sec
 * total energy  :   -82.9711791 Eh     change       -0.6135382E-04 Eh
   gradient norm :     0.0060862 Eh/α   predicted    -0.4982094E-04 ( -18.80%)
   displ. norm   :     0.3840082 α      lambda       -0.1372840E-03
   maximum displ.:     0.2202739 α      in ANC's #1, #4, #5, ...

........................................................................
.............................. CYCLE   59 ..............................
........................................................................
   1    -83.7366461 -0.837366E+02  0.222E-02    2.62       0.0  T
   2    -83.7366641 -0.180820E-04  0.863E-03    2.62       1.8  T
   3    -83.7366689 -0.475449E-05  0.358E-03    2.62       4.3  T
   4    -83.7366690 -0.997580E-07  0.120E-03    2.62      12.8  T
   5    -83.7366690 -0.415942E-08  0.174E-04    2.62      88.5  T
   6    -83.7366690 -0.978872E-09  0.447E-05    2.62     345.1  T
     SCC iter.                  ...        0 min,  0.023 sec
     gradient                   ...        0 min,  0.081 sec
 * total energy  :   -82.9712772 Eh     change       -0.9812178E-04 Eh
   gradient norm :     0.0058937 Eh/α   predicted    -0.7876704E-04 ( -19.73%)
   displ. norm   :     0.4741828 α      lambda       -0.1198486E-03
   maximum displ.:     0.2779952 α      in ANC's #1, #4, #5, ...

........................................................................
.............................. CYCLE   60 ..............................
........................................................................
   1    -83.7349104 -0.837349E+02  0.275E-02    2.68       0.0  T
   2    -83.7349444 -0.340006E-04  0.114E-02    2.68       1.3  T
   3    -83.7349539 -0.950244E-05  0.388E-03    2.68       4.0  T
[...]
 N  H  Rav=1.0124 sigma=0.0000  Rmin=1.0124  Rmax=1.0124     1
 N  C  Rav=1.3412 sigma=0.0658  Rmin=1.2601  Rmax=1.4604     8
 N  N  Rav=1.3634 sigma=0.0000  Rmin=1.3634  Rmax=1.3634     1
 O  H  Rav=0.9654 sigma=0.0000  Rmin=0.9654  Rmax=0.9654     1
 O  C  Rav=1.3320 sigma=0.0694  Rmin=1.2122  Rmax=1.4298     9
 
 selected bond angles (degree)
 --------------------
H26-C1-O2=110.25               H27-C1-O2=106.59               H27-C1-H26=110.31              H28-C1-O2=110.16               
H28-C1-H26=109.30              H28-C1-H27=110.20              C3-O2-C1=116.36                O4-C3-O2=122.64                
C5-C3-O2=113.86                C5-C3-O4=123.50                C6-C5-C3=124.81                N25-C5-C3=112.47               
N25-C5-C6=122.34               O7-C6-C5=124.00                O10-C6-C5=121.88               O10-C6-O7=114.12               
H29-O7-C6=111.76               O10-C8-C9=114.71               N11-C8-C9=123.38               N11-C8-O10=121.90              
H30-C9-C8=109.55               H31-C9-C8=109.56               H31-C9-H30=107.67              H32-C9-C8=110.14               
H32-C9-H30=109.95              H32-C9-H31=109.93              C8-O10-C6=111.65               
 
 selected dihedral angles (degree)
 ---------------------------------
C3-O2-C1-H26=304.19           C3-O2-C1-H27=184.46           C3-O2-C1-H28= 64.90           O4-C3-O2-C1=  0.40            
C5-C3-O2-C1=179.44            C6-C5-C3-O2=  9.54            C6-C5-C3-O4=188.57            N25-C5-C3-O2=182.60           
N25-C5-C3-O4=  1.63           O7-C6-C5-C3=356.47            O7-C6-C5-N25=184.07           O10-C6-C5-C3=175.25           
O10-C6-C5-N25=  2.84          H29-O7-C6-C5=170.61           H29-O7-C6-O10=351.75          H30-C9-C8-O10=301.84          
H30-C9-C8-N11=123.10          H31-C9-C8-O10= 59.74          H31-C9-C8-N11=241.00          H32-C9-C8-O10=180.78          
H32-C9-C8-N11=  2.05          C8-O10-C6-C5= 60.54           C8-O10-C6-O7=239.43           C6-O10-C8-C9=113.16           
C6-O10-C8-N11=291.92          
           -------------------------------------------------
          |                Final Singlepoint                |
           -------------------------------------------------

          ...................................................
          :                      SETUP                      :
          :.................................................:
          :  # basis functions                 134          :
          :  # atomic orbitals                 134          :
          :  # shells                           84          :
          :  # electrons                       134          :
          :  # halogen bonds                     0          :
          :  max. iterations                   250          :
          :  Hamiltonian                  GFN1-xTB          :
          :  restarted?                      false          :
          :  GBSA solvation                   true          :
          :  PC potential                    false          :
          :  electronic temp.          300.0000000     K    :
          :  accuracy                    1.0000000          :
          :  -> integral cutoff          0.2500000E+02      :
          :  -> integral neglect         0.1000000E-07      :
          :  -> SCF convergence          0.1000000E-05 Eh   :
          :  -> wf. convergence          0.2000000E-04 e    :
          :  Broyden damping             0.4000000          :
          ...................................................

 iter      E             dE          RMSdq      gap      omega  full diag
   1    -83.7654891 -0.837655E+02  0.691E-06    2.72       0.0  T
   2    -83.7654891 -0.682121E-12  0.321E-06    2.72    4801.0  T
   3    -83.7654891 -0.156319E-12  0.143E-06    2.72   10795.5  T

   *** convergence criteria satisfied after 3 iterations ***

         #    Occupation            Energy/Eh            Energy/eV
      -------------------------------------------------------------
         1        2.0000           -0.8625908             -23.4723
       ...           ...                  ...                  ...
        61        2.0000           -0.4707989             -12.8111
        62        2.0000           -0.4610832             -12.5467
        63        2.0000           -0.4586978             -12.4818
        64        2.0000           -0.4501213             -12.2484
        65        2.0000           -0.4447459             -12.1022
        66        2.0000           -0.4361341             -11.8678
        67        2.0000           -0.4166244             -11.3369 (HOMO)
        68                         -0.3165844              -8.6147 (LUMO)
        69                         -0.3077386              -8.3740
        70                         -0.2923524              -7.9553
        71                         -0.2562074              -6.9718
        72                         -0.2462342              -6.7004
       ...                                ...                  ...
       134                          0.7253036              19.7365
      -------------------------------------------------------------
                  HL-Gap            0.1000400 Eh            2.7222 eV
             Fermi-level           -0.3666044 Eh           -9.9758 eV

 SCC (total)                   0 d,  0 h,  0 min,  0.129 sec
 SCC setup                      ...        0 min,  0.002 sec (  1.485%)
 Dispersion                     ...        0 min,  0.000 sec (  0.263%)
 classical contributions        ...        0 min,  0.000 sec (  0.085%)
 integral evaluation            ...        0 min,  0.034 sec ( 26.422%)
 iterations                     ...        0 min,  0.011 sec (  8.817%)
 molecular gradient             ...        0 min,  0.080 sec ( 62.219%)
 printout                       ...        0 min,  0.001 sec (  0.669%)

         :::::::::::::::::::::::::::::::::::::::::::::::::::::
         ::                     SUMMARY                     ::
         :::::::::::::::::::::::::::::::::::::::::::::::::::::
         :: total energy             -82.981570521325 Eh    ::
         :: total w/o Gsasa/hb       -82.955983903295 Eh    ::
         :: gradient norm              0.000931169955 Eh/a0 ::
         :: HOMO-LUMO gap              2.722226051744 eV    ::
         ::.................................................::
         :: SCC energy               -83.765489073480 Eh    ::
         :: -> electrostatic           0.337335383295 Eh    ::
         :: -> Gsolv                  -0.055743790623 Eh    ::
         ::    -> Gelec               -0.030157172593 Eh    ::
         ::    -> Gsasa               -0.025356113796 Eh    ::
         ::    -> Ghb                 -0.007854783239 Eh    ::
         ::    -> Gshift               0.007624279005 Eh    ::
         :: repulsion energy           0.809141469397 Eh    ::
         :: dispersion energy         -0.025222917241 Eh    ::
         :: halogen bond corr.         0.000000000000 Eh    ::
         :: add. restraining           0.000000000000 Eh    ::
         :: total charge              -0.000000000000 e     ::
         :::::::::::::::::::::::::::::::::::::::::::::::::::::

           -------------------------------------------------
          |                Property Printout                |
           -------------------------------------------------

    * Orbital Energies and Occupations

         #    Occupation            Energy/Eh            Energy/eV
      -------------------------------------------------------------
         1        2.0000           -0.8625908             -23.4723
       ...           ...                  ...                  ...
        55        2.0000           -0.5014893             -13.6462
        56        2.0000           -0.4964275             -13.5085
        57        2.0000           -0.4935185             -13.4293
        58        2.0000           -0.4879332             -13.2773
        59        2.0000           -0.4819942             -13.1157
        60        2.0000           -0.4800756             -13.0635
        61        2.0000           -0.4707989             -12.8111
        62        2.0000           -0.4610832             -12.5467
        63        2.0000           -0.4586978             -12.4818
        64        2.0000           -0.4501213             -12.2484
        65        2.0000           -0.4447459             -12.1022
        66        2.0000           -0.4361341             -11.8678
        67        2.0000           -0.4166244             -11.3369 (HOMO)
        68                         -0.3165844              -8.6147 (LUMO)
        69                         -0.3077386              -8.3740
        70                         -0.2923524              -7.9553
        71                         -0.2562074              -6.9718
        72                         -0.2462342              -6.7004
        73                         -0.1959000              -5.3307
        74                         -0.1827440              -4.9727
        75                         -0.1450599              -3.9473
        76                         -0.1422814              -3.8717
        77                         -0.1364759              -3.7137
        78                         -0.1194876              -3.2514
       ...                                ...                  ...
       134                          0.7253036              19.7365
      -------------------------------------------------------------
                  HL-Gap            0.1000400 Eh            2.7222 eV
             Fermi-level           -0.3666044 Eh           -9.9758 eV

  Mulliken/CM5 charges         n(s)   n(p)   n(d)
     1C     0.16520  0.04483   0.979  2.856  0.000
     2O    -0.42167 -0.50537   1.687  4.735  0.000
     3C     0.57142  0.63821   0.967  2.462  0.000
     4O    -0.57226 -0.61650   1.725  4.847  0.000
     5C     0.02672  0.10095   1.025  2.949  0.000
     6C     0.48165  0.53435   0.967  2.551  0.000
     7O    -0.50380 -0.69929   1.688  4.816  0.000
     8C     0.42591  0.52993   1.009  2.565  0.000
     9C    -0.11540 -0.25223   1.018  3.098  0.000
    10O    -0.44390 -0.50327   1.686  4.758  0.000
    11N    -0.37980 -0.57346   1.521  3.859  0.000
    12C     0.29304  0.44674   1.019  2.688  0.000
    13C     0.15608  0.19849   1.062  2.781  0.000
    14C    -0.09994 -0.23873   1.019  3.081  0.000
    15C    -0.09791 -0.23638   1.019  3.079  0.000
    16N    -0.33967 -0.68877   1.429  3.910  0.000
    17C     0.46677  0.57651   0.974  2.560  0.000
    18O    -0.57756 -0.62251   1.726  4.851  0.000
    19C     0.33268  0.45835   1.009  2.658  0.000
    20N    -0.24632 -0.35682   1.569  3.678  0.000
    21N    -0.26601 -0.37347   1.565  3.701  0.000
    22C     0.38752  0.49596   1.007  2.605  0.000
    23C    -0.11123 -0.24863   1.012  3.100  0.000
    24O    -0.33970 -0.39120   1.691  4.648  0.000
    25N    -0.35198 -0.53769   1.523  3.829  0.000
    26H     0.04968  0.11177   0.950  0.000  0.000
    27H     0.05158  0.11191   0.948  0.000  0.000
    28H     0.04917  0.11035   0.951  0.000  0.000
    29H     0.42574  0.60430   0.574  0.000  0.000
    30H     0.07965  0.13522   0.920  0.000  0.000
    31H     0.08480  0.13974   0.915  0.000  0.000
    32H     0.06954  0.12608   0.930  0.000  0.000
    33H     0.04068  0.09760   0.959  0.000  0.000
    34H     0.05632  0.11590   0.944  0.000  0.000
    35H     0.04319  0.10065   0.957  0.000  0.000
    36H     0.04475  0.10291   0.955  0.000  0.000
    37H     0.05465  0.11409   0.945  0.000  0.000
    38H     0.04004  0.09698   0.960  0.000  0.000
    39H     0.24514  0.46245   0.755  0.000  0.000
    40H     0.06885  0.12470   0.931  0.000  0.000
    41H     0.07826  0.13270   0.922  0.000  0.000
    42H     0.07815  0.13266   0.922  0.000  0.000

Wiberg/Mayer (AO) data.
largest (>0.10) Wiberg bond orders for each atom

 ---------------------------------------------------------------------------
     #   Z sym  total        # sym  WBO       # sym  WBO       # sym  WBO
 ---------------------------------------------------------------------------
     1   6 C    3.875 --    27 H    0.986    28 H    0.980    26 H    0.980
                             2 O    0.900
     2   8 O    2.186 --     3 C    1.097     1 C    0.900     4 O    0.127
     3   6 C    3.856 --     4 O    1.640     2 O    1.097     5 C    1.030
     4   8 O    1.912 --     3 C    1.640     2 O    0.127
     5   6 C    3.938 --     6 C    1.544    25 N    1.085     3 C    1.030
     6   6 C    3.845 --     5 C    1.544     7 O    1.115    10 O    0.964
     7   8 O    2.096 --     6 C    1.115    29 H    0.802
     8   6 C    3.875 --    11 N    1.766     9 C    1.029    10 O    0.909
     9   6 C    3.987 --     8 C    1.029    32 H    0.981    30 H    0.959
                            31 H    0.957
    10   8 O    2.096 --     6 C    0.964     8 C    0.909
    11   7 N    3.121 --     8 C    1.766    12 C    1.068
    12   6 C    3.939 --    25 N    1.708    11 N    1.068    13 C    0.978
    13   6 C    3.935 --    14 C    0.979    15 C    0.978    12 C    0.978
                            16 N    0.929
    14   6 C    3.990 --    33 H    0.986    35 H    0.985    34 H    0.981
                            13 C    0.979
    15   6 C    3.990 --    38 H    0.986    36 H    0.984    37 H    0.981
                            13 C    0.978
    16   7 N    3.360 --    17 C    1.270    13 C    0.929    39 H    0.881
                            18 O    0.182
    17   6 C    3.920 --    18 O    1.583    16 N    1.270    19 C    0.985
    18   8 O    1.901 --    17 C    1.583    16 N    0.182
    19   6 C    3.873 --    20 N    1.612    24 O    1.064    17 C    0.985
    20   7 N    3.014 --    19 C    1.612    21 N    1.197
    21   7 N    2.980 --    22 C    1.608    20 N    1.197
    22   6 C    3.871 --    21 N    1.608    24 O    1.082    23 C    1.031
    23   6 C    3.987 --    22 C    1.031    40 H    0.983    42 H    0.964
                            41 H    0.963
    24   8 O    2.329 --    22 C    1.082    19 C    1.064
    25   7 N    3.063 --    12 C    1.708     5 C    1.085
    26   1 H    1.009 --     1 C    0.980
    27   1 H    1.011 --     1 C    0.986
    28   1 H    1.008 --     1 C    0.980
    29   1 H    0.829 --     7 O    0.802
    30   1 H    0.997 --     9 C    0.959
    31   1 H    0.996 --     9 C    0.957
    32   1 H    1.000 --     9 C    0.981
    33   1 H    1.003 --    14 C    0.986
    34   1 H    1.010 --    14 C    0.981
    35   1 H    1.009 --    14 C    0.985
    36   1 H    1.011 --    15 C    0.984
    37   1 H    1.009 --    15 C    0.981
    38   1 H    1.003 --    15 C    0.986
    39   1 H    0.968 --    16 N    0.881
    40   1 H    0.999 --    23 C    0.983
    41   1 H    0.997 --    23 C    0.963
    42   1 H    0.997 --    23 C    0.964
 ---------------------------------------------------------------------------

Topologies differ in total number of bonds
Writing topology from bond orders to xtbtopo.mol

 dipole moment from electron density (au)
     X       Y       Z   
  -0.3688  -3.8446  -1.5933  total (Debye):   10.619

           -------------------------------------------------
          |                Geometry Summary                 |
           -------------------------------------------------

      molecular mass/u    :      351.3152409
   center of mass at/Å    :       -0.0125024       0.0014546      -0.1764309
  moments of inertia/u·Å² :        0.9779463E+03   0.5162730E+04   0.5848856E+04
rotational constants/cm⁻¹ :        0.1723779E-01   0.3265255E-02   0.2882210E-02

 * 36 selected distances

     #   Z          #   Z                                           value/Å
     1   6 C        2   8 O                                       1.4298491
     2   8 O        3   6 C                                       1.3375026
     3   6 C        4   8 O                                       1.2121651
     5   6 C        6   6 C                                       1.3598262
     6   6 C        7   8 O                                       1.3269896
     8   6 C        9   6 C                                       1.4848593
     6   6 C       10   8 O                                       1.3739132
     8   6 C       11   7 N                                       1.2601352
    13   6 C       14   6 C                                       1.5359311
    13   6 C       15   6 C                                       1.5363460 (max)
    13   6 C       16   7 N                                       1.4603769
    16   7 N       17   6 C                                       1.3441110
    17   6 C       18   8 O                                       1.2200255
    19   6 C       20   7 N                                       1.2995516
    21   7 N       22   6 C                                       1.2986185
    22   6 C       23   6 C                                       1.4796501
    19   6 C       24   8 O                                       1.3454584
    22   6 C       24   8 O                                       1.3415459
    12   6 C       25   7 N                                       1.2752121
     1   6 C       26   1 H                                       1.0934186
     1   6 C       27   1 H                                       1.0886229
     1   6 C       28   1 H                                       1.0933106
     7   8 O       29   1 H                                       0.9653734 (min)
     9   6 C       30   1 H                                       1.0890548
     9   6 C       31   1 H                                       1.0901164
     9   6 C       32   1 H                                       1.0870376
    14   6 C       33   1 H                                       1.0888463
    14   6 C       34   1 H                                       1.0884349
    14   6 C       35   1 H                                       1.0890857
    15   6 C       36   1 H                                       1.0893733
    15   6 C       37   1 H                                       1.0886477
    15   6 C       38   1 H                                       1.0892714
    16   7 N       39   1 H                                       1.0124099
    23   6 C       40   1 H                                       1.0871272
    23   6 C       41   1 H                                       1.0899707
    23   6 C       42   1 H                                       1.0898275

 * 6 distinct bonds (by element types)

   Z      Z             #   av. dist./Å        max./Å        min./Å
   1 H    6 C          15     1.0894764     1.0934186     1.0870376
   6 C    6 C           5     1.4793225     1.5363460     1.3598262
   1 H    7 N           1     1.0124099     1.0124099     1.0124099
   6 C    7 N           6     1.3230009     1.4603769     1.2601352
   1 H    8 O           1     0.9653734     0.9653734     0.9653734
   6 C    8 O           8     1.3234312     1.4298491     1.2121651


optimized geometry written to: xtbopt.xyz


           -------------------------------------------------
          | TOTAL ENERGY              -82.981570521325 Eh   |
          | GRADIENT NORM               0.000931169955 Eh/α |
          | HOMO-LUMO GAP               2.722226051744 eV   |
           -------------------------------------------------

------------------------------------------------------------------------
 * finished run on 2023/06/20 at 18:24:06.431     
------------------------------------------------------------------------
 total:
 * wall-time:     0 d,  0 h,  0 min, 12.997 sec
 *  cpu-time:     0 d,  0 h,  0 min, 12.642 sec
 * ratio c/w:     0.973 speedup
 SCF:
 * wall-time:     0 d,  0 h,  0 min,  0.275 sec
 *  cpu-time:     0 d,  0 h,  0 min,  0.204 sec
 * ratio c/w:     0.743 speedup
 ANC optimizer:
 * wall-time:     0 d,  0 h,  0 min, 12.603 sec
 *  cpu-time:     0 d,  0 h,  0 min, 12.389 sec
 * ratio c/w:     0.983 speedup

