      -----------------------------------------------------------      
     |                   =====================                   |     
     |                           x T B                           |     
     |                   =====================                   |     
     |                         S. Grimme                         |     
     |          Mulliken Center for Theoretical Chemistry        |     
     |                    University of Bonn                     |     
      -----------------------------------------------------------      

   * xtb version 6.5.1 (579679a) compiled by 'ehlert@majestix' on 2022-07-11

   xtb is free software: you can redistribute it and/or modify it under
   the terms of the GNU Lesser General Public License as published by
   the Free Software Foundation, either version 3 of the License, or
   (at your option) any later version.
   
   xtb is distributed in the hope that it will be useful,
   but WITHOUT ANY WARRANTY; without even the implied warranty of
   MERCHANTABILITY or FITNESS FOR A PARTICULAR PURPOSE.  See the
   GNU Lesser General Public License for more details.
   
   Cite this work as:
   * C. Bannwarth, E. Caldeweyher, S. Ehlert, A. Hansen, P. Pracht,
     J. Seibert, S. Spicher, S. Grimme, WIREs Comput. Mol. Sci., 2020, 11,
     e01493. DOI: 10.1002/wcms.1493
   
   for GFN2-xTB:
   * C. Bannwarth, S. Ehlert and S. Grimme., J. Chem. Theory Comput., 2019,
     15, 1652-1671. DOI: 10.1021/acs.jctc.8b01176
   for GFN1-xTB:
   * S. Grimme, C. Bannwarth, P. Shushkov, J. Chem. Theory Comput., 2017,
     13, 1989-2009. DOI: 10.1021/acs.jctc.7b00118
   for GFN0-xTB:
   * P. Pracht, E. Caldeweyher, S. Ehlert, S. Grimme, ChemRxiv, 2019, preprint.
     DOI: 10.26434/chemrxiv.8326202.v1
   for GFN-FF:
   * S. Spicher and S. Grimme, Angew. Chem. Int. Ed., 2020, 59, 15665-15673.
     DOI: 10.1002/anie.202004239
   
   for ALPB and GBSA implicit solvation:
   * S. Ehlert, M. Stahn, S. Spicher, S. Grimme, J. Chem. Theory Comput.,
     2021, 17, 4250-4261. DOI: 10.1021/acs.jctc.1c00471
   
   for DFT-D4:
   * E. Caldeweyher, C. Bannwarth and S. Grimme, J. Chem. Phys., 2017,
     147, 034112. DOI: 10.1063/1.4993215
   * E. Caldeweyher, S. Ehlert, A. Hansen, H. Neugebauer, S. Spicher,
     C. Bannwarth and S. Grimme, J. Chem. Phys., 2019, 150, 154122.
     DOI: 10.1063/1.5090222
   * E. Caldeweyher, J.-M. Mewes, S. Ehlert and S. Grimme, Phys. Chem. Chem. Phys.
     2020, 22, 8499-8512. DOI: 10.1039/D0CP00502A
   
   for sTDA-xTB:
   * S. Grimme and C. Bannwarth, J. Chem. Phys., 2016, 145, 054103.
     DOI: 10.1063/1.4959605
   
   in the mass-spec context:
   * V. Asgeirsson, C. Bauer and S. Grimme, Chem. Sci., 2017, 8, 4879.
     DOI: 10.1039/c7sc00601b
   * J. Koopman and S. Grimme, ACS Omega 2019, 4, 12, 15120-15133.
     DOI: 10.1021/acsomega.9b02011
   
   for metadynamics refer to:
   * S. Grimme, J. Chem. Theory Comput., 2019, 155, 2847-2862
     DOI: 10.1021/acs.jctc.9b00143
   
   for SPH calculations refer to:
   * S. Spicher and S. Grimme, J. Chem. Theory Comput., 2021, 17, 1701-1714
     DOI: 10.1021/acs.jctc.0c01306
   
   with help from (in alphabetical order)
   P. Atkinson, C. Bannwarth, F. Bohle, G. Brandenburg, E. Caldeweyher
   M. Checinski, S. Dohm, S. Ehlert, S. Ehrlich, I. Gerasimov, C. Hölzer
   A. Katbashev, J. Koopman, C. Lavigne, S. Lehtola, F. März, M. Müller,
   F. Musil, H. Neugebauer, J. Pisarek, C. Plett, P. Pracht, F. Pultar,
   J. Seibert, P. Shushkov, S. Spicher, M. Stahn, M. Steiner, T. Strunk,
   J. Stückrath, T. Rose, and J. Unsleber
   
 * started run on 2023/06/20 at 18:04:13.931     

           -------------------------------------------------
          |                Calculation Setup                |
           -------------------------------------------------

          program call               : /lustre/hpc/kemi/ree/PhD/git/ReactivityQM/dep/xtb-6.5.1/bin/xtb --gfn 1 /lustre/hpc/kemi/ree/PhD/git/ReactivityQM/calculations/R02deprot/reac01prodE14/conf12/R02deprot_reac01prodE14_conf12_gfn1.xyz --opt --vfukui --chrg -2 --uhf 0 --alpb DMSO
          hostname                   : node308
          coordinate file            : /lustre/hpc/kemi/ree/PhD/git/ReactivityQM/calculations/R02deprot/reac01prodE14/conf12/R02deprot_reac01prodE14_conf12_gfn1.xyz
          omp threads                :                     1

   ID    Z sym.   atoms
    1    6 C      1, 3, 5, 7-10, 12, 14, 17, 18, 21, 23, 24
    2    8 O      2, 4, 13, 19, 22, 25
    3    7 N      6, 11, 15, 16, 20
    4    1 H      26-42

           -------------------------------------------------
          |                 G F N 1 - x T B                 |
           -------------------------------------------------

        Reference                      10.1021/acs.jctc.7b00118
      * Hamiltonian:
        H0-scaling (s, p, d)           1.850000    2.250000    2.000000
        zeta-weighting                 0.000000
      * Dispersion:
        s8                             2.400000
        a1                             0.630000
        a2                             5.000000
        s9                             0.000000
      * Repulsion:
        kExp                           1.500000
        rExp                           1.000000
      * Coulomb:
        alpha                          2.000000
        third order                    atomic
        anisotropic                    false
      * Halogen bond correction:
        rad-scale                      1.300000
        damping                        0.440000

      * Solvation model:               ALPB
        Solvent                        DMSO
        Parameter file                 internal GFN1-xTB/ALPB
        Dielectric constant                4.6680E+01
        Reference state                gsolv [1 M gas/solution]
        Free energy shift                  7.6243E-03 Eh       4.7843E+00 kcal/mol
        Temperature                        2.9815E+02 K
        Density                            1.1000E+00 kg/L
        Solvent mass                       7.8130E+01 g/mol
        Interaction kernel             P16
        Born radius scaling (c1)           1.7672E+00
        Born radii integrator          GBOBC
        Born offset                        0.0000E+00 a0       0.0000E+00 AA
        H-bond correction              true
        Ion screening                  false
        Surface tension                    1.0000E-05 Eh       1.5569E+01 dyn/cm
        Grid points                               230 per atom

          ...................................................
          :                      SETUP                      :
          :.................................................:
          :  # basis functions                 134          :
          :  # atomic orbitals                 134          :
          :  # shells                           84          :
          :  # electrons                       136          :
          :  # halogen bonds                     0          :
          :  max. iterations                   250          :
          :  Hamiltonian                  GFN1-xTB          :
          :  restarted?                      false          :
          :  GBSA solvation                   true          :
          :  PC potential                    false          :
          :  electronic temp.          300.0000000     K    :
          :  accuracy                    1.0000000          :
          :  -> integral cutoff          0.2500000E+02      :
          :  -> integral neglect         0.1000000E-07      :
          :  -> SCF convergence          0.1000000E-05 Eh   :
          :  -> wf. convergence          0.2000000E-04 e    :
          :  Broyden damping             0.4000000          :
          ...................................................

 iter      E             dE          RMSdq      gap      omega  full diag
   1    -84.0592167 -0.840592E+02  0.866E+00    1.17       0.0  T
   2    -84.0226085  0.366082E-01  0.536E+00    0.35       1.0  T
   3    -84.0221198  0.488723E-03  0.298E+00    0.39       1.0  T
   4    -84.2692044 -0.247085E+00  0.106E+00    1.72       1.0  T
   5    -84.2996773 -0.304729E-01  0.624E-01    1.21       1.0  T
   6    -84.0633017  0.236376E+00  0.136E+00    0.27       1.0  T
   7    -84.3019203 -0.238619E+00  0.537E-01    0.88       1.0  T
   8    -84.3058697 -0.394945E-02  0.462E-01    0.53       1.0  T
   9    -84.3096444 -0.377470E-02  0.387E-01    0.26       1.0  T
  10    -84.0689782  0.240666E+00  0.136E+00    0.28       1.0  T
  11    -84.3184506 -0.249472E+00  0.275E-01    0.15       1.0  T
  12    -84.3152959  0.315473E-02  0.306E-01    0.03       1.0  T
  13    -84.3222423 -0.694645E-02  0.217E-01    0.12       1.0  T
  14    -84.3287980 -0.655568E-02  0.330E-02    0.08       1.0  T
  15    -84.3287746  0.233572E-04  0.350E-02    0.07       1.0  T
  16    -84.3289442 -0.169556E-03  0.782E-03    0.07       2.0  T
  17    -84.3289333  0.108862E-04  0.116E-02    0.07       1.3  T
  18    -84.3289525 -0.192407E-04  0.136E-03    0.07      11.4  T
  19    -84.3289527 -0.164477E-06  0.843E-04    0.07      18.3  T
  20    -84.3289528 -0.904809E-07  0.300E-04    0.07      51.5  T
  21    -84.3289528 -0.115182E-07  0.990E-05    0.07     155.9  T
  22    -84.3289528 -0.140186E-08  0.664E-07    0.07   23223.6  T

   *** convergence criteria satisfied after 22 iterations ***

         #    Occupation            Energy/Eh            Energy/eV
      -------------------------------------------------------------
         1        2.0000           -0.8165563             -22.2196
       ...           ...                  ...                  ...
        62        2.0000           -0.4027294             -10.9588
        63        2.0000           -0.3931776             -10.6989
        64        2.0000           -0.3918210             -10.6620
        65        2.0000           -0.3785752             -10.3016
        66        2.0000           -0.3611304              -9.8269
        67        2.0000           -0.3339270              -9.0866
        68        1.6019           -0.2733296              -7.4377 (HOMO)
        69        0.3981           -0.2706843              -7.3657 (LUMO)
        70                         -0.2224266              -6.0525
        71                         -0.2093434              -5.6965
        72                         -0.1541820              -4.1955
        73                         -0.1488759              -4.0511
       ...                                ...                  ...
       134                          0.7903100              21.5054
      -------------------------------------------------------------
                  HL-Gap            0.0026452 Eh            0.0720 eV
             Fermi-level           -0.2720070 Eh           -7.4017 eV

 SCC (total)                   0 d,  0 h,  0 min,  0.154 sec
 SCC setup                      ...        0 min,  0.002 sec (  0.985%)
 Dispersion                     ...        0 min,  0.000 sec (  0.179%)
 classical contributions        ...        0 min,  0.000 sec (  0.065%)
 integral evaluation            ...        0 min,  0.020 sec ( 13.082%)
 iterations                     ...        0 min,  0.059 sec ( 38.178%)
 molecular gradient             ...        0 min,  0.072 sec ( 46.817%)
 printout                       ...        0 min,  0.001 sec (  0.663%)

         :::::::::::::::::::::::::::::::::::::::::::::::::::::
         ::                     SUMMARY                     ::
         :::::::::::::::::::::::::::::::::::::::::::::::::::::
         :: total energy             -83.595299170357 Eh    ::
         :: total w/o Gsasa/hb       -83.574651515819 Eh    ::
         :: gradient norm              0.213794190645 Eh/a0 ::
         :: HOMO-LUMO gap              0.071980793535 eV    ::
         ::.................................................::
         :: SCC energy               -84.328952815439 Eh    ::
         :: -> electrostatic           0.658645416130 Eh    ::
         :: -> Gsolv                  -0.267623594724 Eh    ::
         ::    -> Gelec               -0.246975940187 Eh    ::
         ::    -> Gsasa               -0.024371133012 Eh    ::
         ::    -> Ghb                 -0.003900800530 Eh    ::
         ::    -> Gshift               0.007624279005 Eh    ::
         :: repulsion energy           0.759292370560 Eh    ::
         :: dispersion energy         -0.025638725478 Eh    ::
         :: halogen bond corr.         0.000000000000 Eh    ::
         :: add. restraining           0.000000000000 Eh    ::
         :: total charge              -2.000000000000 e     ::
         :::::::::::::::::::::::::::::::::::::::::::::::::::::

      ----------------------------------------------------------- 
     |                   =====================                   |
     |                        A N C O P T                        |
     |                   =====================                   |
     |               Approximate Normal Coordinate               |
     |                Rational Function Optimizer                |
      ----------------------------------------------------------- 

          ...................................................
          :                      SETUP                      :
          :.................................................:
          :   optimization level            normal          :
          :   max. optcycles                   200          :
          :   ANC micro-cycles                  20          :
          :   degrees of freedom               120          :
          :.................................................:
          :   RF solver                   davidson          :
          :   write xtbopt.log                true          :
          :   linear?                        false          :
          :   energy convergence         0.5000000E-05 Eh   :
          :   grad. convergence          0.1000000E-02 Eh/α :
          :   maximium RF displ.         1.0000000          :
          :   Hlow (freq-cutoff)         0.1000000E-01      :
          :   Hmax (freq-cutoff)         5.0000000          :
          :   S6 in model hess.         20.0000000          :
          ...................................................

generating ANC from model Hessian ...
Using Lindh-Hessian (1995)
 Shifting diagonal of input Hessian by   9.845199273813081E-003
 Lowest  eigenvalues of input Hessian
    0.000000    0.000000    0.000000    0.000000    0.000000    0.000000
    0.010000    0.010168    0.010683    0.011067    0.011898    0.011959
    0.012645    0.014096    0.014953    0.015594    0.016103    0.016660
 Highest eigenvalues
    1.964799    2.084711    2.107841    2.243168    2.291697    2.293144
 

........................................................................
.............................. CYCLE    1 ..............................
........................................................................
   1    -84.3289528 -0.843290E+02  0.668E-06    0.07       0.0  T
   2    -84.3289528  0.117537E-08  0.904E-05    0.07     170.7  T
   3    -84.3289528 -0.118210E-08  0.402E-07    0.07   38374.9  T
     SCC iter.                  ...        0 min,  0.012 sec
     gradient                   ...        0 min,  0.084 sec
 * total energy  :   -83.5952992 Eh     change        0.1136868E-12 Eh
   gradient norm :     0.2137942 Eh/α   predicted     0.0000000E+00 (-100.00%)
   displ. norm   :     0.2458132 α      lambda       -0.2807172E-01
   maximum displ.:     0.0900296 α      in ANC's #28, #63, #32, ...

........................................................................
.............................. CYCLE    2 ..............................
........................................................................
   1    -84.3175262 -0.843175E+02  0.371E-01    0.40       0.0  T
   2    -84.0172454  0.300281E+00  0.155E+00    0.52       1.0  T
   3    -84.3204306 -0.303185E+00  0.308E-01    0.24       1.0  T
   4    -84.3274455 -0.701483E-02  0.192E-01    0.14       1.0  T
   5    -84.3226958  0.474964E-02  0.261E-01    0.05       1.0  T
   6    -84.3323781 -0.968229E-02  0.236E-02    0.09       1.0  T
   7    -84.3317407  0.637392E-03  0.705E-02    0.07       1.0  T
   8    -84.3323264 -0.585636E-03  0.288E-02    0.09       1.0  T
   9    -84.3324431 -0.116724E-03  0.446E-04    0.09      34.6  T
  10    -84.3324418  0.129871E-05  0.306E-03    0.09       5.0  T
  11    -84.3324430 -0.116275E-05  0.105E-03    0.09      14.7  T
  12    -84.3324431 -0.154673E-06  0.487E-05    0.09     316.8  T
  13    -84.3324431 -0.295074E-09  0.114E-05    0.09    1354.0  T
     SCC iter.                  ...        0 min,  0.046 sec
     gradient                   ...        0 min,  0.081 sec
 * total energy  :   -83.6159731 Eh     change       -0.2067392E-01 Eh
   gradient norm :     0.1111594 Eh/α   predicted    -0.1488795E-01 ( -27.99%)
   displ. norm   :     0.2649809 α      lambda       -0.1555391E-01
   maximum displ.:     0.0970009 α      in ANC's #28, #23, #32, ...

........................................................................
.............................. CYCLE    3 ..............................
........................................................................
   1    -84.3406461 -0.843406E+02  0.319E-01    0.49       0.0  T
   2    -84.0036244  0.337022E+00  0.161E+00    0.27       1.0  T
   3    -84.3419381 -0.338314E+00  0.280E-01    0.39       1.0  T
   4    -84.3426953 -0.757165E-03  0.252E-01    0.32       1.0  T
   5    -84.3446300 -0.193469E-02  0.208E-01    0.22       1.0  T
   6    -84.3498091 -0.517907E-02  0.203E-02    0.10       1.0  T
   7    -84.3495621  0.246980E-03  0.492E-02    0.12       1.0  T
   8    -84.3498089 -0.246869E-03  0.204E-02    0.10       1.0  T
   9    -84.3498244 -0.154864E-04  0.178E-02    0.11       1.0  T
  10    -84.3498560 -0.315634E-04  0.886E-03    0.11       1.7  T
  11    -84.3498665 -0.105470E-04  0.294E-04    0.11      52.4  T
  12    -84.3498665  0.498337E-07  0.659E-04    0.11      23.4  T
  13    -84.3498665 -0.455217E-07  0.320E-04    0.11      48.2  T
  14    -84.3498665 -0.135401E-07  0.241E-05    0.11     640.3  T
  15    -84.3498665 -0.540723E-10  0.129E-05    0.11    1194.2  T
     SCC iter.                  ...        0 min,  0.056 sec
     gradient                   ...        0 min,  0.082 sec
 * total energy  :   -83.6248662 Eh     change       -0.8893122E-02 Eh
   gradient norm :     0.0304141 Eh/α   predicted    -0.8323024E-02 (  -6.41%)
   displ. norm   :     0.1976951 α      lambda       -0.1572161E-02
   maximum displ.:     0.0982473 α      in ANC's #10, #6, #7, ...

........................................................................
.............................. CYCLE    4 ..............................
........................................................................
   1    -84.3493360 -0.843493E+02  0.184E-01    0.23       0.0  T
   2    -83.9975632  0.351773E+00  0.164E+00    0.26       1.0  T
   3    -84.3515621 -0.353999E+00  0.127E-01    0.17       1.0  T
   4    -84.3528314 -0.126924E-02  0.772E-02    0.15       1.0  T
   5    -84.3536194 -0.787983E-03  0.695E-03    0.12       2.2  T
   6    -84.3535969  0.224619E-04  0.145E-02    0.11       1.1  T
   7    -84.3536235 -0.266408E-04  0.179E-03    0.12       8.6  T
   8    -84.3536239 -0.372499E-06  0.745E-04    0.12      20.7  T
   9    -84.3536239  0.426694E-08  0.732E-04    0.12      21.1  T
  10    -84.3536240 -0.686065E-07  0.585E-05    0.12     263.6  T
  11    -84.3536240  0.120596E-08  0.114E-04    0.12     134.8  T
     SCC iter.                  ...        0 min,  0.040 sec
     gradient                   ...        0 min,  0.082 sec
 * total energy  :   -83.6260489 Eh     change       -0.1182699E-02 Eh
   gradient norm :     0.0192946 Eh/α   predicted    -0.8168026E-03 ( -30.94%)
   displ. norm   :     0.3051884 α      lambda       -0.1330411E-02
   maximum displ.:     0.1608104 α      in ANC's #10, #6, #7, ...

........................................................................
.............................. CYCLE    5 ..............................
........................................................................
   1    -84.3526702 -0.843527E+02  0.159E-01    0.24       0.0  T
   2    -84.0039322  0.348738E+00  0.163E+00    0.19       1.0  T
   3    -84.3542594 -0.350327E+00  0.112E-01    0.18       1.0  T
   4    -84.3551657 -0.906325E-03  0.734E-02    0.16       1.0  T
   5    -84.3558606 -0.694909E-03  0.124E-02    0.13       1.2  T
   6    -84.3558348  0.258149E-04  0.185E-02    0.12       1.0  T
   7    -84.3558795 -0.447651E-04  0.751E-04    0.13      20.5  T
   8    -84.3558796 -0.463858E-07  0.384E-04    0.12      40.1  T
   9    -84.3558794  0.135769E-06  0.107E-03    0.12      14.4  T
  10    -84.3558796 -0.149192E-06  0.905E-05    0.13     170.6  T
  11    -84.3558796  0.178503E-09  0.944E-05    0.13     163.4  T
     SCC iter.                  ...        0 min,  0.040 sec
     gradient                   ...        0 min,  0.074 sec
 * total energy  :   -83.6269093 Eh     change       -0.8603929E-03 Eh
   gradient norm :     0.0093782 Eh/α   predicted    -0.7271667E-03 ( -15.48%)
   displ. norm   :     0.2215448 α      lambda       -0.4251461E-03
   maximum displ.:     0.1093176 α      in ANC's #10, #6, #7, ...

........................................................................
.............................. CYCLE    6 ..............................
........................................................................
   1    -84.3562928 -0.843563E+02  0.725E-02    0.16       0.0  T
   2    -84.2130241  0.143269E+00  0.103E+00    0.04       1.0  T
   3    -84.3567992 -0.143775E+00  0.388E-02    0.14       1.0  T
   4    -84.3569206 -0.121393E-03  0.233E-02    0.14       1.0  T
   5    -84.3569823 -0.616862E-04  0.863E-03    0.13       1.8  T
   6    -84.3569911 -0.876687E-05  0.230E-03    0.13       6.7  T
   7    -84.3569916 -0.526012E-06  0.113E-03    0.13      13.6  T
   8    -84.3569918 -0.169687E-06  0.158E-04    0.13      97.5  T
   9    -84.3569918 -0.120639E-08  0.132E-04    0.13     117.3  T
     SCC iter.                  ...        0 min,  0.034 sec
     gradient                   ...        0 min,  0.080 sec
 * total energy  :   -83.6272252 Eh     change       -0.3158835E-03 Eh
   gradient norm :     0.0087311 Eh/α   predicted    -0.2230072E-03 ( -29.40%)
   displ. norm   :     0.2785225 α      lambda       -0.3917560E-03
   maximum displ.:     0.1348417 α      in ANC's #6, #10, #2, ...

........................................................................
.............................. CYCLE    7 ..............................
........................................................................
   1    -84.3577612 -0.843578E+02  0.156E-02    0.13       0.0  T
   2    -84.3561278  0.163344E-02  0.112E-01    0.10       1.0  T
   3    -84.3577894 -0.166163E-02  0.443E-03    0.13       3.5  T
   4    -84.3577879  0.150248E-05  0.487E-03    0.13       3.2  T
   5    -84.3577896 -0.169913E-05  0.262E-03    0.13       5.9  T
   6    -84.3577903 -0.708483E-06  0.618E-04    0.13      25.0  T
   7    -84.3577904 -0.433534E-07  0.145E-04    0.13     106.5  T
   8    -84.3577904 -0.222138E-08  0.289E-05    0.13     534.1  T
     SCC iter.                  ...        0 min,  0.055 sec
     gradient                   ...        0 min,  0.158 sec
 * total energy  :   -83.6275049 Eh     change       -0.2797455E-03 Eh
   gradient norm :     0.0084405 Eh/α   predicted    -0.2110887E-03 ( -24.54%)
   displ. norm   :     0.2475297 α      lambda       -0.2506595E-03
   maximum displ.:     0.1206630 α      in ANC's #2, #6, #10, ...

........................................................................
.............................. CYCLE    8 ..............................
........................................................................
   1    -84.3577244 -0.843577E+02  0.607E-02    0.11       0.0  T
   2    -84.3547318  0.299266E-02  0.174E-01    0.27       1.0  T
   3    -84.3578090 -0.307722E-02  0.570E-02    0.15       1.0  T
   4    -84.3582055 -0.396513E-03  0.845E-03    0.13       1.8  T
   5    -84.3582127 -0.721009E-05  0.156E-03    0.13       9.9  T
   6    -84.3582130 -0.255714E-06  0.792E-04    0.13      19.5  T
   7    -84.3582130 -0.503316E-07  0.644E-05    0.13     239.7  T
   8    -84.3582130  0.428905E-08  0.186E-04    0.13      83.2  T
     SCC iter.                  ...        0 min,  0.030 sec
     gradient                   ...        0 min,  0.080 sec
 * total energy  :   -83.6276835 Eh     change       -0.1786077E-03 Eh
   gradient norm :     0.0065012 Eh/α   predicted    -0.1330096E-03 ( -25.53%)
   displ. norm   :     0.2086489 α      lambda       -0.1587930E-03
   maximum displ.:     0.1229680 α      in ANC's #2, #6, #9, ...

........................................................................
.............................. CYCLE    9 ..............................
........................................................................
   1    -84.3580669 -0.843581E+02  0.646E-02    0.10       0.0  T
   2    -84.3547940  0.327293E-02  0.183E-01    0.27       1.0  T
   3    -84.3581010 -0.330700E-02  0.645E-02    0.15       1.0  T
   4    -84.3585919 -0.490934E-03  0.171E-02    0.13       1.0  T
   5    -84.3586207 -0.287598E-04  0.735E-03    0.12       2.1  T
   6    -84.3586246 -0.388292E-05  0.523E-03    0.13       3.0  T
   7    -84.3586279 -0.338796E-05  0.694E-04    0.12      22.2  T
   8    -84.3586280 -0.633958E-07  0.954E-05    0.12     161.7  T
   9    -84.3586280 -0.333358E-09  0.787E-05    0.12     196.1  T
     SCC iter.                  ...        0 min,  0.033 sec
     gradient                   ...        0 min,  0.067 sec
 * total energy  :   -83.6277977 Eh     change       -0.1141700E-03 Eh
   gradient norm :     0.0039675 Eh/α   predicted    -0.8285416E-04 ( -27.43%)
   displ. norm   :     0.1704708 α      lambda       -0.1063164E-03
   maximum displ.:     0.1168796 α      in ANC's #2, #9, #1, ...

........................................................................
.............................. CYCLE   10 ..............................
........................................................................
   1    -84.3588134 -0.843588E+02  0.502E-02    0.11       0.0  T
   2    -84.3557648  0.304860E-02  0.168E-01    0.24       1.0  T
   3    -84.3589186 -0.315381E-02  0.424E-02    0.14       1.0  T
   4    -84.3591503 -0.231695E-03  0.274E-03    0.12       5.6  T
   5    -84.3591505 -0.258348E-06  0.195E-03    0.12       7.9  T
   6    -84.3591505  0.624251E-07  0.194E-03    0.12       8.0  T
   7    -84.3591510 -0.482467E-06  0.257E-04    0.12      60.1  T
   8    -84.3591510 -0.856866E-08  0.278E-05    0.12     554.5  T
   9    -84.3591510 -0.588329E-10  0.758E-06    0.12    2036.9  T
     SCC iter.                  ...        0 min,  0.023 sec
     gradient                   ...        0 min,  0.044 sec
 * total energy  :   -83.6278765 Eh     change       -0.7878447E-04 Eh
   gradient norm :     0.0036148 Eh/α   predicted    -0.5471179E-04 ( -30.56%)
   displ. norm   :     0.1485060 α      lambda       -0.8248405E-04
   maximum displ.:     0.1072071 α      in ANC's #2, #1, #5, ...

........................................................................
.............................. CYCLE   11 ..............................
........................................................................
   1    -84.3593590 -0.843594E+02  0.924E-03    0.12       0.0  T
   2    -84.3591012  0.257806E-03  0.451E-02    0.14       1.0  T
   3    -84.3593678 -0.266639E-03  0.307E-03    0.12       5.0  T
   4    -84.3593681 -0.276381E-06  0.188E-03    0.12       8.2  T
   5    -84.3593683 -0.158107E-06  0.110E-03    0.12      14.1  T
   6    -84.3593684 -0.111949E-06  0.772E-05    0.12     199.8  T
   7    -84.3593684 -0.195939E-09  0.267E-05    0.12     578.3  T
     SCC iter.                  ...        0 min,  0.022 sec
     gradient                   ...        0 min,  0.075 sec
 * total energy  :   -83.6279426 Eh     change       -0.6608332E-04 Eh
   gradient norm :     0.0035371 Eh/α   predicted    -0.4215597E-04 ( -36.21%)
   displ. norm   :     0.1676814 α      lambda       -0.8803832E-04
   maximum displ.:     0.1200537 α      in ANC's #2, #1, #7, ...

........................................................................
.............................. CYCLE   12 ..............................
........................................................................
   1    -84.3595766 -0.843596E+02  0.673E-03    0.12       0.0  T
   2    -84.3593776  0.198949E-03  0.399E-02    0.11       1.0  T
   3    -84.3595797 -0.202106E-03  0.319E-03    0.12       4.8  T
   4    -84.3595806 -0.824418E-06  0.227E-03    0.12       6.8  T
   5    -84.3595808 -0.209346E-06  0.152E-03    0.12      10.1  T
   6    -84.3595810 -0.252209E-06  0.312E-04    0.12      49.4  T
   7    -84.3595810 -0.117993E-07  0.232E-05    0.12     666.4  T
   8    -84.3595810 -0.242864E-10  0.787E-06    0.12    1961.2  T
     SCC iter.                  ...        0 min,  0.021 sec
     gradient                   ...        0 min,  0.044 sec
 * total energy  :   -83.6280159 Eh     change       -0.7329454E-04 Eh
   gradient norm :     0.0039910 Eh/α   predicted    -0.4528031E-04 ( -38.22%)
   displ. norm   :     0.2130608 α      lambda       -0.1025111E-03
   maximum displ.:     0.1493865 α      in ANC's #2, #1, #7, ...

........................................................................
.............................. CYCLE   13 ..............................
........................................................................
   1    -84.3592704 -0.843593E+02  0.247E-02    0.13       0.0  T
   2    -84.3514861  0.778431E-02  0.244E-01    0.07       1.0  T
   3    -84.3593420 -0.785595E-02  0.751E-03    0.12       2.1  T
   4    -84.3593492 -0.719583E-05  0.155E-03    0.12       9.9  T
   5    -84.3593492  0.239409E-07  0.158E-03    0.12       9.8  T
   6    -84.3593493 -0.797917E-07  0.124E-03    0.12      12.4  T
   7    -84.3593495 -0.185110E-06  0.364E-04    0.12      42.4  T
   8    -84.3593495 -0.169042E-07  0.112E-05    0.12    1381.2  T
   9    -84.3593495  0.193126E-10  0.153E-05    0.12    1006.4  T
     SCC iter.                  ...        0 min,  0.023 sec
     gradient                   ...        0 min,  0.044 sec
 * total energy  :   -83.6281013 Eh     change       -0.8538661E-04 Eh
   gradient norm :     0.0043039 Eh/α   predicted    -0.5358495E-04 ( -37.24%)
   displ. norm   :     0.2460792 α      lambda       -0.1081515E-03
   maximum displ.:     0.1725387 α      in ANC's #2, #1, #7, ...

........................................................................
.............................. CYCLE   14 ..............................
........................................................................
   1    -84.3591005 -0.843591E+02  0.282E-02    0.13       0.0  T
   2    -84.3479122  0.111883E-01  0.291E-01    0.06       1.0  T
   3    -84.3591940 -0.112817E-01  0.928E-03    0.13       1.7  T
   4    -84.3592032 -0.920560E-05  0.362E-03    0.12       4.3  T
   5    -84.3592048 -0.162558E-05  0.355E-04    0.12      43.5  T
   6    -84.3592047  0.756616E-07  0.761E-04    0.12      20.3  T
   7    -84.3592048 -0.721074E-07  0.192E-04    0.12      80.5  T
   8    -84.3592048 -0.470943E-08  0.101E-05    0.12    1529.1  T
     SCC iter.                  ...        0 min,  0.024 sec
     gradient                   ...        0 min,  0.067 sec
 * total energy  :   -83.6281988 Eh     change       -0.9757196E-04 Eh
   gradient norm :     0.0039195 Eh/α   predicted    -0.5735259E-04 ( -41.22%)
   displ. norm   :     0.3948301 α      lambda       -0.1676163E-03
   maximum displ.:     0.2749204 α      in ANC's #2, #1, #7, ...

........................................................................
.............................. CYCLE   15 ..............................
........................................................................
   1    -84.3582801 -0.843583E+02  0.374E-02    0.14       0.0  T
   2    -84.3339064  0.243737E-01  0.429E-01    0.04       1.0  T
   3    -84.3584392 -0.245329E-01  0.147E-02    0.13       1.1  T
   4    -84.3584563 -0.171070E-04  0.843E-03    0.13       1.8  T
   5    -84.3584648 -0.842644E-05  0.216E-03    0.12       7.1  T
   6    -84.3584653 -0.491813E-06  0.455E-04    0.12      33.9  T
   7    -84.3584653 -0.219108E-07  0.194E-04    0.12      79.6  T
   8    -84.3584653 -0.485645E-08  0.450E-05    0.12     343.0  T
     SCC iter.                  ...        0 min,  0.026 sec
     gradient                   ...        0 min,  0.079 sec
 * total energy  :   -83.6283388 Eh     change       -0.1399885E-03 Eh
   gradient norm :     0.0039978 Eh/α   predicted    -0.9687384E-04 ( -30.80%)
   displ. norm   :     0.4098149 α      lambda       -0.1543729E-03
   maximum displ.:     0.2889853 α      in ANC's #2, #1, #5, ...

........................................................................
.............................. CYCLE   16 ..............................
........................................................................
   1    -84.3580524 -0.843581E+02  0.332E-02    0.14       0.0  T
   2    -84.3415252  0.165272E-01  0.354E-01    0.05       1.0  T
   3    -84.3581831 -0.166579E-01  0.116E-02    0.13       1.3  T
   4    -84.3581927 -0.957237E-05  0.712E-03    0.13       2.2  T
   5    -84.3581985 -0.578558E-05  0.216E-03    0.13       7.1  T
   6    -84.3581990 -0.500436E-06  0.249E-04    0.12      61.9  T
   7    -84.3581990 -0.493752E-08  0.132E-04    0.12     116.8  T
   8    -84.3581990 -0.214565E-08  0.363E-05    0.12     425.3  T
     SCC iter.                  ...        0 min,  0.024 sec
     gradient                   ...        0 min,  0.044 sec
 * total energy  :   -83.6284642 Eh     change       -0.1253386E-03 Eh
   gradient norm :     0.0046552 Eh/α   predicted    -0.9015012E-04 ( -28.07%)
   displ. norm   :     0.3941270 α      lambda       -0.1470105E-03
   maximum displ.:     0.2837077 α      in ANC's #2, #1, #5, ...

........................................................................
.............................. CYCLE   17 ..............................
........................................................................
   1    -84.3588087 -0.843588E+02  0.282E-02    0.14       0.0  T
   2    -84.3486772  0.101315E-01  0.278E-01    0.06       1.0  T
   3    -84.3589096 -0.102324E-01  0.753E-03    0.13       2.0  T
   4    -84.3589135 -0.387228E-05  0.448E-03    0.13       3.4  T
   5    -84.3589159 -0.241921E-05  0.874E-04    0.13      17.6  T
   6    -84.3589159  0.184709E-07  0.713E-04    0.13      21.6  T
   7    -84.3589160 -0.612577E-07  0.207E-04    0.13      74.5  T
   8    -84.3589160 -0.546119E-08  0.189E-05    0.13     814.3  T
   9    -84.3589160 -0.154756E-10  0.118E-05    0.13    1306.1  T
     SCC iter.                  ...        0 min,  0.023 sec
     gradient                   ...        0 min,  0.057 sec
 * total energy  :   -83.6285802 Eh     change       -0.1160681E-03 Eh
   gradient norm :     0.0050556 Eh/α   predicted    -0.8492400E-04 ( -26.83%)
   displ. norm   :     0.3884232 α      lambda       -0.1399027E-03
   maximum displ.:     0.2819888 α      in ANC's #2, #1, #5, ...

........................................................................
.............................. CYCLE   18 ..............................
........................................................................
   1    -84.3595169 -0.843595E+02  0.121E-02    0.13       0.0  T
   2    -84.3585525  0.964379E-03  0.866E-02    0.10       1.0  T
   3    -84.3595347 -0.982223E-03  0.269E-03    0.13       5.7  T
   4    -84.3595351 -0.397222E-06  0.131E-03    0.13      11.8  T
   5    -84.3595352 -0.892253E-07  0.496E-04    0.13      31.1  T
   6    -84.3595352 -0.110791E-07  0.882E-05    0.13     175.0  T
   7    -84.3595352 -0.581878E-09  0.349E-05    0.13     442.4  T
     SCC iter.                  ...        0 min,  0.025 sec
     gradient                   ...        0 min,  0.083 sec
 * total energy  :   -83.6286870 Eh     change       -0.1067506E-03 Eh
   gradient norm :     0.0047957 Eh/α   predicted    -0.8050940E-04 ( -24.58%)
   displ. norm   :     0.3454977 α      lambda       -0.1329102E-03
   maximum displ.:     0.2539078 α      in ANC's #2, #1, #5, ...

........................................................................
.............................. CYCLE   19 ..............................
........................................................................
   1    -84.3617674 -0.843618E+02  0.104E-02    0.12       0.0  T
   2    -84.3614792  0.288236E-03  0.484E-02    0.15       1.0  T
   3    -84.3617785 -0.299354E-03  0.273E-03    0.13       5.6  T
   4    -84.3617784  0.808617E-07  0.185E-03    0.13       8.3  T
   5    -84.3617784  0.445693E-07  0.125E-03    0.13      12.3  T
   6    -84.3617786 -0.183873E-06  0.258E-04    0.13      59.9  T
   7    -84.3617786 -0.860346E-08  0.224E-05    0.13     688.6  T
   8    -84.3617786  0.569855E-11  0.123E-05    0.13    1254.7  T
     SCC iter.                  ...        0 min,  0.032 sec
     gradient                   ...        0 min,  0.085 sec
 * total energy  :   -83.6287769 Eh     change       -0.8994454E-04 Eh
   gradient norm :     0.0041892 Eh/α   predicted    -0.7438903E-04 ( -17.29%)
   displ. norm   :     0.5381635 α      lambda       -0.1399774E-03
   maximum displ.:     0.3849320 α      in ANC's #2, #1, #5, ...

........................................................................
.............................. CYCLE   20 ..............................
........................................................................
   1    -84.3579827 -0.843580E+02  0.185E-02    0.12       0.0  T
   2    -84.3572774  0.705330E-03  0.766E-02    0.16       1.0  T
   3    -84.3580163 -0.738882E-03  0.448E-03    0.13       3.4  T
   4    -84.3580163 -0.211850E-08  0.233E-03    0.12       6.6  T
   5    -84.3580163 -0.112085E-07  0.979E-04    0.12      15.8  T
   6    -84.3580163 -0.762852E-07  0.376E-04    0.13      41.0  T
   7    -84.3580164 -0.150799E-07  0.752E-05    0.13     205.2  T
   8    -84.3580164 -0.598675E-09  0.111E-05    0.13    1386.9  T
     SCC iter.                  ...        0 min,  0.030 sec
     gradient                   ...        0 min,  0.083 sec
 * total energy  :   -83.6288266 Eh     change       -0.4968510E-04 Eh
   gradient norm :     0.0057172 Eh/α   predicted    -0.9026322E-04 (  81.67%)
   displ. norm   :     0.0536370 α      lambda       -0.8910646E-04
   maximum displ.:     0.0207096 α      in ANC's #7, #4, #1, ...
 * RMSD in coord.:     0.6502580 α      energy gain  -0.3352744E-01 Eh

generating ANC from model Hessian ...
Using Lindh-Hessian (1995)
 Shifting diagonal of input Hessian by   9.836872921312212E-003
 Lowest  eigenvalues of input Hessian
    0.000000    0.000000    0.000000    0.000000    0.000000    0.000000
    0.010000    0.010136    0.010627    0.011166    0.011718    0.011875
    0.012661    0.013615    0.014556    0.015240    0.016563    0.016868
 Highest eigenvalues
    2.008432    2.075455    2.157262    2.192939    2.244277    2.363532
 

........................................................................
.............................. CYCLE   21 ..............................
........................................................................
   1    -84.3608344 -0.843608E+02  0.201E-02    0.12       0.0  T
   2    -84.3597937  0.104074E-02  0.934E-02    0.17       1.0  T
   3    -84.3608726 -0.107885E-02  0.116E-02    0.13       1.3  T
   4    -84.3608874 -0.148608E-04  0.375E-03    0.12       4.1  T
   5    -84.3608889 -0.146960E-05  0.778E-04    0.12      19.8  T
   6    -84.3608889 -0.378137E-07  0.298E-04    0.12      51.7  T
   7    -84.3608889 -0.946970E-08  0.110E-04    0.12     140.1  T
   8    -84.3608889 -0.130727E-08  0.427E-05    0.12     361.5  T
     SCC iter.                  ...        0 min,  0.032 sec
     gradient                   ...        0 min,  0.082 sec
 * total energy  :   -83.6288825 Eh     change       -0.5591266E-04 Eh
   gradient norm :     0.0028034 Eh/α   predicted     0.0000000E+00 (-100.00%)
   displ. norm   :     0.0283208 α      lambda       -0.2171064E-04
   maximum displ.:     0.0119326 α      in ANC's #8, #7, #1, ...

........................................................................
.............................. CYCLE   22 ..............................
........................................................................
   1    -84.3609473 -0.843609E+02  0.383E-03    0.13       0.0  T
   2    -84.3608937  0.535773E-04  0.206E-02    0.12       1.0  T
   3    -84.3609486 -0.549059E-04  0.147E-03    0.13      10.5  T
   4    -84.3609488 -0.131357E-06  0.649E-04    0.12      23.8  T
   5    -84.3609488 -0.987205E-08  0.242E-04    0.12      63.8  T
   6    -84.3609488 -0.930669E-09  0.979E-05    0.12     157.6  T
   7    -84.3609488 -0.121338E-08  0.103E-05    0.12    1495.9  T
     SCC iter.                  ...        0 min,  0.026 sec
     gradient                   ...        0 min,  0.083 sec
 * total energy  :   -83.6289017 Eh     change       -0.1916384E-04 Eh
   gradient norm :     0.0015305 Eh/α   predicted    -0.1182453E-04 ( -38.30%)
   displ. norm   :     0.1167289 α      lambda       -0.3817462E-04
   maximum displ.:     0.0533830 α      in ANC's #8, #7, #1, ...

........................................................................
.............................. CYCLE   23 ..............................
........................................................................
   1    -84.3608135 -0.843608E+02  0.936E-03    0.13       0.0  T
   2    -84.3605599  0.253551E-03  0.448E-02    0.11       1.0  T
   3    -84.3608143 -0.254327E-03  0.785E-03    0.13       2.0  T
   4    -84.3608205 -0.621779E-05  0.259E-03    0.13       6.0  T
   5    -84.3608209 -0.414988E-06  0.106E-03    0.13      14.6  T
   6    -84.3608210 -0.564634E-07  0.348E-04    0.12      44.4  T
   7    -84.3608210 -0.155105E-07  0.278E-05    0.12     554.2  T
   8    -84.3608210 -0.293170E-10  0.151E-05    0.12    1022.9  T
     SCC iter.                  ...        0 min,  0.024 sec
     gradient                   ...        0 min,  0.044 sec
 * total energy  :   -83.6289275 Eh     change       -0.2580092E-04 Eh
   gradient norm :     0.0024829 Eh/α   predicted    -0.1920305E-04 ( -25.57%)
   displ. norm   :     0.0265028 α      lambda       -0.1090940E-04
   maximum displ.:     0.0114995 α      in ANC's #1, #8, #7, ...

........................................................................
.............................. CYCLE   24 ..............................
........................................................................
   1    -84.3608752 -0.843609E+02  0.171E-03    0.12       0.0  T
   2    -84.3608646  0.105770E-04  0.921E-03    0.13       1.7  T
   3    -84.3608754 -0.108482E-04  0.827E-04    0.13      18.7  T
   4    -84.3608755 -0.592669E-07  0.267E-04    0.12      57.8  T
   5    -84.3608755 -0.183348E-09  0.645E-05    0.12     239.1  T
   6    -84.3608755 -0.559766E-10  0.187E-05    0.12     823.8  T
     SCC iter.                  ...        0 min,  0.022 sec
     gradient                   ...        0 min,  0.082 sec
 * total energy  :   -83.6289372 Eh     change       -0.9758210E-05 Eh
   gradient norm :     0.0018338 Eh/α   predicted    -0.5458751E-05 ( -44.06%)
   displ. norm   :     0.2167669 α      lambda       -0.4487023E-04
   maximum displ.:     0.0941721 α      in ANC's #1, #8, #7, ...

........................................................................
.............................. CYCLE   25 ..............................
........................................................................
   1    -84.3604773 -0.843605E+02  0.176E-02    0.12       0.0  T
   2    -84.3596193  0.857999E-03  0.847E-02    0.16       1.0  T
   3    -84.3605062 -0.886880E-03  0.101E-02    0.13       1.5  T
   4    -84.3605170 -0.108023E-04  0.321E-03    0.12       4.8  T
   5    -84.3605179 -0.883924E-06  0.143E-03    0.13      10.8  T
   6    -84.3605181 -0.228523E-06  0.294E-04    0.12      52.5  T
   7    -84.3605181 -0.891916E-08  0.927E-05    0.12     166.5  T
   8    -84.3605181 -0.864546E-09  0.372E-05    0.12     415.2  T
     SCC iter.                  ...        0 min,  0.029 sec
     gradient                   ...        0 min,  0.082 sec
 * total energy  :   -83.6289606 Eh     change       -0.2336010E-04 Eh
   gradient norm :     0.0032127 Eh/α   predicted    -0.2298795E-04 (  -1.59%)
   displ. norm   :     0.0105652 α      lambda       -0.1247762E-04
   maximum displ.:     0.0044144 α      in ANC's #8, #1, #23, ...

........................................................................
.............................. CYCLE   26 ..............................
........................................................................
   1    -84.3607835 -0.843608E+02  0.314E-03    0.13       0.0  T
   2    -84.3607368  0.466674E-04  0.193E-02    0.12       1.0  T
   3    -84.3607843 -0.475067E-04  0.193E-03    0.12       8.0  T
   4    -84.3607847 -0.355807E-06  0.662E-04    0.12      23.3  T
   5    -84.3607847 -0.204563E-07  0.145E-04    0.12     106.7  T
   6    -84.3607847 -0.790493E-09  0.319E-05    0.12     483.2  T
     SCC iter.                  ...        0 min,  0.022 sec
     gradient                   ...        0 min,  0.082 sec
 * total energy  :   -83.6289699 Eh     change       -0.9301086E-05 Eh
   gradient norm :     0.0018004 Eh/α   predicted    -0.6260498E-05 ( -32.69%)
   displ. norm   :     0.0501041 α      lambda       -0.1115544E-04
   maximum displ.:     0.0311615 α      in ANC's #1, #2, #4, ...

........................................................................
.............................. CYCLE   27 ..............................
........................................................................
   1    -84.3611424 -0.843611E+02  0.552E-03    0.13       0.0  T
   2    -84.3609906  0.151820E-03  0.347E-02    0.11       1.0  T
   3    -84.3611447 -0.154105E-03  0.388E-03    0.12       4.0  T
   4    -84.3611461 -0.141942E-05  0.151E-03    0.12      10.2  T
   5    -84.3611462 -0.150346E-06  0.398E-04    0.12      38.8  T
   6    -84.3611462 -0.948225E-08  0.634E-05    0.12     243.3  T
   7    -84.3611463 -0.159943E-09  0.170E-05    0.12     909.8  T
     SCC iter.                  ...        0 min,  0.025 sec
     gradient                   ...        0 min,  0.082 sec
 * total energy  :   -83.6289776 Eh     change       -0.7733781E-05 Eh
   gradient norm :     0.0010664 Eh/α   predicted    -0.5584368E-05 ( -27.79%)
   displ. norm   :     0.0510465 α      lambda       -0.3574742E-05
   maximum displ.:     0.0283522 α      in ANC's #1, #2, #8, ...

........................................................................
.............................. CYCLE   28 ..............................
........................................................................
   1    -84.3609441 -0.843609E+02  0.115E-03    0.12       0.0  T
   2    -84.3609420  0.210810E-05  0.416E-03    0.13       3.7  T
   3    -84.3609441 -0.215496E-05  0.581E-04    0.12      26.6  T
   4    -84.3609442 -0.198945E-07  0.212E-04    0.12      72.9  T
   5    -84.3609442 -0.145255E-08  0.520E-05    0.12     296.6  T
   6    -84.3609442 -0.167262E-10  0.253E-05    0.12     609.2  T
     SCC iter.                  ...        0 min,  0.022 sec
     gradient                   ...        0 min,  0.082 sec
 * total energy  :   -83.6289821 Eh     change       -0.4465326E-05 Eh
   gradient norm :     0.0007165 Eh/α   predicted    -0.1792018E-05 ( -59.87%)
   displ. norm   :     0.0760491 α      lambda       -0.5389931E-05
   maximum displ.:     0.0459800 α      in ANC's #1, #2, #8, ...

   *** GEOMETRY OPTIMIZATION CONVERGED AFTER 28 ITERATIONS ***

------------------------------------------------------------------------
 total energy gain   :        -0.0336829 Eh      -21.1364 kcal/mol
 total RMSD          :         0.6790161 a0        0.3593 Å
 total power (kW/mol):        -3.1583758 (step)  -22.0727 (real)
------------------------------------------------------------------------

 ANCopt (total)                0 d,  0 h,  0 min,  4.007 sec
 optimizer setup                ...        0 min,  0.001 sec (  0.018%)
 model hessian                  ...        0 min,  0.054 sec (  1.354%)
 ANC generation                 ...        0 min,  0.005 sec (  0.121%)
 coordinate transformation      ...        0 min,  0.001 sec (  0.023%)
 single point calculation       ...        0 min,  3.933 sec ( 98.164%)
 optimization log               ...        0 min,  0.007 sec (  0.174%)
 hessian update                 ...        0 min,  0.001 sec (  0.018%)
 rational function              ...        0 min,  0.003 sec (  0.078%)

================
 final structure:
================
42
 xtb: 6.5.1 (579679a)
C           -4.42238898190008        3.19156351082683        0.15819112231768
O           -3.85922950673056        1.95212098003329       -0.21566772586279
C           -2.64597920177618        1.62772458479755        0.45111544124748
O           -2.17854190052824        2.46814226901595        1.24845045241097
C           -2.13147356273979        0.37536590831330        0.10920697763153
N           -0.94289686338003        0.01388564233468        0.71235504724581
C           -0.39383678565672       -1.12604693161300        0.42581227555621
C            0.90581577030678       -1.47091841280151        1.15700327465486
C            1.16733083164716       -2.97970735766110        1.09811482283753
C            0.82403469224866       -0.98302035055803        2.60941791421539
N            1.99909416607061       -0.75092631461169        0.46510416515294
C            3.29413769423270       -0.81457074106764        0.81650614770246
O            3.75467272928273       -1.49856370092078        1.73498597187844
C            4.18022850180499        0.02014764499242       -0.02056156838331
N            5.47983018623541        0.13452398462645        0.08176964054069
N            5.87702969819199        0.99913697938915       -0.89866700945965
C            4.80950464026400        1.35956528177835       -1.53739067772014
C            4.72168201488486        2.28839953321938       -2.68716966997839
O            3.69907920042856        0.78170024718019       -1.04027369456758
N           -0.82735658877249       -2.06064669240324       -0.47157117289795
C           -1.95691859572532       -1.85308788943547       -1.13867301083809
O           -2.40030054540892       -2.67262131955857       -1.97355768836620
C           -2.81502192847615       -0.57251599013266       -0.85754043683762
C           -4.16830990858834       -1.07857005372182       -0.30423121838535
O           -3.04205825974433        0.05094205723712       -2.13752732461962
H           -3.75591298987367        4.02761401074119       -0.09063728425551
H           -4.63240171913340        3.22708159873793        1.23500701304241
H           -5.35832242948380        3.30601941647849       -0.39065336697241
H            2.06957529833687       -3.24711176450929        1.64576811724245
H            1.26760278927509       -3.29884014320548        0.06018371824044
H            0.31965750100557       -3.50515984624243        1.53787670256863
H            0.01138320432350       -1.50176774150476        3.11695172715361
H            1.75243018793342       -1.17632242345931        3.14465976986674
H            0.61572837677573        0.08748197618142        2.62322968673871
H            1.73643272096155       -0.11964881323778       -0.27768370570126
H            5.71315292714069        2.66582469068102       -2.92296361054074
H            4.06321568120799        3.12340532473029       -2.44889094815132
H            4.31462038785642        1.77410338866440       -3.55747706607552
H           -4.01256602376937       -1.56401069639186        0.65936946484804
H           -4.60028337348320       -1.79786209377290       -1.00166207344118
H           -4.86733301719848       -0.25464365222593       -0.17373301029288
H           -3.56510501804635        0.85181389906379       -1.99463518975190
 
 Bond Distances (Angstroems)
 ---------------------------
C1-O2=1.4118         C1-H26=1.0978        C1-H27=1.0977        C1-H28=1.0910        O2-C1=1.4118         O2-C3=1.4219         
C3-O2=1.4219         C3-O4=1.2492         C3-C5=1.3964         O4-C3=1.2492         C5-C3=1.3964         C5-N6=1.3810         
C5-C23=1.5167        N6-C5=1.3810         N6-C7=1.2973         C7-N6=1.2973         C7-C8=1.5306         C7-N20=1.3663        
C8-C7=1.5306         C8-C9=1.5324         C8-C10=1.5344        C8-N11=1.4807        C9-C8=1.5324         C9-H29=1.0888        
C9-H30=1.0905        C9-H31=1.0900        C10-C8=1.5344        C10-H32=1.0895       C10-H33=1.0889       C10-H34=1.0907       
N11-C8=1.4807        N11-C12=1.3434       N11-H35=1.0096       C12-N11=1.3434       C12-O13=1.2343       C12-C14=1.4774       
O13-C12=1.2343       C14-C12=1.4774       C14-N15=1.3086       C14-O19=1.3606       N15-C14=1.3086       N15-N16=1.3662       
N16-N15=1.3662       N16-C17=1.2952       C17-N16=1.2952       C17-C18=1.4807       C17-O19=1.3469       C18-C17=1.4807       
C18-H36=1.0868       C18-H37=1.0898       C18-H38=1.0898       O19-C14=1.3606       O19-C17=1.3469       N20-C7=1.3663        
N20-C21=1.3282       C21-N20=1.3282       C21-O22=1.2511       C21-C23=1.5669       O22-C21=1.2511       C23-C5=1.5167        
C23-C21=1.5669       C23-C24=1.5471       C23-O25=1.4417       C24-C23=1.5471       C24-H39=1.0902       C24-H40=1.0911       
C24-H41=1.0884       O25-C23=1.4417       O25-H42=0.9672       H26-C1=1.0978        H27-C1=1.0977        H28-C1=1.0910        
H29-C9=1.0888        H30-C9=1.0905        H31-C9=1.0900        H32-C10=1.0895       H33-C10=1.0889       H34-C10=1.0907       
H35-N11=1.0096       H36-C18=1.0868       H37-C18=1.0898       H38-C18=1.0898       H39-C24=1.0902       H40-C24=1.0911       
H41-C24=1.0884       H42-O25=0.9672       
 C  H  Rav=1.0907 sigma=0.0029  Rmin=1.0868  Rmax=1.0978    15
 C  C  Rav=1.5092 sigma=0.0483  Rmin=1.3964  Rmax=1.5669     9
 N  H  Rav=1.0096 sigma=0.0000  Rmin=1.0096  Rmax=1.0096     1
 N  C  Rav=1.3501 sigma=0.0574  Rmin=1.2952  Rmax=1.4807     8
 N  N  Rav=1.3662 sigma=0.0000  Rmin=1.3662  Rmax=1.3662     1
 O  H  Rav=0.9672 sigma=0.0000  Rmin=0.9672  Rmax=0.9672     1
 O  C  Rav=1.3397 sigma=0.0791  Rmin=1.2343  Rmax=1.4417     8
 
 selected bond angles (degree)
 --------------------
H26-C1-O2=111.49               H27-C1-O2=111.38               H27-C1-H26=108.29              H28-C1-O2=107.52               
H28-C1-H26=109.08              H28-C1-H27=109.02              C3-O2-C1=114.61                O4-C3-O2=117.72                
C5-C3-O2=113.84                C5-C3-O4=128.44                N6-C5-C3=116.42                C23-C5-C3=123.40               
C23-C5-N6=120.18               C7-N6-C5=119.85                C8-C7-N6=116.86                N20-C7-N6=127.72               
N20-C7-C8=115.41               C9-C8-C7=110.39                C10-C8-C7=109.59               C10-C8-C9=111.01               
N11-C8-C7=107.11               N11-C8-C9=109.56               N11-C8-C10=109.09              H29-C9-C8=111.34               
H30-C9-C8=109.90               H30-C9-H29=109.31              H31-C9-C8=109.05               H31-C9-H29=108.85              
H31-C9-H30=108.33              H32-C10-C8=109.23              H33-C10-C8=111.31              H33-C10-H32=108.81             
H34-C10-C8=109.53              H34-C10-H32=108.60             H34-C10-H33=109.32             
 
 selected dihedral angles (degree)
 ---------------------------------
C3-O2-C1-H26= 62.50           C3-O2-C1-H27=301.41           C3-O2-C1-H28=182.02           O4-C3-O2-C1=357.55            
C5-C3-O2-C1=177.57            N6-C5-C3-O2=179.12            N6-C5-C3-O4=359.14            C23-C5-C3-O2=358.57           
C23-C5-C3-O4=178.59           C7-N6-C5-C3=181.15            C7-N6-C5-C23=  1.67           C8-C7-N6-C5=181.32            
N20-C7-N6-C5=  2.29           C9-C8-C7-N6=160.54            C9-C8-C7-N20=339.70           C10-C8-C7-N6= 37.97           
C10-C8-C7-N20=217.13          N11-C8-C7-N6=279.76           N11-C8-C7-N20= 98.91          H29-C9-C8-C7=182.12           
H29-C9-C8-C10=303.85          H29-C9-C8-N11= 64.40          H30-C9-C8-C7= 60.85           H30-C9-C8-C10=182.59          
H30-C9-C8-N11=303.14          H31-C9-C8-C7=302.25           H31-C9-C8-C10= 63.98          H31-C9-C8-N11=184.53          
H32-C10-C8-C7= 62.27          H32-C10-C8-C9=300.07          H32-C10-C8-N11=179.24         H33-C10-C8-C7=182.44          
H33-C10-C8-C9= 60.24          H33-C10-C8-N11=299.41         H34-C10-C8-C7=303.44          H34-C10-C8-C9=181.25          
H34-C10-C8-N11= 60.42         
           -------------------------------------------------
          |                Final Singlepoint                |
           -------------------------------------------------

          ...................................................
          :                      SETUP                      :
          :.................................................:
          :  # basis functions                 134          :
          :  # atomic orbitals                 134          :
          :  # shells                           84          :
          :  # electrons                       136          :
          :  # halogen bonds                     0          :
          :  max. iterations                   250          :
          :  Hamiltonian                  GFN1-xTB          :
          :  restarted?                      false          :
          :  GBSA solvation                   true          :
          :  PC potential                    false          :
          :  electronic temp.          300.0000000     K    :
          :  accuracy                    1.0000000          :
          :  -> integral cutoff          0.2500000E+02      :
          :  -> integral neglect         0.1000000E-07      :
          :  -> SCF convergence          0.1000000E-05 Eh   :
          :  -> wf. convergence          0.2000000E-04 e    :
          :  Broyden damping             0.4000000          :
          ...................................................

 iter      E             dE          RMSdq      gap      omega  full diag
   1    -84.3609442 -0.843609E+02  0.523E-06    0.12       0.0  T
   2    -84.3609442  0.272280E-10  0.150E-05    0.12    1028.7  T
   3    -84.3609442 -0.272422E-10  0.375E-06    0.12    4115.3  T

   *** convergence criteria satisfied after 3 iterations ***

         #    Occupation            Energy/Eh            Energy/eV
      -------------------------------------------------------------
         1        2.0000           -0.8403798             -22.8679
       ...           ...                  ...                  ...
        62        2.0000           -0.4109070             -11.1813
        63        2.0000           -0.3918068             -10.6616
        64        2.0000           -0.3813776             -10.3778
        65        2.0000           -0.3598366              -9.7917
        66        2.0000           -0.3525970              -9.5947
        67        2.0000           -0.3270391              -8.8992
        68        1.8362           -0.2892223              -7.8701 (HOMO)
        69        0.1638           -0.2846303              -7.7452 (LUMO)
        70                         -0.2377778              -6.4703
        71                         -0.2018933              -5.4938
        72                         -0.1691660              -4.6032
        73                         -0.1349590              -3.6724
       ...                                ...                  ...
       134                          0.7214831              19.6326
      -------------------------------------------------------------
                  HL-Gap            0.0045920 Eh            0.1250 eV
             Fermi-level           -0.2869263 Eh           -7.8077 eV

 SCC (total)                   0 d,  0 h,  0 min,  0.130 sec
 SCC setup                      ...        0 min,  0.002 sec (  1.366%)
 Dispersion                     ...        0 min,  0.000 sec (  0.257%)
 classical contributions        ...        0 min,  0.000 sec (  0.084%)
 integral evaluation            ...        0 min,  0.035 sec ( 26.603%)
 iterations                     ...        0 min,  0.012 sec (  9.055%)
 molecular gradient             ...        0 min,  0.081 sec ( 62.013%)
 printout                       ...        0 min,  0.001 sec (  0.583%)

         :::::::::::::::::::::::::::::::::::::::::::::::::::::
         ::                     SUMMARY                     ::
         :::::::::::::::::::::::::::::::::::::::::::::::::::::
         :: total energy             -83.628982101349 Eh    ::
         :: total w/o Gsasa/hb       -83.607795491057 Eh    ::
         :: gradient norm              0.000716015423 Eh/a0 ::
         :: HOMO-LUMO gap              0.124954226173 eV    ::
         ::.................................................::
         :: SCC energy               -84.360944171111 Eh    ::
         :: -> electrostatic           0.694202836203 Eh    ::
         :: -> Gsolv                  -0.276454701883 Eh    ::
         ::    -> Gelec               -0.255268091591 Eh    ::
         ::    -> Gsasa               -0.024519879088 Eh    ::
         ::    -> Ghb                 -0.004291010208 Eh    ::
         ::    -> Gshift               0.007624279005 Eh    ::
         :: repulsion energy           0.757622858519 Eh    ::
         :: dispersion energy         -0.025660788758 Eh    ::
         :: halogen bond corr.         0.000000000000 Eh    ::
         :: add. restraining           0.000000000000 Eh    ::
         :: total charge              -2.000000000000 e     ::
         :::::::::::::::::::::::::::::::::::::::::::::::::::::

           -------------------------------------------------
          |                Property Printout                |
           -------------------------------------------------

    * Orbital Energies and Occupations

         #    Occupation            Energy/Eh            Energy/eV
      -------------------------------------------------------------
         1        2.0000           -0.8403798             -22.8679
       ...           ...                  ...                  ...
        56        2.0000           -0.4350548             -11.8384
        57        2.0000           -0.4348738             -11.8335
        58        2.0000           -0.4275436             -11.6341
        59        2.0000           -0.4235029             -11.5241
        60        2.0000           -0.4217772             -11.4771
        61        2.0000           -0.4150823             -11.2950
        62        2.0000           -0.4109070             -11.1813
        63        2.0000           -0.3918068             -10.6616
        64        2.0000           -0.3813776             -10.3778
        65        2.0000           -0.3598366              -9.7917
        66        2.0000           -0.3525970              -9.5947
        67        2.0000           -0.3270391              -8.8992
        68        1.8362           -0.2892223              -7.8701 (HOMO)
        69        0.1638           -0.2846303              -7.7452 (LUMO)
        70                         -0.2377778              -6.4703
        71                         -0.2018933              -5.4938
        72                         -0.1691660              -4.6032
        73                         -0.1349590              -3.6724
        74                         -0.1342205              -3.6523
        75                         -0.1133743              -3.0851
        76                         -0.1013196              -2.7570
        77                         -0.0917183              -2.4958
        78                         -0.0882906              -2.4025
        79                         -0.0732852              -1.9942
       ...                                ...                  ...
       134                          0.7214831              19.6326
      -------------------------------------------------------------
                  HL-Gap            0.0045920 Eh            0.1250 eV
             Fermi-level           -0.2869263 Eh           -7.8077 eV

  Mulliken/CM5 charges         n(s)   n(p)   n(d)
     1C     0.18515  0.06681   0.962  2.853  0.000
     2O    -0.49019 -0.58431   1.706  4.784  0.000
     3C     0.47422  0.53191   0.978  2.548  0.000
     4O    -0.70154 -0.74367   1.747  4.954  0.000
     5C    -0.04946  0.02304   1.030  3.019  0.000
     6N    -0.43572 -0.61728   1.548  3.888  0.000
     7C     0.23466  0.38802   1.002  2.763  0.000
     8C     0.15190  0.19172   1.068  2.780  0.000
     9C    -0.08510 -0.22250   1.009  3.076  0.000
    10C    -0.08987 -0.22776   1.011  3.078  0.000
    11N    -0.33174 -0.67949   1.433  3.898  0.000
    12C     0.44049  0.54888   0.973  2.587  0.000
    13O    -0.62404 -0.66753   1.734  4.890  0.000
    14C     0.31313  0.43561   1.013  2.674  0.000
    15N    -0.26303 -0.36435   1.572  3.691  0.000
    16N    -0.28812 -0.39594   1.568  3.720  0.000
    17C     0.37932  0.48804   1.001  2.619  0.000
    18C    -0.10997 -0.24742   1.010  3.100  0.000
    19O    -0.37201 -0.42743   1.700  4.672  0.000
    20N    -0.55514 -0.72963   1.545  4.010  0.000
    21C     0.43722  0.54881   1.004  2.559  0.000
    22O    -0.69536 -0.73141   1.753  4.943  0.000
    23C     0.20416  0.22041   1.053  2.743  0.000
    24C    -0.09859 -0.23962   1.015  3.083  0.000
    25O    -0.61658 -0.81205   1.712  4.905  0.000
    26H     0.01400  0.07521   0.986  0.000  0.000
    27H     0.01441  0.07590   0.986  0.000  0.000
    28H     0.01348  0.07352   0.987  0.000  0.000
    29H     0.02461  0.08435   0.975  0.000  0.000
    30H     0.02055  0.08095   0.979  0.000  0.000
    31H     0.01972  0.07602   0.980  0.000  0.000
    32H     0.01962  0.07468   0.980  0.000  0.000
    33H     0.02628  0.08580   0.974  0.000  0.000
    34H     0.02432  0.08498   0.976  0.000  0.000
    35H     0.23924  0.44507   0.761  0.000  0.000
    36H     0.05993  0.11592   0.940  0.000  0.000
    37H     0.07021  0.12465   0.930  0.000  0.000
    38H     0.06958  0.12397   0.930  0.000  0.000
    39H     0.00382  0.05879   0.996  0.000  0.000
    40H     0.01813  0.07621   0.982  0.000  0.000
    41H     0.01575  0.07531   0.984  0.000  0.000
    42H     0.33258  0.51582   0.667  0.000  0.000

Wiberg/Mayer (AO) data.
largest (>0.10) Wiberg bond orders for each atom

 ---------------------------------------------------------------------------
     #   Z sym  total        # sym  WBO       # sym  WBO       # sym  WBO
 ---------------------------------------------------------------------------
     1   6 C    3.919 --    28 H    0.987    26 H    0.981    27 H    0.981
                             2 O    0.950
     2   8 O    2.072 --     1 C    0.950     3 C    0.905
     3   6 C    3.838 --     4 O    1.444     5 C    1.358     2 O    0.905
     4   8 O    1.731 --     3 C    1.444     5 C    0.114
     5   6 C    3.795 --     3 C    1.358     6 N    1.163    23 C    0.980
                             4 O    0.114
     6   7 N    3.000 --     7 C    1.552     5 C    1.163
     7   6 C    3.917 --     6 N    1.552    20 N    1.191     8 C    0.961
     8   6 C    3.915 --     9 C    0.997    10 C    0.992     7 C    0.961
                            11 N    0.895
     9   6 C    3.994 --     8 C    0.997    31 H    0.986    29 H    0.985
                            30 H    0.984
    10   6 C    3.993 --     8 C    0.992    32 H    0.987    33 H    0.985
                            34 H    0.983
    11   7 N    3.338 --    12 C    1.277    35 H    0.904     8 C    0.895
                            13 O    0.173
    12   6 C    3.879 --    13 O    1.513    11 N    1.277    14 C    1.016
    13   8 O    1.814 --    12 C    1.513    11 N    0.173
    14   6 C    3.797 --    15 N    1.564    19 O    1.025    12 C    1.016
    15   7 N    2.911 --    14 C    1.564    16 N    1.189
    16   7 N    2.980 --    17 C    1.622    15 N    1.189
    17   6 C    3.853 --    16 N    1.622    19 O    1.064    18 C    1.028
    18   6 C    3.990 --    17 C    1.028    36 H    0.984    37 H    0.967
                            38 H    0.966
    19   8 O    2.272 --    17 C    1.064    14 C    1.025
    20   7 N    2.911 --    21 C    1.374     7 C    1.191    22 O    0.131
    21   6 C    3.897 --    22 O    1.486    20 N    1.374    23 C    0.907
    22   8 O    1.754 --    21 C    1.486    20 N    0.131
    23   6 C    3.895 --     5 C    0.980    24 C    0.971    25 O    0.915
                            21 C    0.907
    24   6 C    3.989 --    39 H    0.988    40 H    0.986    41 H    0.984
                            23 C    0.971
    25   8 O    1.870 --    23 C    0.915    42 H    0.870
    26   1 H    1.022 --     1 C    0.981
    27   1 H    1.021 --     1 C    0.981
    28   1 H    1.019 --     1 C    0.987
    29   1 H    1.017 --     9 C    0.985
    30   1 H    1.029 --     9 C    0.984
    31   1 H    1.015 --     9 C    0.986
    32   1 H    1.011 --    10 C    0.987
    33   1 H    1.014 --    10 C    0.985
    34   1 H    1.029 --    10 C    0.983
    35   1 H    0.960 --    11 N    0.904
    36   1 H    1.001 --    18 C    0.984
    37   1 H    0.998 --    18 C    0.967
    38   1 H    0.999 --    18 C    0.966
    39   1 H    1.015 --    24 C    0.988
    40   1 H    1.021 --    24 C    0.986
    41   1 H    1.021 --    24 C    0.984
    42   1 H    0.915 --    25 O    0.870
 ---------------------------------------------------------------------------

Topologies differ in total number of bonds
Writing topology from bond orders to xtbtopo.mol

 dipole moment from electron density (au)
     X       Y       Z   
   1.1242   3.9532  -0.7547  total (Debye):   10.621

           -------------------------------------------------
          |                Geometry Summary                 |
           -------------------------------------------------

      molecular mass/u    :      351.3152409
   center of mass at/Å    :        0.2997284      -0.0785384      -0.1000706
  moments of inertia/u·Å² :        0.1546669E+04   0.4358109E+04   0.4821378E+04
rotational constants/cm⁻¹ :        0.1089931E-01   0.3868107E-02   0.3496434E-02

 * 32 selected distances

     #   Z          #   Z                                           value/Å
     1   6 C        2   8 O                                       1.4117851
     3   6 C        5   6 C                                       1.3964312
     6   7 N        7   6 C                                       1.2973127
     8   6 C        9   6 C                                       1.5324172
     8   6 C       10   6 C                                       1.5343537 (max)
    11   7 N       12   6 C                                       1.3433808
    12   6 C       13   8 O                                       1.2343194
    14   6 C       15   7 N                                       1.3086323
    16   7 N       17   6 C                                       1.2951782
    17   6 C       18   6 C                                       1.4806884
    14   6 C       19   8 O                                       1.3606176
    17   6 C       19   8 O                                       1.3468847
     7   6 C       20   7 N                                       1.3662773
    20   7 N       21   6 C                                       1.3281627
    23   6 C       25   8 O                                       1.4417393
     1   6 C       26   1 H                                       1.0977643
     1   6 C       27   1 H                                       1.0976792
     1   6 C       28   1 H                                       1.0910097
     9   6 C       29   1 H                                       1.0887950
     9   6 C       30   1 H                                       1.0905051
     9   6 C       31   1 H                                       1.0899730
    10   6 C       32   1 H                                       1.0895376
    10   6 C       33   1 H                                       1.0889297
    10   6 C       34   1 H                                       1.0906685
    11   7 N       35   1 H                                       1.0095723
    18   6 C       36   1 H                                       1.0867674
    18   6 C       37   1 H                                       1.0897658
    18   6 C       38   1 H                                       1.0897866
    24   6 C       39   1 H                                       1.0901538
    24   6 C       40   1 H                                       1.0910509
    24   6 C       41   1 H                                       1.0883557
    25   8 O       42   1 H                                       0.9671566 (min)

 * 6 distinct bonds (by element types)

   Z      Z             #   av. dist./Å        max./Å        min./Å
   1 H    6 C          15     1.0907161     1.0977643     1.0867674
   6 C    6 C           4     1.4859726     1.5343537     1.3964312
   1 H    7 N           1     1.0095723     1.0095723     1.0095723
   6 C    7 N           6     1.3231573     1.3662773     1.2951782
   1 H    8 O           1     0.9671566     0.9671566     0.9671566
   6 C    8 O           5     1.3590692     1.4417393     1.2343194


optimized geometry written to: xtbopt.xyz


           -------------------------------------------------
          | TOTAL ENERGY              -83.628982101349 Eh   |
          | GRADIENT NORM               0.000716015423 Eh/α |
          | HOMO-LUMO GAP               0.124954226173 eV   |
           -------------------------------------------------

------------------------------------------------------------------------
 * finished run on 2023/06/20 at 18:04:18.309     
------------------------------------------------------------------------
 total:
 * wall-time:     0 d,  0 h,  0 min,  4.378 sec
 *  cpu-time:     0 d,  0 h,  0 min,  4.198 sec
 * ratio c/w:     0.959 speedup
 SCF:
 * wall-time:     0 d,  0 h,  0 min,  0.155 sec
 *  cpu-time:     0 d,  0 h,  0 min,  0.150 sec
 * ratio c/w:     0.968 speedup
 ANC optimizer:
 * wall-time:     0 d,  0 h,  0 min,  4.142 sec
 *  cpu-time:     0 d,  0 h,  0 min,  4.001 sec
 * ratio c/w:     0.966 speedup

