      -----------------------------------------------------------      
     |                   =====================                   |     
     |                           x T B                           |     
     |                   =====================                   |     
     |                         S. Grimme                         |     
     |          Mulliken Center for Theoretical Chemistry        |     
     |                    University of Bonn                     |     
      -----------------------------------------------------------      

   * xtb version 6.5.1 (579679a) compiled by 'ehlert@majestix' on 2022-07-11

   xtb is free software: you can redistribute it and/or modify it under
   the terms of the GNU Lesser General Public License as published by
   the Free Software Foundation, either version 3 of the License, or
   (at your option) any later version.
   
   xtb is distributed in the hope that it will be useful,
   but WITHOUT ANY WARRANTY; without even the implied warranty of
   MERCHANTABILITY or FITNESS FOR A PARTICULAR PURPOSE.  See the
   GNU Lesser General Public License for more details.
   
   Cite this work as:
   * C. Bannwarth, E. Caldeweyher, S. Ehlert, A. Hansen, P. Pracht,
     J. Seibert, S. Spicher, S. Grimme, WIREs Comput. Mol. Sci., 2020, 11,
     e01493. DOI: 10.1002/wcms.1493
   
   for GFN2-xTB:
   * C. Bannwarth, S. Ehlert and S. Grimme., J. Chem. Theory Comput., 2019,
     15, 1652-1671. DOI: 10.1021/acs.jctc.8b01176
   for GFN1-xTB:
   * S. Grimme, C. Bannwarth, P. Shushkov, J. Chem. Theory Comput., 2017,
     13, 1989-2009. DOI: 10.1021/acs.jctc.7b00118
   for GFN0-xTB:
   * P. Pracht, E. Caldeweyher, S. Ehlert, S. Grimme, ChemRxiv, 2019, preprint.
     DOI: 10.26434/chemrxiv.8326202.v1
   for GFN-FF:
   * S. Spicher and S. Grimme, Angew. Chem. Int. Ed., 2020, 59, 15665-15673.
     DOI: 10.1002/anie.202004239
   
   for ALPB and GBSA implicit solvation:
   * S. Ehlert, M. Stahn, S. Spicher, S. Grimme, J. Chem. Theory Comput.,
     2021, 17, 4250-4261. DOI: 10.1021/acs.jctc.1c00471
   
   for DFT-D4:
   * E. Caldeweyher, C. Bannwarth and S. Grimme, J. Chem. Phys., 2017,
     147, 034112. DOI: 10.1063/1.4993215
   * E. Caldeweyher, S. Ehlert, A. Hansen, H. Neugebauer, S. Spicher,
     C. Bannwarth and S. Grimme, J. Chem. Phys., 2019, 150, 154122.
     DOI: 10.1063/1.5090222
   * E. Caldeweyher, J.-M. Mewes, S. Ehlert and S. Grimme, Phys. Chem. Chem. Phys.
     2020, 22, 8499-8512. DOI: 10.1039/D0CP00502A
   
   for sTDA-xTB:
   * S. Grimme and C. Bannwarth, J. Chem. Phys., 2016, 145, 054103.
     DOI: 10.1063/1.4959605
   
   in the mass-spec context:
   * V. Asgeirsson, C. Bauer and S. Grimme, Chem. Sci., 2017, 8, 4879.
     DOI: 10.1039/c7sc00601b
   * J. Koopman and S. Grimme, ACS Omega 2019, 4, 12, 15120-15133.
     DOI: 10.1021/acsomega.9b02011
   
   for metadynamics refer to:
   * S. Grimme, J. Chem. Theory Comput., 2019, 155, 2847-2862
     DOI: 10.1021/acs.jctc.9b00143
   
   for SPH calculations refer to:
   * S. Spicher and S. Grimme, J. Chem. Theory Comput., 2021, 17, 1701-1714
     DOI: 10.1021/acs.jctc.0c01306
   
   with help from (in alphabetical order)
   P. Atkinson, C. Bannwarth, F. Bohle, G. Brandenburg, E. Caldeweyher
   M. Checinski, S. Dohm, S. Ehlert, S. Ehrlich, I. Gerasimov, C. Hölzer
   A. Katbashev, J. Koopman, C. Lavigne, S. Lehtola, F. März, M. Müller,
   F. Musil, H. Neugebauer, J. Pisarek, C. Plett, P. Pracht, F. Pultar,
   J. Seibert, P. Shushkov, S. Spicher, M. Stahn, M. Steiner, T. Strunk,
   J. Stückrath, T. Rose, and J. Unsleber
   
 * started run on 2023/06/20 at 14:59:06.992     

           -------------------------------------------------
          |                Calculation Setup                |
           -------------------------------------------------

          program call               : /lustre/hpc/kemi/ree/PhD/git/ReactivityQM/dep/xtb-6.5.1/bin/xtb --gfn 1 /lustre/hpc/kemi/ree/PhD/git/ReactivityQM/calculations/R01/reac02prodE04/conf17/R01_reac02prodE04_conf17_gfn1.xyz --opt --vfukui --chrg -1 --uhf 0 --alpb DMSO
          hostname                   : node312
          coordinate file            : /lustre/hpc/kemi/ree/PhD/git/ReactivityQM/calculations/R01/reac02prodE04/conf17/R01_reac02prodE04_conf17_gfn1.xyz
          omp threads                :                     1

   ID    Z sym.   atoms
    1    6 C      1, 3, 5, 6, 8, 11-14, 17
    2    8 O      2, 4, 7, 9
    3    7 N      10, 15, 16
    4    1 H      18-33

           -------------------------------------------------
          |                 G F N 1 - x T B                 |
           -------------------------------------------------

        Reference                      10.1021/acs.jctc.7b00118
      * Hamiltonian:
        H0-scaling (s, p, d)           1.850000    2.250000    2.000000
        zeta-weighting                 0.000000
      * Dispersion:
        s8                             2.400000
        a1                             0.630000
        a2                             5.000000
        s9                             0.000000
      * Repulsion:
        kExp                           1.500000
        rExp                           1.000000
      * Coulomb:
        alpha                          2.000000
        third order                    atomic
        anisotropic                    false
      * Halogen bond correction:
        rad-scale                      1.300000
        damping                        0.440000

      * Solvation model:               ALPB
        Solvent                        DMSO
        Parameter file                 internal GFN1-xTB/ALPB
        Dielectric constant                4.6680E+01
        Reference state                gsolv [1 M gas/solution]
        Free energy shift                  7.6243E-03 Eh       4.7843E+00 kcal/mol
        Temperature                        2.9815E+02 K
        Density                            1.1000E+00 kg/L
        Solvent mass                       7.8130E+01 g/mol
        Interaction kernel             P16
        Born radius scaling (c1)           1.7672E+00
        Born radii integrator          GBOBC
        Born offset                        0.0000E+00 a0       0.0000E+00 AA
        H-bond correction              true
        Ion screening                  false
        Surface tension                    1.0000E-05 Eh       1.5569E+01 dyn/cm
        Grid points                               230 per atom

          ...................................................
          :                      SETUP                      :
          :.................................................:
          :  # basis functions                 100          :
          :  # atomic orbitals                 100          :
          :  # shells                           66          :
          :  # electrons                        96          :
          :  # halogen bonds                     0          :
          :  max. iterations                   250          :
          :  Hamiltonian                  GFN1-xTB          :
          :  restarted?                      false          :
          :  GBSA solvation                   true          :
          :  PC potential                    false          :
          :  electronic temp.          300.0000000     K    :
          :  accuracy                    1.0000000          :
          :  -> integral cutoff          0.2500000E+02      :
          :  -> integral neglect         0.1000000E-07      :
          :  -> SCF convergence          0.1000000E-05 Eh   :
          :  -> wf. convergence          0.2000000E-04 e    :
          :  Broyden damping             0.4000000          :
          ...................................................

 iter      E             dE          RMSdq      gap      omega  full diag
   1    -58.8235061 -0.588235E+02  0.845E+00    1.34       0.0  T
   2    -58.8018773  0.216288E-01  0.538E+00    0.42       1.0  T
   3    -58.5391024  0.262775E+00  0.356E+00    2.26       1.0  T
   4    -58.9009744 -0.361872E+00  0.170E+00    1.44       1.0  T
   5    -58.9629894 -0.620150E-01  0.985E-01    0.79       1.0  T
   6    -58.8684930  0.944964E-01  0.151E+00    0.17       1.0  T
   7    -58.9816654 -0.113172E+00  0.786E-01    0.55       1.0  T
   8    -58.9874830 -0.581763E-02  0.688E-01    0.42       1.0  T
   9    -58.9967440 -0.926093E-02  0.533E-01    0.25       1.0  T
  10    -58.9916938  0.505017E-02  0.620E-01    0.35       1.0  T
  11    -58.8906262  0.101068E+00  0.141E+00    0.10       1.0  T
  12    -59.0098370 -0.119211E+00  0.262E-01    0.07       1.0  T
  13    -59.0055002  0.433687E-02  0.363E-01    0.15       1.0  T
  14    -59.0135443 -0.804417E-02  0.884E-02    0.10       1.0  T
  15    -59.0135862 -0.418764E-04  0.819E-02    0.08       1.0  T
  16    -59.0139765 -0.390343E-03  0.226E-02    0.09       1.0  T
  17    -59.0140000 -0.234868E-04  0.114E-02    0.09       1.5  T
  18    -59.0139829  0.171648E-04  0.198E-02    0.08       1.0  T
  19    -59.0140079 -0.249998E-04  0.318E-03    0.08       5.5  T
  20    -59.0140085 -0.635732E-06  0.553E-04    0.08      31.5  T
  21    -59.0140084  0.823522E-07  0.124E-03    0.08      14.0  T
  22    -59.0140085 -0.973803E-07  0.244E-04    0.08      71.5  T
  23    -59.0140085 -0.384757E-08  0.285E-05    0.08     611.9  T
  24    -59.0140085 -0.405009E-10  0.132E-05    0.08    1314.4  T

   *** convergence criteria satisfied after 24 iterations ***

         #    Occupation            Energy/Eh            Energy/eV
      -------------------------------------------------------------
         1        2.0000           -0.7697624             -20.9463
       ...           ...                  ...                  ...
        42        2.0000           -0.4350784             -11.8391
        43        2.0000           -0.4128105             -11.2331
        44        2.0000           -0.4031757             -10.9710
        45        2.0000           -0.3976764             -10.8213
        46        2.0000           -0.3705115             -10.0821
        47        2.0000           -0.3540334              -9.6337
        48        1.6756           -0.2541133              -6.9148 (HOMO)
        49        0.3244           -0.2509935              -6.8299 (LUMO)
        50                         -0.1590111              -4.3269
        51                         -0.1241925              -3.3794
        52                         -0.1164784              -3.1695
        53                         -0.1074704              -2.9244
       ...                                ...                  ...
       100                          0.7258534              19.7515
      -------------------------------------------------------------
                  HL-Gap            0.0031198 Eh            0.0849 eV
             Fermi-level           -0.2525534 Eh           -6.8723 eV

 SCC (total)                   0 d,  0 h,  0 min,  0.124 sec
 SCC setup                      ...        0 min,  0.001 sec (  1.207%)
 Dispersion                     ...        0 min,  0.000 sec (  0.213%)
 classical contributions        ...        0 min,  0.000 sec (  0.070%)
 integral evaluation            ...        0 min,  0.024 sec ( 19.115%)
 iterations                     ...        0 min,  0.045 sec ( 35.995%)
 molecular gradient             ...        0 min,  0.053 sec ( 42.981%)
 printout                       ...        0 min,  0.000 sec (  0.390%)

         :::::::::::::::::::::::::::::::::::::::::::::::::::::
         ::                     SUMMARY                     ::
         :::::::::::::::::::::::::::::::::::::::::::::::::::::
         :: total energy             -58.480295597786 Eh    ::
         :: total w/o Gsasa/hb       -58.462550446165 Eh    ::
         :: gradient norm              0.147956024171 Eh/a0 ::
         :: HOMO-LUMO gap              0.084894424672 eV    ::
         ::.................................................::
         :: SCC energy               -59.014008518435 Eh    ::
         :: -> electrostatic           0.380561418878 Eh    ::
         :: -> Gsolv                  -0.118042163369 Eh    ::
         ::    -> Gelec               -0.100297011749 Eh    ::
         ::    -> Gsasa               -0.017808148068 Eh    ::
         ::    -> Ghb                 -0.007561282557 Eh    ::
         ::    -> Gshift               0.007624279005 Eh    ::
         :: repulsion energy           0.553339248243 Eh    ::
         :: dispersion energy         -0.019626327594 Eh    ::
         :: halogen bond corr.         0.000000000000 Eh    ::
         :: add. restraining           0.000000000000 Eh    ::
         :: total charge              -1.000000000000 e     ::
         :::::::::::::::::::::::::::::::::::::::::::::::::::::

      ----------------------------------------------------------- 
     |                   =====================                   |
     |                        A N C O P T                        |
     |                   =====================                   |
     |               Approximate Normal Coordinate               |
     |                Rational Function Optimizer                |
      ----------------------------------------------------------- 

          ...................................................
          :                      SETUP                      :
          :.................................................:
          :   optimization level            normal          :
          :   max. optcycles                   200          :
          :   ANC micro-cycles                  20          :
          :   degrees of freedom                93          :
          :.................................................:
          :   RF solver                   davidson          :
          :   write xtbopt.log                true          :
          :   linear?                        false          :
          :   energy convergence         0.5000000E-05 Eh   :
          :   grad. convergence          0.1000000E-02 Eh/α :
          :   maximium RF displ.         1.0000000          :
          :   Hlow (freq-cutoff)         0.1000000E-01      :
          :   Hmax (freq-cutoff)         5.0000000          :
          :   S6 in model hess.         20.0000000          :
          ...................................................

generating ANC from model Hessian ...
Using Lindh-Hessian (1995)
 Shifting diagonal of input Hessian by   9.493993117594765E-003
 Lowest  eigenvalues of input Hessian
    0.000000    0.000000    0.000000    0.000000    0.000000    0.000000
    0.010000    0.010363    0.011319    0.011917    0.013745    0.014428
    0.014801    0.016300    0.018362    0.018570    0.019037    0.019664
 Highest eigenvalues
    1.726285    1.869830    1.929799    2.022871    2.202536    2.324904
 

........................................................................
.............................. CYCLE    1 ..............................
........................................................................
   1    -59.0140085 -0.590140E+02  0.610E-06    0.08       0.0  T
   2    -59.0140085  0.257813E-09  0.624E-05    0.08     278.8  T
   3    -59.0140085 -0.260371E-09  0.116E-06    0.08   15004.7  T
     SCC iter.                  ...        0 min,  0.006 sec
     gradient                   ...        0 min,  0.053 sec
 * total energy  :   -58.4802956 Eh     change       -0.1167422E-10 Eh
   gradient norm :     0.1479577 Eh/α   predicted     0.0000000E+00 (-100.00%)
   displ. norm   :     0.2920802 α      lambda       -0.1718188E-01
   maximum displ.:     0.1045776 α      in ANC's #6, #16, #15, ...

........................................................................
.............................. CYCLE    2 ..............................
........................................................................
   1    -59.0087789 -0.590088E+02  0.419E-01    0.46       0.0  T
   2    -58.7854783  0.223301E+00  0.192E+00    0.30       1.0  T
   3    -59.0141502 -0.228672E+00  0.305E-01    0.32       1.0  T
   4    -59.0157957 -0.164544E-02  0.250E-01    0.27       1.0  T
   5    -59.0171921 -0.139643E-02  0.198E-01    0.23       1.0  T
   6    -59.0177202 -0.528156E-03  0.164E-01    0.11       1.0  T
   7    -59.0193211 -0.160082E-02  0.576E-02    0.16       1.0  T
   8    -59.0192986  0.224183E-04  0.614E-02    0.16       1.0  T
   9    -59.0195093 -0.210702E-03  0.191E-02    0.15       1.0  T
  10    -59.0195302 -0.208958E-04  0.563E-03    0.15       3.1  T
  11    -59.0195322 -0.198783E-05  0.132E-03    0.14      13.2  T
  12    -59.0195323 -0.643640E-07  0.485E-04    0.14      35.9  T
  13    -59.0195323 -0.151546E-07  0.135E-04    0.14     128.6  T
  14    -59.0195323 -0.105234E-08  0.242E-05    0.14     720.0  T
     SCC iter.                  ...        0 min,  0.026 sec
     gradient                   ...        0 min,  0.053 sec
 * total energy  :   -58.4937078 Eh     change       -0.1341215E-01 Eh
   gradient norm :     0.0908674 Eh/α   predicted    -0.9333439E-02 ( -30.41%)
   displ. norm   :     0.3780173 α      lambda       -0.1538409E-01
   maximum displ.:     0.1406971 α      in ANC's #6, #24, #15, ...

........................................................................
.............................. CYCLE    3 ..............................
........................................................................
   1    -59.0301550 -0.590302E+02  0.296E-01    0.85       0.0  T
   2    -59.0302688 -0.113773E-03  0.304E-01    0.41       1.0  T
   3    -59.0347917 -0.452289E-02  0.824E-02    0.55       1.0  T
   4    -59.0350639 -0.272286E-03  0.255E-02    0.51       1.0  T
   5    -59.0350828 -0.188881E-04  0.894E-03    0.49       1.9  T
   6    -59.0350848 -0.199256E-05  0.516E-03    0.49       3.4  T
   7    -59.0350855 -0.714074E-06  0.153E-03    0.49      11.3  T
   8    -59.0350856 -0.846521E-07  0.546E-04    0.49      31.9  T
   9    -59.0350856 -0.112039E-07  0.155E-04    0.49     112.4  T
  10    -59.0350856 -0.872248E-09  0.549E-05    0.49     316.9  T
     SCC iter.                  ...        0 min,  0.019 sec
     gradient                   ...        0 min,  0.055 sec
 * total energy  :   -58.5015870 Eh     change       -0.7879265E-02 Eh
   gradient norm :     0.0499172 Eh/α   predicted    -0.8791220E-02 (  11.57%)
   displ. norm   :     0.2089862 α      lambda       -0.2441371E-02
   maximum displ.:     0.0953643 α      in ANC's #6, #15, #12, ...

........................................................................
.............................. CYCLE    4 ..............................
........................................................................
   1    -59.0346071 -0.590346E+02  0.952E-02    0.53       0.0  T
   2    -59.0345052  0.101949E-03  0.106E-01    0.48       1.0  T
   3    -59.0350078 -0.502597E-03  0.846E-03    0.51       2.1  T
   4    -59.0350109 -0.311092E-05  0.393E-03    0.51       4.4  T
   5    -59.0350110 -0.111571E-06  0.194E-03    0.51       9.0  T
   6    -59.0350110 -0.754751E-08  0.414E-04    0.51      42.0  T
   7    -59.0350110 -0.310497E-08  0.104E-04    0.51     167.5  T
   8    -59.0350110 -0.249734E-09  0.378E-05    0.51     460.7  T
     SCC iter.                  ...        0 min,  0.018 sec
     gradient                   ...        0 min,  0.054 sec
 * total energy  :   -58.5034735 Eh     change       -0.1886437E-02 Eh
   gradient norm :     0.0300578 Eh/α   predicted    -0.1274163E-02 ( -32.46%)
   displ. norm   :     0.3508687 α      lambda       -0.2697553E-02
   maximum displ.:     0.1442623 α      in ANC's #6, #13, #15, ...

........................................................................
.............................. CYCLE    5 ..............................
........................................................................
   1    -59.0367539 -0.590368E+02  0.176E-01    0.65       0.0  T
   2    -59.0371990 -0.445119E-03  0.141E-01    0.56       1.0  T
   3    -59.0380069 -0.807832E-03  0.121E-02    0.61       1.4  T
   4    -59.0380110 -0.415318E-05  0.657E-03    0.60       2.6  T
   5    -59.0380111 -0.142935E-06  0.317E-03    0.60       5.5  T
   6    -59.0380112 -0.376156E-08  0.741E-04    0.60      23.5  T
   7    -59.0380112 -0.103962E-07  0.190E-04    0.60      91.6  T
   8    -59.0380112 -0.817820E-09  0.802E-05    0.60     216.9  T
     SCC iter.                  ...        0 min,  0.016 sec
     gradient                   ...        0 min,  0.056 sec
 * total energy  :   -58.5052581 Eh     change       -0.1784642E-02 Eh
   gradient norm :     0.0157810 Eh/α   predicted    -0.1514827E-02 ( -15.12%)
   displ. norm   :     0.2383721 α      lambda       -0.9360409E-03
   maximum displ.:     0.0846585 α      in ANC's #16, #5, #13, ...

........................................................................
.............................. CYCLE    6 ..............................
........................................................................
   1    -59.0401736 -0.590402E+02  0.100E-01    0.65       0.0  T
   2    -59.0403723 -0.198726E-03  0.677E-02    0.62       1.0  T
   3    -59.0405485 -0.176168E-03  0.709E-03    0.65       2.5  T
   4    -59.0405490 -0.561756E-06  0.374E-03    0.64       4.7  T
   5    -59.0405490 -0.136105E-07  0.169E-03    0.64      10.3  T
   6    -59.0405491 -0.115744E-07  0.212E-04    0.64      82.2  T
   7    -59.0405491 -0.931465E-09  0.807E-05    0.64     215.6  T
   8    -59.0405491 -0.448281E-10  0.309E-05    0.64     563.3  T
     SCC iter.                  ...        0 min,  0.016 sec
     gradient                   ...        0 min,  0.056 sec
 * total energy  :   -58.5059305 Eh     change       -0.6723636E-03 Eh
   gradient norm :     0.0132643 Eh/α   predicted    -0.4946276E-03 ( -26.43%)
   displ. norm   :     0.2539459 α      lambda       -0.7324145E-03
   maximum displ.:     0.0962826 α      in ANC's #16, #5, #13, ...

........................................................................
.............................. CYCLE    7 ..............................
........................................................................
   1    -59.0432160 -0.590432E+02  0.748E-02    0.68       0.0  T
   2    -59.0433457 -0.129761E-03  0.422E-02    0.68       1.0  T
   3    -59.0434141 -0.683492E-04  0.702E-03    0.69       2.5  T
   4    -59.0434143 -0.259725E-06  0.305E-03    0.68       5.7  T
   5    -59.0434144 -0.227458E-07  0.148E-03    0.69      11.8  T
   6    -59.0434144 -0.149645E-07  0.209E-04    0.69      83.4  T
   7    -59.0434144 -0.129860E-08  0.846E-05    0.69     205.7  T
   8    -59.0434144 -0.600338E-10  0.197E-05    0.69     882.5  T
     SCC iter.                  ...        0 min,  0.016 sec
     gradient                   ...        0 min,  0.056 sec
 * total energy  :   -58.5064744 Eh     change       -0.5439307E-03 Eh
   gradient norm :     0.0110190 Eh/α   predicted    -0.3898426E-03 ( -28.33%)
   displ. norm   :     0.2933256 α      lambda       -0.6162776E-03
   maximum displ.:     0.1069026 α      in ANC's #5, #1, #16, ...

........................................................................
.............................. CYCLE    8 ..............................
........................................................................
   1    -59.0448901 -0.590449E+02  0.630E-02    0.72       0.0  T
   2    -59.0449928 -0.102646E-03  0.308E-02    0.73       1.0  T
   3    -59.0450289 -0.360751E-04  0.692E-03    0.73       2.5  T
   4    -59.0450289 -0.847448E-07  0.225E-03    0.73       7.7  T
   5    -59.0450290 -0.378296E-07  0.126E-03    0.73      13.8  T
   6    -59.0450290 -0.171402E-07  0.148E-04    0.73     117.8  T
   7    -59.0450290 -0.270163E-09  0.776E-05    0.73     224.4  T
     SCC iter.                  ...        0 min,  0.014 sec
     gradient                   ...        0 min,  0.056 sec
 * total energy  :   -58.5069282 Eh     change       -0.4537653E-03 Eh
   gradient norm :     0.0097810 Eh/α   predicted    -0.3346535E-03 ( -26.25%)
   displ. norm   :     0.2933691 α      lambda       -0.4839071E-03
   maximum displ.:     0.1055539 α      in ANC's #1, #5, #4, ...

........................................................................
.............................. CYCLE    9 ..............................
........................................................................
   1    -59.0466419 -0.590466E+02  0.578E-02    0.75       0.0  T
   2    -59.0467357 -0.937565E-04  0.273E-02    0.76       1.0  T
   3    -59.0467641 -0.284092E-04  0.616E-03    0.76       2.8  T
   4    -59.0467642 -0.457974E-07  0.176E-03    0.76       9.9  T
   5    -59.0467642 -0.692935E-08  0.745E-04    0.76      23.4  T
   6    -59.0467642 -0.762373E-08  0.125E-04    0.76     139.3  T
   7    -59.0467642 -0.142101E-09  0.531E-05    0.76     327.5  T
     SCC iter.                  ...        0 min,  0.014 sec
     gradient                   ...        0 min,  0.056 sec
 * total energy  :   -58.5072760 Eh     change       -0.3478634E-03 Eh
   gradient norm :     0.0099811 Eh/α   predicted    -0.2627782E-03 ( -24.46%)
   displ. norm   :     0.3081321 α      lambda       -0.4215941E-03
   maximum displ.:     0.1167328 α      in ANC's #5, #1, #3, ...

........................................................................
.............................. CYCLE   10 ..............................
........................................................................
   1    -59.0467284 -0.590467E+02  0.478E-02    0.81       0.0  T
   2    -59.0467870 -0.585447E-04  0.195E-02    0.81       1.0  T
   3    -59.0468004 -0.134006E-04  0.546E-03    0.82       3.2  T
   4    -59.0468004 -0.744562E-07  0.196E-03    0.82       8.9  T
   5    -59.0468005 -0.951129E-08  0.491E-04    0.82      35.5  T
   6    -59.0468005 -0.386552E-08  0.111E-04    0.82     157.4  T
   7    -59.0468005 -0.643041E-10  0.411E-05    0.82     423.3  T
     SCC iter.                  ...        0 min,  0.014 sec
     gradient                   ...        0 min,  0.056 sec
 * total energy  :   -58.5075707 Eh     change       -0.2946470E-03 Eh
   gradient norm :     0.0113586 Eh/α   predicted    -0.2308238E-03 ( -21.66%)
   displ. norm   :     0.3118987 α      lambda       -0.5444965E-03
   maximum displ.:     0.1343316 α      in ANC's #3, #1, #2, ...

........................................................................
.............................. CYCLE   11 ..............................
........................................................................
   1    -59.0512460 -0.590512E+02  0.446E-02    0.80       0.0  T
   2    -59.0512988 -0.527108E-04  0.192E-02    0.81       1.0  T
   3    -59.0513121 -0.133899E-04  0.644E-03    0.81       2.7  T
   4    -59.0513122 -0.953837E-07  0.210E-03    0.81       8.3  T
   5    -59.0513123 -0.116827E-07  0.391E-04    0.81      44.5  T
   6    -59.0513123 -0.291040E-08  0.170E-04    0.81     102.3  T
   7    -59.0513123 -0.486764E-09  0.380E-05    0.81     458.5  T
     SCC iter.                  ...        0 min,  0.013 sec
     gradient                   ...        0 min,  0.056 sec
 * total energy  :   -58.5078599 Eh     change       -0.2892084E-03 Eh
   gradient norm :     0.0105132 Eh/α   predicted    -0.2987352E-03 (   3.29%)
   displ. norm   :     0.2411036 α      lambda       -0.3716341E-03
   maximum displ.:     0.1002994 α      in ANC's #3, #2, #5, ...

........................................................................
.............................. CYCLE   12 ..............................
........................................................................
   1    -59.0485555 -0.590486E+02  0.363E-02    0.86       0.0  T
   2    -59.0485809 -0.254512E-04  0.152E-02    0.85       1.1  T
   3    -59.0485868 -0.584907E-05  0.592E-03    0.85       2.9  T
   4    -59.0485868 -0.821007E-07  0.117E-03    0.85      14.9  T
   5    -59.0485869 -0.150144E-07  0.464E-04    0.85      37.5  T
   6    -59.0485869 -0.184870E-08  0.119E-04    0.85     146.5  T
   7    -59.0485869 -0.186745E-09  0.430E-05    0.85     404.7  T
     SCC iter.                  ...        0 min,  0.013 sec
     gradient                   ...        0 min,  0.056 sec
 * total energy  :   -58.5080398 Eh     change       -0.1799491E-03 Eh
   gradient norm :     0.0111770 Eh/α   predicted    -0.1966449E-03 (   9.28%)
   displ. norm   :     0.1707486 α      lambda       -0.4055219E-03
   maximum displ.:     0.0767989 α      in ANC's #7, #13, #16, ...

........................................................................
.............................. CYCLE   13 ..............................
........................................................................
   1    -59.0506332 -0.590506E+02  0.329E-02    0.87       0.0  T
   2    -59.0506810 -0.478626E-04  0.193E-02    0.86       1.0  T
   3    -59.0506909 -0.985015E-05  0.672E-03    0.86       2.6  T
   4    -59.0506909 -0.557369E-07  0.291E-03    0.86       6.0  T
   5    -59.0506909 -0.116850E-07  0.410E-04    0.86      42.4  T
   6    -59.0506909 -0.438691E-08  0.114E-04    0.86     152.1  T
   7    -59.0506909 -0.207990E-09  0.460E-05    0.86     378.4  T
     SCC iter.                  ...        0 min,  0.013 sec
     gradient                   ...        0 min,  0.056 sec
 * total energy  :   -58.5081919 Eh     change       -0.1520785E-03 Eh
   gradient norm :     0.0099234 Eh/α   predicted    -0.2086752E-03 (  37.22%)
   displ. norm   :     0.1588855 α      lambda       -0.2101123E-03
   maximum displ.:     0.0720801 α      in ANC's #2, #3, #1, ...

........................................................................
.............................. CYCLE   14 ..............................
........................................................................
   1    -59.0501469 -0.590501E+02  0.434E-02    0.85       0.0  T
   2    -59.0502095 -0.625853E-04  0.212E-02    0.87       1.0  T
   3    -59.0502247 -0.152028E-04  0.439E-03    0.86       4.0  T
   4    -59.0502248 -0.245674E-07  0.196E-03    0.86       8.9  T
   5    -59.0502248 -0.140727E-08  0.303E-04    0.86      57.5  T
   6    -59.0502248 -0.179433E-08  0.105E-04    0.86     166.1  T
   7    -59.0502248 -0.124366E-09  0.378E-05    0.86     460.1  T
     SCC iter.                  ...        0 min,  0.013 sec
     gradient                   ...        0 min,  0.056 sec
 * total energy  :   -58.5083214 Eh     change       -0.1295150E-03 Eh
   gradient norm :     0.0065364 Eh/α   predicted    -0.1077103E-03 ( -16.84%)
   displ. norm   :     0.1728497 α      lambda       -0.1974001E-03
   maximum displ.:     0.0952182 α      in ANC's #2, #3, #1, ...

........................................................................
.............................. CYCLE   15 ..............................
........................................................................
   1    -59.0505580 -0.590506E+02  0.321E-02    0.83       0.0  T
   2    -59.0505997 -0.416377E-04  0.176E-02    0.85       1.0  T
   3    -59.0506099 -0.102143E-04  0.514E-03    0.85       3.4  T
   4    -59.0506099 -0.147679E-07  0.227E-03    0.85       7.7  T
   5    -59.0506099 -0.113195E-07  0.410E-04    0.85      42.5  T
   6    -59.0506099 -0.501238E-08  0.157E-04    0.85     111.0  T
   7    -59.0506099 -0.256712E-09  0.420E-05    0.85     414.3  T
     SCC iter.                  ...        0 min,  0.010 sec
     gradient                   ...        0 min,  0.030 sec
 * total energy  :   -58.5083891 Eh     change       -0.6771017E-04 Eh
   gradient norm :     0.0095213 Eh/α   predicted    -0.1016531E-03 (  50.13%)
   displ. norm   :     0.1398622 α      lambda       -0.1278050E-03
   maximum displ.:     0.0746952 α      in ANC's #2, #3, #1, ...

........................................................................
.............................. CYCLE   16 ..............................
........................................................................
   1    -59.0510158 -0.590510E+02  0.175E-02    0.87       0.0  T
   2    -59.0510227 -0.686051E-05  0.762E-03    0.87       2.3  T
   3    -59.0510240 -0.132123E-05  0.309E-03    0.87       5.6  T
   4    -59.0510240 -0.176630E-07  0.946E-04    0.87      18.4  T
   5    -59.0510240 -0.542053E-08  0.239E-04    0.87      72.7  T
   6    -59.0510240 -0.104961E-08  0.777E-05    0.87     224.2  T
   7    -59.0510240 -0.635012E-10  0.233E-05    0.87     747.4  T
     SCC iter.                  ...        0 min,  0.010 sec
     gradient                   ...        0 min,  0.030 sec
 * total energy  :   -58.5084650 Eh     change       -0.7589269E-04 Eh
   gradient norm :     0.0062612 Eh/α   predicted    -0.6515337E-04 ( -14.15%)
   displ. norm   :     0.2082474 α      lambda       -0.1047131E-03
   maximum displ.:     0.1173279 α      in ANC's #2, #3, #1, ...

........................................................................
.............................. CYCLE   17 ..............................
........................................................................
   1    -59.0507959 -0.590508E+02  0.296E-02    0.90       0.0  T
   2    -59.0508198 -0.238805E-04  0.120E-02    0.90       1.5  T
   3    -59.0508237 -0.399312E-05  0.297E-03    0.90       5.9  T
   4    -59.0508238 -0.167382E-07  0.139E-03    0.90      12.5  T
   5    -59.0508238 -0.380464E-08  0.332E-04    0.90      52.4  T
   6    -59.0508238 -0.224238E-08  0.750E-05    0.90     232.1  T
   7    -59.0508238 -0.583924E-10  0.315E-05    0.90     553.3  T
     SCC iter.                  ...        0 min,  0.010 sec
     gradient                   ...        0 min,  0.030 sec
 * total energy  :   -58.5085211 Eh     change       -0.5611923E-04 Eh
   gradient norm :     0.0053450 Eh/α   predicted    -0.5462853E-04 (  -2.66%)
   displ. norm   :     0.1177625 α      lambda       -0.7982559E-04
   maximum displ.:     0.0854989 α      in ANC's #2, #1, #3, ...

........................................................................
.............................. CYCLE   18 ..............................
........................................................................
   1    -59.0520293 -0.590520E+02  0.632E-03    0.90       0.0  T
   2    -59.0520307 -0.138871E-05  0.380E-03    0.90       4.6  T
   3    -59.0520309 -0.214205E-06  0.190E-03    0.90       9.2  T
   4    -59.0520309 -0.379091E-08  0.713E-04    0.90      24.4  T
   5    -59.0520309 -0.219326E-08  0.126E-04    0.90     138.1  T
   6    -59.0520309 -0.398657E-09  0.376E-05    0.90     463.0  T
     SCC iter.                  ...        0 min,  0.008 sec
     gradient                   ...        0 min,  0.030 sec
 * total energy  :   -58.5085716 Eh     change       -0.5046597E-04 Eh
   gradient norm :     0.0037026 Eh/α   predicted    -0.4047043E-04 ( -19.81%)
   displ. norm   :     0.1987565 α      lambda       -0.5894910E-04
   maximum displ.:     0.1387164 α      in ANC's #2, #3, #1, ...

........................................................................
.............................. CYCLE   19 ..............................
........................................................................
   1    -59.0517532 -0.590518E+02  0.214E-02    0.90       0.0  T
   2    -59.0517688 -0.156737E-04  0.103E-02    0.91       1.7  T
   3    -59.0517725 -0.360934E-05  0.228E-03    0.91       7.6  T
   4    -59.0517725 -0.131904E-07  0.131E-03    0.91      13.3  T
   5    -59.0517725 -0.446847E-08  0.254E-04    0.91      68.6  T
   6    -59.0517725 -0.201479E-08  0.113E-04    0.91     154.0  T
   7    -59.0517725 -0.124025E-09  0.324E-05    0.91     537.5  T
     SCC iter.                  ...        0 min,  0.010 sec
     gradient                   ...        0 min,  0.030 sec
 * total energy  :   -58.5086126 Eh     change       -0.4099875E-04 Eh
   gradient norm :     0.0031061 Eh/α   predicted    -0.3064023E-04 ( -25.27%)
   displ. norm   :     0.0828715 α      lambda       -0.3413646E-04
   maximum displ.:     0.0650548 α      in ANC's #2, #1, #3, ...

........................................................................
.............................. CYCLE   20 ..............................
........................................................................
   1    -59.0524244 -0.590524E+02  0.367E-03    0.91       0.0  T
   2    -59.0524250 -0.600480E-06  0.230E-03    0.91       7.6  T
   3    -59.0524252 -0.143476E-06  0.829E-04    0.91      21.0  T
   4    -59.0524252 -0.867090E-09  0.343E-04    0.91      50.7  T
   5    -59.0524252 -0.280785E-09  0.814E-05    0.91     213.8  T
   6    -59.0524252 -0.179568E-09  0.156E-05    0.91    1118.8  T
     SCC iter.                  ...        0 min,  0.009 sec
     gradient                   ...        0 min,  0.031 sec
 * total energy  :   -58.5086395 Eh     change       -0.2687465E-04 Eh
   gradient norm :     0.0028172 Eh/α   predicted    -0.1718956E-04 ( -36.04%)
   displ. norm   :     0.1186361 α      lambda       -0.4112330E-04
   maximum displ.:     0.0907529 α      in ANC's #2, #1, #3, ...
 * RMSD in coord.:     0.5740409 α      energy gain  -0.2834388E-01 Eh

generating ANC from model Hessian ...
Using Lindh-Hessian (1995)
 Shifting diagonal of input Hessian by   9.351771768803863E-003
 Lowest  eigenvalues of input Hessian
    0.000000    0.000000    0.000000    0.000000    0.000000    0.000000
    0.010000    0.010102    0.011330    0.012327    0.013405    0.014513
    0.015096    0.016386    0.018415    0.018746    0.019478    0.020673
 Highest eigenvalues
    1.698341    1.855611    1.959889    2.106699    2.192616    2.296578
 

........................................................................
.............................. CYCLE   21 ..............................
........................................................................
   1    -59.0519468 -0.590519E+02  0.505E-03    0.91       0.0  T
   2    -59.0519481 -0.127165E-05  0.325E-03    0.91       5.4  T
   3    -59.0519484 -0.307001E-06  0.104E-03    0.91      16.8  T
   4    -59.0519484 -0.157365E-08  0.508E-04    0.91      34.2  T
   5    -59.0519484 -0.724079E-09  0.913E-05    0.91     190.6  T
   6    -59.0519484 -0.296417E-09  0.220E-05    0.91     790.6  T
     SCC iter.                  ...        0 min,  0.012 sec
     gradient                   ...        0 min,  0.051 sec
 * total energy  :   -58.5086688 Eh     change       -0.2933751E-04 Eh
   gradient norm :     0.0023678 Eh/α   predicted     0.0000000E+00 (-100.00%)
   displ. norm   :     0.0207305 α      lambda       -0.1081823E-04
   maximum displ.:     0.0127319 α      in ANC's #2, #17, #14, ...

........................................................................
.............................. CYCLE   22 ..............................
........................................................................
   1    -59.0518739 -0.590519E+02  0.261E-03    0.91       0.0  T
   2    -59.0518741 -0.188729E-06  0.113E-03    0.91      15.4  T
   3    -59.0518741 -0.365887E-07  0.456E-04    0.91      38.2  T
   4    -59.0518741 -0.549960E-09  0.178E-04    0.91      98.0  T
   5    -59.0518741 -0.109850E-10  0.406E-05    0.91     428.3  T
     SCC iter.                  ...        0 min,  0.007 sec
     gradient                   ...        0 min,  0.030 sec
 * total energy  :   -58.5086792 Eh     change       -0.1038355E-04 Eh
   gradient norm :     0.0011215 Eh/α   predicted    -0.6970652E-05 ( -32.87%)
   displ. norm   :     0.0560477 α      lambda       -0.1277990E-04
   maximum displ.:     0.0386809 α      in ANC's #2, #6, #17, ...

........................................................................
.............................. CYCLE   23 ..............................
........................................................................
   1    -59.0517172 -0.590517E+02  0.568E-03    0.91       0.0  T
   2    -59.0517181 -0.842154E-06  0.231E-03    0.91       7.5  T
   3    -59.0517182 -0.145702E-06  0.984E-04    0.91      17.7  T
   4    -59.0517182 -0.322499E-08  0.385E-04    0.91      45.2  T
   5    -59.0517182 -0.720064E-10  0.614E-05    0.91     283.5  T
   6    -59.0517182 -0.747988E-10  0.163E-05    0.91    1067.6  T
     SCC iter.                  ...        0 min,  0.008 sec
     gradient                   ...        0 min,  0.030 sec
 * total energy  :   -58.5086874 Eh     change       -0.8177359E-05 Eh
   gradient norm :     0.0015148 Eh/α   predicted    -0.6399400E-05 ( -21.74%)
   displ. norm   :     0.0170678 α      lambda       -0.3296656E-05
   maximum displ.:     0.0132738 α      in ANC's #2, #1, #15, ...

........................................................................
.............................. CYCLE   24 ..............................
........................................................................
   1    -59.0517618 -0.590518E+02  0.105E-03    0.91       0.0  T
   2    -59.0517618 -0.254855E-07  0.528E-04    0.91      32.9  T
   3    -59.0517618 -0.523489E-08  0.240E-04    0.91      72.6  T
   4    -59.0517618 -0.930953E-10  0.747E-05    0.91     232.9  T
   5    -59.0517618 -0.288978E-10  0.154E-05    0.91    1131.9  T
     SCC iter.                  ...        0 min,  0.007 sec
     gradient                   ...        0 min,  0.030 sec
 * total energy  :   -58.5086912 Eh     change       -0.3832302E-05 Eh
   gradient norm :     0.0005991 Eh/α   predicted    -0.1649524E-05 ( -56.96%)
   displ. norm   :     0.0337775 α      lambda       -0.3589776E-05
   maximum displ.:     0.0264029 α      in ANC's #2, #1, #15, ...

   *** GEOMETRY OPTIMIZATION CONVERGED AFTER 24 ITERATIONS ***

------------------------------------------------------------------------
 total energy gain   :        -0.0283956 Eh      -17.8185 kcal/mol
 total RMSD          :         0.5805542 a0        0.3072 Å
 total power (kW/mol):        -3.1063612 (step)  -37.6518 (real)
------------------------------------------------------------------------

 ANCopt (total)                0 d,  0 h,  0 min,  1.980 sec
 optimizer setup                ...        0 min,  0.001 sec (  0.031%)
 model hessian                  ...        0 min,  0.045 sec (  2.278%)
 ANC generation                 ...        0 min,  0.003 sec (  0.128%)
 coordinate transformation      ...        0 min,  0.001 sec (  0.027%)
 single point calculation       ...        0 min,  1.921 sec ( 97.013%)
 optimization log               ...        0 min,  0.005 sec (  0.261%)
 hessian update                 ...        0 min,  0.000 sec (  0.025%)
 rational function              ...        0 min,  0.003 sec (  0.156%)

================
 final structure:
================
33
 xtb: 6.5.1 (579679a)
C            4.20997251917760        1.34577112852188        0.19581099808495
O            2.87272159047741        0.88674916782749        0.19219885247041
C            2.64781442534281       -0.26204389358571       -0.61383024467450
O            3.62517197929298       -0.73589918851641       -1.25819670369011
C            1.37264483523418       -0.77717883098776       -0.59968336319652
C            0.98658037170725       -1.92110182852150       -1.45662901609160
O            1.95540807285887       -2.92782054407788       -1.65041234786368
C           -0.25835564054418       -2.01196061105419       -1.97203277512646
O           -0.89390601011245       -2.85559043041183       -2.66778224351375
N           -1.09402578521605       -0.81754958868363       -1.54772876455246
C           -0.93330540005122       -0.21760169866127       -0.36976804243598
C           -2.19308053476263        0.38707182277577        0.25775377081517
C           -2.76904740216281       -0.58628262262472        1.29561643197887
C           -1.97709761432713        1.78562280840007        0.85839112936808
N           -3.18692593055027        0.49998953159428       -0.81579484423196
N            0.28056190101718       -0.19289899116293        0.14502344650912
C            0.58041263140325        0.27286092833143        1.49417854427105
H            4.52930613064758        1.65872616216676       -0.80724963014071
H            4.89962546694984        0.56992857813337        0.55312649959376
H            4.25676971066523        2.20336519372775        0.86978694344788
H            2.82197672186501       -2.46874058064282       -1.64198206097248
H           -2.05312740394622       -0.87194777040300       -1.87279525864766
H           -3.66048067086541       -0.15072732387947        1.74397226332374
H           -3.04228207454679       -1.52368686131697        0.81089519558925
H           -2.05422319330843       -0.79571187625999        2.08873237939033
H           -1.32700579113566        2.38084275133809        0.21837621911527
H           -1.55441512775278        1.74266053657012        1.85906815953216
H           -2.94182115294594        2.28595976958523        0.92868936615832
H           -3.00495377138869        1.33781112270801       -1.35222781395713
H           -4.10023107205555        0.61017288934470       -0.40125898008451
H            1.46339853163320       -0.25392221036506        1.85427569807004
H            0.78660438305862        1.34334263050686        1.49299095149062
H           -0.24468569565825        0.05978982962333        2.16848623997133
 
 Bond Distances (Angstroems)
 ---------------------------
C1-O2=1.4138         C1-H18=1.0982        C1-H19=1.0978        C1-H20=1.0917        O2-C1=1.4138         O2-C3=1.4213         
C3-O2=1.4213         C3-O4=1.2629         C3-C5=1.3754         O4-C3=1.2629         C5-C3=1.3754         C5-C6=1.4805         
C5-N16=1.4452        C6-C5=1.4805         C6-O7=1.4106         C6-C8=1.3505         O7-C6=1.4106         O7-H21=0.9807        
C8-C6=1.3505         C8-O9=1.2648         C8-N10=1.5182        O9-C8=1.2648         N10-C8=1.5182        N10-C11=1.3317       
N10-H22=1.0142       C11-N10=1.3317       C11-C12=1.5318       C11-N16=1.3187       C12-C11=1.5318       C12-C13=1.5350       
C12-C14=1.5373       C12-N15=1.4673       C13-C12=1.5350       C13-H23=1.0888       C13-H24=1.0901       C13-H25=1.0881       
C14-C12=1.5373       C14-H26=1.0893       C14-H27=1.0871       C14-H28=1.0890       N15-C12=1.4673       N15-H29=1.0113       
N15-H30=1.0090       N16-C5=1.4452        N16-C11=1.3187       N16-C17=1.4584       C17-N16=1.4584       C17-H31=1.0894       
C17-H32=1.0902       C17-H33=1.0867       H18-C1=1.0982        H19-C1=1.0978        H20-C1=1.0917        H21-O7=0.9807        
H22-N10=1.0142       H23-C13=1.0888       H24-C13=1.0901       H25-C13=1.0881       H26-C14=1.0893       H27-C14=1.0871       
H28-C14=1.0890       H29-N15=1.0113       H30-N15=1.0090       H31-C17=1.0894       H32-C17=1.0902       H33-C17=1.0867       
 C  H  Rav=1.0905 sigma=0.0036  Rmin=1.0867  Rmax=1.0982    12
 C  C  Rav=1.4684 sigma=0.0774  Rmin=1.3505  Rmax=1.5373     6
 N  H  Rav=1.0115 sigma=0.0021  Rmin=1.0090  Rmax=1.0142     3
 N  C  Rav=1.4233 sigma=0.0730  Rmin=1.3187  Rmax=1.5182     6
 O  H  Rav=0.9807 sigma=0.0000  Rmin=0.9807  Rmax=0.9807     1
 O  C  Rav=1.3547 sigma=0.0742  Rmin=1.2629  Rmax=1.4213     5
 
 selected bond angles (degree)
 --------------------
H18-C1-O2=111.42               H19-C1-O2=111.44               H19-C1-H18=108.42              H20-C1-O2=107.29               
H20-C1-H18=109.12              H20-C1-H19=109.10              C3-O2-C1=114.43                O4-C3-O2=118.05                
C5-C3-O2=116.34                C5-C3-O4=125.61                C6-C5-C3=121.68                N16-C5-C3=123.68               
N16-C5-C6=114.43               O7-C6-C5=116.86                C8-C6-C5=120.88                C8-C6-O7=122.19                
H21-O7-C6=105.76               O9-C8-C6=135.89                N10-C8-C6=110.35               N10-C8-O9=113.70               
C11-N10-C8=122.36              H22-N10-C8=112.88              H22-N10-C11=114.95             
 
 selected dihedral angles (degree)
 ---------------------------------
C3-O2-C1-H18= 62.40           C3-O2-C1-H19=301.15           C3-O2-C1-H20=181.78           O4-C3-O2-C1=358.44            
C5-C3-O2-C1=177.24            C6-C5-C3-O2=176.28            C6-C5-C3-O4=354.97            N16-C5-C3-O2=  1.88           
N16-C5-C3-O4=180.57           O7-C6-C5-C3= 36.76            O7-C6-C5-N16=211.64           C8-C6-C5-C3=213.87            
C8-C6-C5-N16= 28.76           H21-O7-C6-C5=326.97           H21-O7-C6-C8=149.90           O9-C8-C6-C5=183.45            
O9-C8-C6-O7=  0.41            N10-C8-C6-C5=  0.46           N10-C8-C6-O7=177.42           C11-N10-C8-C6=327.15          
C11-N10-C8-O9=144.87          H22-N10-C8-C6=183.11          H22-N10-C8-O9=  0.84          
           -------------------------------------------------
          |                Final Singlepoint                |
           -------------------------------------------------

          ...................................................
          :                      SETUP                      :
          :.................................................:
          :  # basis functions                 100          :
          :  # atomic orbitals                 100          :
          :  # shells                           66          :
          :  # electrons                        96          :
          :  # halogen bonds                     0          :
          :  max. iterations                   250          :
          :  Hamiltonian                  GFN1-xTB          :
          :  restarted?                      false          :
          :  GBSA solvation                   true          :
          :  PC potential                    false          :
          :  electronic temp.          300.0000000     K    :
          :  accuracy                    1.0000000          :
          :  -> integral cutoff          0.2500000E+02      :
          :  -> integral neglect         0.1000000E-07      :
          :  -> SCF convergence          0.1000000E-05 Eh   :
          :  -> wf. convergence          0.2000000E-04 e    :
          :  Broyden damping             0.4000000          :
          ...................................................

 iter      E             dE          RMSdq      gap      omega  full diag
   1    -59.0517618 -0.590518E+02  0.508E-06    0.91       0.0  T
   2    -59.0517618 -0.227374E-12  0.264E-06    0.91    6605.4  T
   3    -59.0517618 -0.710543E-13  0.140E-06    0.91   12473.9  T

   *** convergence criteria satisfied after 3 iterations ***

         #    Occupation            Energy/Eh            Energy/eV
      -------------------------------------------------------------
         1        2.0000           -0.7844969             -21.3472
       ...           ...                  ...                  ...
        42        2.0000           -0.4308060             -11.7228
        43        2.0000           -0.4131484             -11.2423
        44        2.0000           -0.4094080             -11.1406
        45        2.0000           -0.3946895             -10.7400
        46        2.0000           -0.3740451             -10.1783
        47        2.0000           -0.3511478              -9.5552
        48        2.0000           -0.2827065              -7.6928 (HOMO)
        49                         -0.2493531              -6.7852 (LUMO)
        50                         -0.1540336              -4.1915
        51                         -0.1324513              -3.6042
        52                         -0.1212360              -3.2990
        53                         -0.1131181              -3.0781
       ...                                ...                  ...
       100                          0.7775437              21.1580
      -------------------------------------------------------------
                  HL-Gap            0.0333534 Eh            0.9076 eV
             Fermi-level           -0.2660298 Eh           -7.2390 eV

 SCC (total)                   0 d,  0 h,  0 min,  0.050 sec
 SCC setup                      ...        0 min,  0.001 sec (  1.899%)
 Dispersion                     ...        0 min,  0.000 sec (  0.291%)
 classical contributions        ...        0 min,  0.000 sec (  0.112%)
 integral evaluation            ...        0 min,  0.014 sec ( 27.914%)
 iterations                     ...        0 min,  0.005 sec (  9.292%)
 molecular gradient             ...        0 min,  0.030 sec ( 59.763%)
 printout                       ...        0 min,  0.000 sec (  0.645%)

         :::::::::::::::::::::::::::::::::::::::::::::::::::::
         ::                     SUMMARY                     ::
         :::::::::::::::::::::::::::::::::::::::::::::::::::::
         :: total energy             -58.508691209306 Eh    ::
         :: total w/o Gsasa/hb       -58.490992310239 Eh    ::
         :: gradient norm              0.000599966135 Eh/a0 ::
         :: HOMO-LUMO gap              0.907592747630 eV    ::
         ::.................................................::
         :: SCC energy               -59.051761802013 Eh    ::
         :: -> electrostatic           0.409779044451 Eh    ::
         :: -> Gsolv                  -0.129178042276 Eh    ::
         ::    -> Gelec               -0.111479143209 Eh    ::
         ::    -> Gsasa               -0.017731821622 Eh    ::
         ::    -> Ghb                 -0.007591356450 Eh    ::
         ::    -> Gshift               0.007624279005 Eh    ::
         :: repulsion energy           0.562788735286 Eh    ::
         :: dispersion energy         -0.019718142580 Eh    ::
         :: halogen bond corr.         0.000000000000 Eh    ::
         :: add. restraining           0.000000000000 Eh    ::
         :: total charge              -1.000000000000 e     ::
         :::::::::::::::::::::::::::::::::::::::::::::::::::::

           -------------------------------------------------
          |                Property Printout                |
           -------------------------------------------------

    * Orbital Energies and Occupations

         #    Occupation            Energy/Eh            Energy/eV
      -------------------------------------------------------------
         1        2.0000           -0.7844969             -21.3472
       ...           ...                  ...                  ...
        36        2.0000           -0.4820032             -13.1160
        37        2.0000           -0.4754906             -12.9388
        38        2.0000           -0.4718723             -12.8403
        39        2.0000           -0.4629410             -12.5973
        40        2.0000           -0.4547846             -12.3753
        41        2.0000           -0.4362370             -11.8706
        42        2.0000           -0.4308060             -11.7228
        43        2.0000           -0.4131484             -11.2423
        44        2.0000           -0.4094080             -11.1406
        45        2.0000           -0.3946895             -10.7400
        46        2.0000           -0.3740451             -10.1783
        47        2.0000           -0.3511478              -9.5552
        48        2.0000           -0.2827065              -7.6928 (HOMO)
        49                         -0.2493531              -6.7852 (LUMO)
        50                         -0.1540336              -4.1915
        51                         -0.1324513              -3.6042
        52                         -0.1212360              -3.2990
        53                         -0.1131181              -3.0781
        54                         -0.1072083              -2.9173
        55                         -0.0986943              -2.6856
        56                         -0.0901882              -2.4541
        57                         -0.0745250              -2.0279
        58                         -0.0696721              -1.8959
        59                         -0.0572434              -1.5577
       ...                                ...                  ...
       100                          0.7775437              21.1580
      -------------------------------------------------------------
                  HL-Gap            0.0333534 Eh            0.9076 eV
             Fermi-level           -0.2660298 Eh           -7.2390 eV

  Mulliken/CM5 charges         n(s)   n(p)   n(d)
     1C     0.18484  0.06668   0.963  2.852  0.000
     2O    -0.49956 -0.58621   1.707  4.793  0.000
     3C     0.45690  0.51078   0.960  2.583  0.000
     4O    -0.71575 -0.77251   1.746  4.969  0.000
     5C    -0.11347 -0.05069   1.024  3.090  0.000
     6C     0.06716  0.09617   0.992  2.941  0.000
     7O    -0.60419 -0.78908   1.716  4.888  0.000
     8C     0.32742  0.40719   0.985  2.687  0.000
     9O    -0.74502 -0.78043   1.753  4.992  0.000
    10N    -0.35024 -0.67887   1.460  3.890  0.000
    11C     0.25959  0.40936   1.024  2.716  0.000
    12C     0.13906  0.17089   1.070  2.791  0.000
    13C    -0.10161 -0.24328   1.019  3.083  0.000
    14C    -0.11590 -0.25887   1.023  3.093  0.000
    15N    -0.51175 -0.97661   1.475  4.036  0.000
    16N    -0.16701 -0.41922   1.444  3.723  0.000
    17C     0.05149 -0.03734   0.988  2.960  0.000
    18H     0.01492  0.07598   0.985  0.000  0.000
    19H     0.01721  0.07860   0.983  0.000  0.000
    20H     0.01307  0.07303   0.987  0.000  0.000
    21H     0.34389  0.52733   0.656  0.000  0.000
    22H     0.22860  0.43996   0.771  0.000  0.000
    23H     0.04540  0.10081   0.955  0.000  0.000
    24H     0.04393  0.10090   0.956  0.000  0.000
    25H     0.03605  0.09096   0.964  0.000  0.000
    26H     0.03952  0.09553   0.960  0.000  0.000
    27H     0.03973  0.09486   0.960  0.000  0.000
    28H     0.04752  0.10423   0.952  0.000  0.000
    29H     0.21805  0.41001   0.782  0.000  0.000
    30H     0.22069  0.41240   0.779  0.000  0.000
    31H     0.05230  0.12019   0.948  0.000  0.000
    32H     0.04516  0.11091   0.955  0.000  0.000
    33H     0.03200  0.09635   0.968  0.000  0.000

Wiberg/Mayer (AO) data.
largest (>0.10) Wiberg bond orders for each atom

 ---------------------------------------------------------------------------
     #   Z sym  total        # sym  WBO       # sym  WBO       # sym  WBO
 ---------------------------------------------------------------------------
     1   6 C    3.917 --    20 H    0.987    18 H    0.981    19 H    0.981
                             2 O    0.948
     2   8 O    2.053 --     1 C    0.948     3 C    0.902
     3   6 C    3.881 --     5 C    1.459     4 O    1.368     2 O    0.902
     4   8 O    1.755 --     3 C    1.368     5 C    0.149
     5   6 C    3.759 --     3 C    1.459     6 C    1.026    16 N    0.927
                             4 O    0.149
     6   6 C    3.835 --     8 C    1.576     5 C    1.026     7 O    0.955
                             9 O    0.187
     7   8 O    1.911 --     6 C    0.955    21 H    0.838
     8   6 C    3.888 --     6 C    1.576     9 O    1.356    10 N    0.793
     9   8 O    1.695 --     8 C    1.356     6 C    0.187
    10   7 N    3.348 --    11 C    1.329    22 H    0.896     8 C    0.793
                            16 N    0.148
    11   6 C    3.935 --    16 N    1.412    10 N    1.329    12 C    0.968
    12   6 C    3.966 --    14 C    0.988    13 C    0.986    15 N    0.985
                            11 C    0.968
    13   6 C    3.993 --    12 C    0.986    24 H    0.985    23 H    0.983
                            25 H    0.979
    14   6 C    3.994 --    12 C    0.988    26 H    0.985    28 H    0.983
                            27 H    0.981
    15   7 N    2.985 --    12 C    0.985    29 H    0.945    30 H    0.943
    16   7 N    3.520 --    11 C    1.412    17 C    0.945     5 C    0.927
                            10 N    0.148
    17   6 C    3.952 --    31 H    0.981    32 H    0.977    33 H    0.977
                            16 N    0.945
    18   1 H    1.022 --     1 C    0.981
    19   1 H    1.022 --     1 C    0.981
    20   1 H    1.019 --     1 C    0.987
    21   1 H    0.913 --     7 O    0.838
    22   1 H    0.980 --    10 N    0.896
    23   1 H    1.000 --    13 C    0.983
    24   1 H    1.004 --    13 C    0.985
    25   1 H    1.006 --    13 C    0.979
    26   1 H    1.003 --    14 C    0.985
    27   1 H    1.005 --    14 C    0.981
    28   1 H    1.004 --    14 C    0.983
    29   1 H    0.959 --    15 N    0.945
    30   1 H    0.958 --    15 N    0.943
    31   1 H    1.020 --    17 C    0.981
    32   1 H    1.020 --    17 C    0.977
    33   1 H    1.010 --    17 C    0.977
 ---------------------------------------------------------------------------

Topologies differ in total number of bonds
Writing topology from bond orders to xtbtopo.mol

 dipole moment from electron density (au)
     X       Y       Z   
  -4.2401   6.5345   5.8582  total (Debye):   24.773

           -------------------------------------------------
          |                Geometry Summary                 |
           -------------------------------------------------

      molecular mass/u    :      242.2521403
   center of mass at/Å    :        0.3288428      -0.4661032      -0.4935740
  moments of inertia/u·Å² :        0.7857733E+03   0.1346773E+04   0.1932208E+04
rotational constants/cm⁻¹ :        0.2145356E-01   0.1251705E-01   0.8724543E-02

 * 25 selected distances

     #   Z          #   Z                                           value/Å
     1   6 C        2   8 O                                       1.4138439
     3   6 C        5   6 C                                       1.3753625
     6   6 C        8   6 C                                       1.3504675
    10   7 N       11   6 C                                       1.3316758
    12   6 C       13   6 C                                       1.5350297
    12   6 C       14   6 C                                       1.5373221 (max)
    12   6 C       15   7 N                                       1.4673057
    11   6 C       16   7 N                                       1.3187474
    16   7 N       17   6 C                                       1.4584453
     1   6 C       18   1 H                                       1.0982011
     1   6 C       19   1 H                                       1.0978285
     1   6 C       20   1 H                                       1.0917423
     7   8 O       21   1 H                                       0.9806971 (min)
    10   7 N       22   1 H                                       1.0141516
    13   6 C       23   1 H                                       1.0887538
    13   6 C       24   1 H                                       1.0901095
    13   6 C       25   1 H                                       1.0880567
    14   6 C       26   1 H                                       1.0892775
    14   6 C       27   1 H                                       1.0871343
    14   6 C       28   1 H                                       1.0890228
    15   7 N       29   1 H                                       1.0113453
    15   7 N       30   1 H                                       1.0090128
    17   6 C       31   1 H                                       1.0894195
    17   6 C       32   1 H                                       1.0901595
    17   6 C       33   1 H                                       1.0866819

 * 6 distinct bonds (by element types)

   Z      Z             #   av. dist./Å        max./Å        min./Å
   1 H    6 C          12     1.0905323     1.0982011     1.0866819
   6 C    6 C           4     1.4495454     1.5373221     1.3504675
   1 H    7 N           3     1.0115033     1.0141516     1.0090128
   6 C    7 N           4     1.3940435     1.4673057     1.3187474
   1 H    8 O           1     0.9806971     0.9806971     0.9806971
   6 C    8 O           1     1.4138439     1.4138439     1.4138439


optimized geometry written to: xtbopt.xyz


           -------------------------------------------------
          | TOTAL ENERGY              -58.508691209306 Eh   |
          | GRADIENT NORM               0.000599966135 Eh/α |
          | HOMO-LUMO GAP               0.907592747630 eV   |
           -------------------------------------------------

------------------------------------------------------------------------
 * finished run on 2023/06/20 at 14:59:09.222     
------------------------------------------------------------------------
 total:
 * wall-time:     0 d,  0 h,  0 min,  2.230 sec
 *  cpu-time:     0 d,  0 h,  0 min,  2.182 sec
 * ratio c/w:     0.978 speedup
 SCF:
 * wall-time:     0 d,  0 h,  0 min,  0.124 sec
 *  cpu-time:     0 d,  0 h,  0 min,  0.124 sec
 * ratio c/w:     1.000 speedup
 ANC optimizer:
 * wall-time:     0 d,  0 h,  0 min,  2.035 sec
 *  cpu-time:     0 d,  0 h,  0 min,  2.030 sec
 * ratio c/w:     0.998 speedup

