42
 energy: -83.602344234252 gnorm: 0.000608487715 xtb: 6.5.1 (579679a)
C           -2.34187865787571        2.41599577295104        2.79586802815605
O           -2.02915992065140        1.50215019979269        1.75460996018210
C           -2.68139694734403        1.69632144652511        0.58054603487768
O           -3.46050247338976        2.63103187679229        0.43834885870390
C           -2.48914628572133        0.55230984565900       -0.42858341604825
C           -2.69830989212910        1.10175995712734       -1.85190272874682
N           -1.17258952730464       -0.04436001572879       -0.31460716576848
C           -1.06935991558216       -1.15045630030500        0.38507854184010
C            0.35708364382323       -1.70438174734860        0.55234215605586
C            0.42873829607741       -3.09434279387664       -0.09817112439250
C            0.67946615735658       -1.79913601602625        2.05094822159508
N            1.27962679608214       -0.78802187595244       -0.10709383503635
C            2.61710381440916       -0.93846555413199       -0.18608253939838
O            3.25746915738122       -1.87431431977785        0.31463901360858
C            3.23890704468231        0.15383878872153       -0.94003275107190
N            2.61476852117292        1.17070489621501       -1.49699748666109
N            3.57460048356069        1.94199486029884       -2.09206572061372
C            4.71123962797985        1.36519625287197       -1.87078370684296
C            6.04984991480127        1.82381338890784       -2.31210943897569
O            4.58620063315222        0.23183155893336       -1.15073088103874
N           -1.99303602901295       -1.90096201078495        0.96714783507049
C           -3.33062584182436       -1.54887198199964        0.74452357625688
O           -4.27994870800344       -2.29829388459355        1.14559439614575
C           -3.56958049069820       -0.38530252514013        0.01375119491796
O           -4.90203321793924       -0.03318390647316       -0.29035926159844
H           -1.79394697270321        2.09844326834499        3.68230577567888
H           -3.41637999640072        2.41625149319399        3.00576902473137
H           -2.03939820554401        3.43207073577475        2.52242068708429
H           -1.91039575092771        1.81489354897655       -2.09516411921238
H           -2.66341830892375        0.28192228117276       -2.56836100498579
H           -3.66513824542176        1.59922834242811       -1.92418351692749
H            0.26645747925265       -3.01323507745942       -1.17337429766371
H            1.39714903348907       -3.56138291133586        0.07809785534329
H           -0.35425548498808       -3.72173647964690        0.32971847690486
H            0.70013591540426       -0.80230167403966        2.49270756311855
H           -0.09899413096348       -2.38566289351422        2.54054959717974
H            1.64407027867583       -2.27802869188856        2.21569129269733
H            0.83685029724443        0.00837558474529       -0.56762184294194
H            6.66662610896738        2.07797093174327       -1.44999597271290
H            5.94221081434393        2.70026363751172       -2.94589718451644
H            6.55574018766110        1.03437316594353       -2.86661866963719
H           -5.44479620216363       -0.72830117460749        0.12007457463679
