      -----------------------------------------------------------      
     |                   =====================                   |     
     |                           x T B                           |     
     |                   =====================                   |     
     |                         S. Grimme                         |     
     |          Mulliken Center for Theoretical Chemistry        |     
     |                    University of Bonn                     |     
      -----------------------------------------------------------      

   * xtb version 6.5.1 (579679a) compiled by 'ehlert@majestix' on 2022-07-11

   xtb is free software: you can redistribute it and/or modify it under
   the terms of the GNU Lesser General Public License as published by
   the Free Software Foundation, either version 3 of the License, or
   (at your option) any later version.
   
   xtb is distributed in the hope that it will be useful,
   but WITHOUT ANY WARRANTY; without even the implied warranty of
   MERCHANTABILITY or FITNESS FOR A PARTICULAR PURPOSE.  See the
   GNU Lesser General Public License for more details.
   
   Cite this work as:
   * C. Bannwarth, E. Caldeweyher, S. Ehlert, A. Hansen, P. Pracht,
     J. Seibert, S. Spicher, S. Grimme, WIREs Comput. Mol. Sci., 2020, 11,
     e01493. DOI: 10.1002/wcms.1493
   
   for GFN2-xTB:
   * C. Bannwarth, S. Ehlert and S. Grimme., J. Chem. Theory Comput., 2019,
     15, 1652-1671. DOI: 10.1021/acs.jctc.8b01176
   for GFN1-xTB:
   * S. Grimme, C. Bannwarth, P. Shushkov, J. Chem. Theory Comput., 2017,
     13, 1989-2009. DOI: 10.1021/acs.jctc.7b00118
   for GFN0-xTB:
   * P. Pracht, E. Caldeweyher, S. Ehlert, S. Grimme, ChemRxiv, 2019, preprint.
     DOI: 10.26434/chemrxiv.8326202.v1
   for GFN-FF:
   * S. Spicher and S. Grimme, Angew. Chem. Int. Ed., 2020, 59, 15665-15673.
     DOI: 10.1002/anie.202004239
   
   for ALPB and GBSA implicit solvation:
   * S. Ehlert, M. Stahn, S. Spicher, S. Grimme, J. Chem. Theory Comput.,
     2021, 17, 4250-4261. DOI: 10.1021/acs.jctc.1c00471
   
   for DFT-D4:
   * E. Caldeweyher, C. Bannwarth and S. Grimme, J. Chem. Phys., 2017,
     147, 034112. DOI: 10.1063/1.4993215
   * E. Caldeweyher, S. Ehlert, A. Hansen, H. Neugebauer, S. Spicher,
     C. Bannwarth and S. Grimme, J. Chem. Phys., 2019, 150, 154122.
     DOI: 10.1063/1.5090222
   * E. Caldeweyher, J.-M. Mewes, S. Ehlert and S. Grimme, Phys. Chem. Chem. Phys.
     2020, 22, 8499-8512. DOI: 10.1039/D0CP00502A
   
   for sTDA-xTB:
   * S. Grimme and C. Bannwarth, J. Chem. Phys., 2016, 145, 054103.
     DOI: 10.1063/1.4959605
   
   in the mass-spec context:
   * V. Asgeirsson, C. Bauer and S. Grimme, Chem. Sci., 2017, 8, 4879.
     DOI: 10.1039/c7sc00601b
   * J. Koopman and S. Grimme, ACS Omega 2019, 4, 12, 15120-15133.
     DOI: 10.1021/acsomega.9b02011
   
   for metadynamics refer to:
   * S. Grimme, J. Chem. Theory Comput., 2019, 155, 2847-2862
     DOI: 10.1021/acs.jctc.9b00143
   
   for SPH calculations refer to:
   * S. Spicher and S. Grimme, J. Chem. Theory Comput., 2021, 17, 1701-1714
     DOI: 10.1021/acs.jctc.0c01306
   
   with help from (in alphabetical order)
   P. Atkinson, C. Bannwarth, F. Bohle, G. Brandenburg, E. Caldeweyher
   M. Checinski, S. Dohm, S. Ehlert, S. Ehrlich, I. Gerasimov, C. Hölzer
   A. Katbashev, J. Koopman, C. Lavigne, S. Lehtola, F. März, M. Müller,
   F. Musil, H. Neugebauer, J. Pisarek, C. Plett, P. Pracht, F. Pultar,
   J. Seibert, P. Shushkov, S. Spicher, M. Stahn, M. Steiner, T. Strunk,
   J. Stückrath, T. Rose, and J. Unsleber
   
 * started run on 2023/06/21 at 17:32:45.577     

           -------------------------------------------------
          |                Calculation Setup                |
           -------------------------------------------------

          program call               : /lustre/hpc/kemi/ree/PhD/git/ReactivityQM/dep/xtb-6.5.1/bin/xtb --gfn 1 /lustre/hpc/kemi/ree/PhD/git/ReactivityQM/calculations/R02methylcation/reac01prodN03/conf11/R02methylcation_reac01prodN03_conf11_gfn1.xyz --opt --vfukui --chrg 0 --uhf 0 --alpb DMSO
          hostname                   : node317
          coordinate file            : /lustre/hpc/kemi/ree/PhD/git/ReactivityQM/calculations/R02methylcation/reac01prodN03/conf11/R02methylcation_reac01prodN03_conf11_gfn1.xyz
          omp threads                :                     1

   ID    Z sym.   atoms
    1    6 C      1, 3, 5, 6, 8-11, 13, 15, 18, 19, 22, 24
    2    8 O      2, 4, 14, 20, 23, 25
    3    7 N      7, 12, 16, 17, 21
    4    1 H      26-42

           -------------------------------------------------
          |                 G F N 1 - x T B                 |
           -------------------------------------------------

        Reference                      10.1021/acs.jctc.7b00118
      * Hamiltonian:
        H0-scaling (s, p, d)           1.850000    2.250000    2.000000
        zeta-weighting                 0.000000
      * Dispersion:
        s8                             2.400000
        a1                             0.630000
        a2                             5.000000
        s9                             0.000000
      * Repulsion:
        kExp                           1.500000
        rExp                           1.000000
      * Coulomb:
        alpha                          2.000000
        third order                    atomic
        anisotropic                    false
      * Halogen bond correction:
        rad-scale                      1.300000
        damping                        0.440000

      * Solvation model:               ALPB
        Solvent                        DMSO
        Parameter file                 internal GFN1-xTB/ALPB
        Dielectric constant                4.6680E+01
        Reference state                gsolv [1 M gas/solution]
        Free energy shift                  7.6243E-03 Eh       4.7843E+00 kcal/mol
        Temperature                        2.9815E+02 K
        Density                            1.1000E+00 kg/L
        Solvent mass                       7.8130E+01 g/mol
        Interaction kernel             P16
        Born radius scaling (c1)           1.7672E+00
        Born radii integrator          GBOBC
        Born offset                        0.0000E+00 a0       0.0000E+00 AA
        H-bond correction              true
        Ion screening                  false
        Surface tension                    1.0000E-05 Eh       1.5569E+01 dyn/cm
        Grid points                               230 per atom

          ...................................................
          :                      SETUP                      :
          :.................................................:
          :  # basis functions                 134          :
          :  # atomic orbitals                 134          :
          :  # shells                           84          :
          :  # electrons                       134          :
          :  # halogen bonds                     0          :
          :  max. iterations                   250          :
          :  Hamiltonian                  GFN1-xTB          :
          :  restarted?                      false          :
          :  GBSA solvation                   true          :
          :  PC potential                    false          :
          :  electronic temp.          300.0000000     K    :
          :  accuracy                    1.0000000          :
          :  -> integral cutoff          0.2500000E+02      :
          :  -> integral neglect         0.1000000E-07      :
          :  -> SCF convergence          0.1000000E-05 Eh   :
          :  -> wf. convergence          0.2000000E-04 e    :
          :  Broyden damping             0.4000000          :
          ...................................................

 iter      E             dE          RMSdq      gap      omega  full diag
   1    -83.3656341 -0.833656E+02  0.844E+00    2.34       0.0  T
   2    -83.7239796 -0.358346E+00  0.508E+00    2.09       1.0  T
   3    -83.7117386  0.122410E-01  0.187E+00    2.25       1.0  T
   4    -83.7494738 -0.377352E-01  0.139E-01    2.13       1.0  T
   5    -83.7500306 -0.556805E-03  0.426E-02    2.16       1.0  T
   6    -83.7500558 -0.252260E-04  0.136E-02    2.16       1.1  T
   7    -83.7500589 -0.311524E-05  0.344E-03    2.16       4.5  T
   8    -83.7500592 -0.289850E-06  0.707E-04    2.16      21.8  T
   9    -83.7500592 -0.837554E-08  0.327E-04    2.16      47.1  T
  10    -83.7500592 -0.101343E-08  0.900E-05    2.16     171.5  T
  11    -83.7500592 -0.795808E-10  0.210E-05    2.16     734.8  T

   *** convergence criteria satisfied after 11 iterations ***

         #    Occupation            Energy/Eh            Energy/eV
      -------------------------------------------------------------
         1        2.0000           -0.8642957             -23.5187
       ...           ...                  ...                  ...
        61        2.0000           -0.4754187             -12.9368
        62        2.0000           -0.4668813             -12.7045
        63        2.0000           -0.4623440             -12.5810
        64        2.0000           -0.4576867             -12.4543
        65        2.0000           -0.4477144             -12.1829
        66        2.0000           -0.4449820             -12.1086
        67        2.0000           -0.4431795             -12.0595 (HOMO)
        68                         -0.3637420              -9.8979 (LUMO)
        69                         -0.3205262              -8.7220
        70                         -0.3068174              -8.3489
        71                         -0.2811004              -7.6491
        72                         -0.2612621              -7.1093
       ...                                ...                  ...
       134                          0.7553821              20.5550
      -------------------------------------------------------------
                  HL-Gap            0.0794375 Eh            2.1616 eV
             Fermi-level           -0.4034608 Eh          -10.9787 eV

 SCC (total)                   0 d,  0 h,  0 min,  0.222 sec
 SCC setup                      ...        0 min,  0.002 sec (  0.954%)
 Dispersion                     ...        0 min,  0.000 sec (  0.190%)
 classical contributions        ...        0 min,  0.000 sec (  0.060%)
 integral evaluation            ...        0 min,  0.060 sec ( 27.141%)
 iterations                     ...        0 min,  0.067 sec ( 30.391%)
 molecular gradient             ...        0 min,  0.090 sec ( 40.780%)
 printout                       ...        0 min,  0.001 sec (  0.463%)

         :::::::::::::::::::::::::::::::::::::::::::::::::::::
         ::                     SUMMARY                     ::
         :::::::::::::::::::::::::::::::::::::::::::::::::::::
         :: total energy             -82.981788532365 Eh    ::
         :: total w/o Gsasa/hb       -82.961926744722 Eh    ::
         :: gradient norm              0.113408251834 Eh/a0 ::
         :: HOMO-LUMO gap              2.161603249702 eV    ::
         ::.................................................::
         :: SCC energy               -83.750059241474 Eh    ::
         :: -> electrostatic           0.349559904471 Eh    ::
         :: -> Gsolv                  -0.049538544367 Eh    ::
         ::    -> Gelec               -0.029676756724 Eh    ::
         ::    -> Gsasa               -0.023491602084 Eh    ::
         ::    -> Ghb                 -0.003994464564 Eh    ::
         ::    -> Gshift               0.007624279005 Eh    ::
         :: repulsion energy           0.794962732302 Eh    ::
         :: dispersion energy         -0.026692023193 Eh    ::
         :: halogen bond corr.         0.000000000000 Eh    ::
         :: add. restraining           0.000000000000 Eh    ::
         :: total charge               0.000000000000 e     ::
         :::::::::::::::::::::::::::::::::::::::::::::::::::::

      ----------------------------------------------------------- 
     |                   =====================                   |
     |                        A N C O P T                        |
     |                   =====================                   |
     |               Approximate Normal Coordinate               |
     |                Rational Function Optimizer                |
      ----------------------------------------------------------- 

          ...................................................
          :                      SETUP                      :
          :.................................................:
          :   optimization level            normal          :
          :   max. optcycles                   200          :
          :   ANC micro-cycles                  20          :
          :   degrees of freedom               120          :
          :.................................................:
          :   RF solver                   davidson          :
          :   write xtbopt.log                true          :
          :   linear?                        false          :
          :   energy convergence         0.5000000E-05 Eh   :
          :   grad. convergence          0.1000000E-02 Eh/α :
          :   maximium RF displ.         1.0000000          :
          :   Hlow (freq-cutoff)         0.1000000E-01      :
          :   Hmax (freq-cutoff)         5.0000000          :
          :   S6 in model hess.         20.0000000          :
          ...................................................

generating ANC from model Hessian ...
Using Lindh-Hessian (1995)
 Shifting diagonal of input Hessian by   9.827248747830834E-003
 Lowest  eigenvalues of input Hessian
    0.000000    0.000000    0.000000    0.000000    0.000000    0.000000
    0.010000    0.010150    0.010556    0.010900    0.011818    0.012352
    0.013052    0.013735    0.014607    0.015184    0.016606    0.017433
 Highest eigenvalues
    2.102139    2.115922    2.251856    2.284831    2.353459    2.409116
 

........................................................................
.............................. CYCLE    1 ..............................
........................................................................
   1    -83.7500592 -0.837501E+02  0.117E-05    2.16       0.0  T
   2    -83.7500592 -0.136424E-11  0.499E-06    2.16    3092.1  T
   3    -83.7500592 -0.184741E-12  0.335E-06    2.16    4608.7  T
     SCC iter.                  ...        0 min,  0.012 sec
     gradient                   ...        0 min,  0.079 sec
 * total energy  :   -82.9817885 Eh     change       -0.6409095E-11 Eh
   gradient norm :     0.1134081 Eh/α   predicted     0.0000000E+00 (-100.00%)
   displ. norm   :     0.3279421 α      lambda       -0.1603772E-01
   maximum displ.:     0.2173236 α      in ANC's #26, #24, #63, ...

........................................................................
.............................. CYCLE    2 ..............................
........................................................................
   1    -83.7693661 -0.837694E+02  0.646E-02    2.26       0.0  T
   2    -83.7695394 -0.173267E-03  0.336E-02    2.27       1.0  T
   3    -83.7695623 -0.229268E-04  0.149E-02    2.27       1.0  T
   4    -83.7695625 -0.169655E-06  0.213E-03    2.27       7.2  T
   5    -83.7695626 -0.584464E-07  0.713E-04    2.27      21.6  T
   6    -83.7695626 -0.698745E-08  0.244E-04    2.27      63.3  T
   7    -83.7695626 -0.870045E-09  0.654E-05    2.27     235.8  T
   8    -83.7695626 -0.386819E-10  0.172E-05    2.27     896.6  T
     SCC iter.                  ...        0 min,  0.029 sec
     gradient                   ...        0 min,  0.084 sec
 * total energy  :   -82.9934120 Eh     change       -0.1162346E-01 Eh
   gradient norm :     0.0567085 Eh/α   predicted    -0.8892572E-02 ( -23.49%)
   displ. norm   :     0.3669616 α      lambda       -0.7475907E-02
   maximum displ.:     0.2503534 α      in ANC's #26, #12, #24, ...

........................................................................
.............................. CYCLE    3 ..............................
........................................................................
   1    -83.7812075 -0.837812E+02  0.600E-02    2.37       0.0  T
   2    -83.7813573 -0.149752E-03  0.307E-02    2.37       1.0  T
   3    -83.7813770 -0.197207E-04  0.132E-02    2.37       1.2  T
   4    -83.7813772 -0.183547E-06  0.251E-03    2.37       6.2  T
   5    -83.7813773 -0.702364E-07  0.650E-04    2.37      23.7  T
   6    -83.7813773 -0.673150E-08  0.213E-04    2.37      72.3  T
   7    -83.7813773 -0.519961E-09  0.744E-05    2.37     207.4  T
   8    -83.7813773 -0.532339E-10  0.187E-05    2.37     826.4  T
     SCC iter.                  ...        0 min,  0.024 sec
     gradient                   ...        0 min,  0.044 sec
 * total energy  :   -82.9980471 Eh     change       -0.4635103E-02 Eh
   gradient norm :     0.0175004 Eh/α   predicted    -0.4241311E-02 (  -8.50%)
   displ. norm   :     0.2475898 α      lambda       -0.1431186E-02
   maximum displ.:     0.1317217 α      in ANC's #26, #12, #7, ...

........................................................................
.............................. CYCLE    4 ..............................
........................................................................
   1    -83.7832659 -0.837833E+02  0.197E-02    2.40       0.0  T
   2    -83.7832818 -0.158774E-04  0.104E-02    2.40       1.5  T
   3    -83.7832837 -0.187923E-05  0.486E-03    2.40       3.2  T
   4    -83.7832837 -0.243916E-07  0.130E-03    2.40      11.9  T
   5    -83.7832837 -0.134818E-07  0.256E-04    2.40      60.3  T
   6    -83.7832837 -0.102024E-08  0.746E-05    2.40     206.9  T
   7    -83.7832837 -0.887042E-10  0.323E-05    2.40     477.3  T
     SCC iter.                  ...        0 min,  0.019 sec
     gradient                   ...        0 min,  0.048 sec
 * total energy  :   -82.9990656 Eh     change       -0.1018480E-02 Eh
   gradient norm :     0.0107555 Eh/α   predicted    -0.7598583E-03 ( -25.39%)
   displ. norm   :     0.2664650 α      lambda       -0.8469996E-03
   maximum displ.:     0.1564814 α      in ANC's #12, #26, #3, ...

........................................................................
.............................. CYCLE    5 ..............................
........................................................................
   1    -83.7843465 -0.837843E+02  0.133E-02    2.41       0.0  T
   2    -83.7843529 -0.644349E-05  0.645E-03    2.42       2.4  T
   3    -83.7843534 -0.497734E-06  0.327E-03    2.42       4.7  T
   4    -83.7843534 -0.192020E-07  0.119E-03    2.42      12.9  T
   5    -83.7843534 -0.832902E-08  0.181E-04    2.42      85.1  T
   6    -83.7843534 -0.684508E-09  0.447E-05    2.42     345.5  T
     SCC iter.                  ...        0 min,  0.023 sec
     gradient                   ...        0 min,  0.059 sec
 * total energy  :   -82.9996430 Eh     change       -0.5773962E-03 Eh
   gradient norm :     0.0088661 Eh/α   predicted    -0.4535708E-03 ( -21.45%)
   displ. norm   :     0.2034202 α      lambda       -0.3551004E-03
   maximum displ.:     0.1232468 α      in ANC's #12, #3, #11, ...

........................................................................
.............................. CYCLE    6 ..............................
........................................................................
   1    -83.7854815 -0.837855E+02  0.784E-03    2.41       0.0  T
   2    -83.7854836 -0.204324E-05  0.387E-03    2.42       4.0  T
   3    -83.7854837 -0.117283E-06  0.200E-03    2.42       7.7  T
   4    -83.7854837 -0.115628E-07  0.709E-04    2.42      21.8  T
   5    -83.7854837 -0.267389E-08  0.112E-04    2.42     137.7  T
   6    -83.7854837 -0.296055E-09  0.255E-05    2.42     606.0  T
     SCC iter.                  ...        0 min,  0.016 sec
     gradient                   ...        0 min,  0.044 sec
 * total energy  :   -82.9998868 Eh     change       -0.2438728E-03 Eh
   gradient norm :     0.0068672 Eh/α   predicted    -0.1849323E-03 ( -24.17%)
   displ. norm   :     0.1519112 α      lambda       -0.1701073E-03
   maximum displ.:     0.0821934 α      in ANC's #12, #3, #11, ...

........................................................................
.............................. CYCLE    7 ..............................
........................................................................
   1    -83.7866032 -0.837866E+02  0.587E-03    2.41       0.0  T
   2    -83.7866043 -0.105047E-05  0.340E-03    2.41       4.5  T
   3    -83.7866044 -0.964819E-07  0.177E-03    2.41       8.7  T
   4    -83.7866044 -0.324120E-08  0.394E-04    2.41      39.1  T
   5    -83.7866044 -0.124255E-08  0.767E-05    2.41     201.3  T
   6    -83.7866044 -0.110717E-09  0.191E-05    2.41     809.9  T
     SCC iter.                  ...        0 min,  0.016 sec
     gradient                   ...        0 min,  0.045 sec
 * total energy  :   -83.0000047 Eh     change       -0.1178613E-03 Eh
   gradient norm :     0.0044499 Eh/α   predicted    -0.8705829E-04 ( -26.13%)
   displ. norm   :     0.1179449 α      lambda       -0.9190039E-04
   maximum displ.:     0.0617281 α      in ANC's #3, #12, #14, ...

........................................................................
.............................. CYCLE    8 ..............................
........................................................................
   1    -83.7873235 -0.837873E+02  0.494E-03    2.41       0.0  T
   2    -83.7873243 -0.769907E-06  0.271E-03    2.41       5.7  T
   3    -83.7873244 -0.697386E-07  0.142E-03    2.41      10.9  T
   4    -83.7873244 -0.982780E-09  0.337E-04    2.41      45.8  T
   5    -83.7873244 -0.120279E-08  0.591E-05    2.41     261.1  T
   6    -83.7873244 -0.523812E-10  0.170E-05    2.41     909.9  T
     SCC iter.                  ...        0 min,  0.016 sec
     gradient                   ...        0 min,  0.045 sec
 * total energy  :   -83.0000699 Eh     change       -0.6518857E-04 Eh
   gradient norm :     0.0030856 Eh/α   predicted    -0.4658970E-04 ( -28.53%)
   displ. norm   :     0.1127293 α      lambda       -0.6409505E-04
   maximum displ.:     0.0646175 α      in ANC's #3, #14, #18, ...

........................................................................
.............................. CYCLE    9 ..............................
........................................................................
   1    -83.7875788 -0.837876E+02  0.401E-03    2.41       0.0  T
   2    -83.7875793 -0.540100E-06  0.186E-03    2.41       8.3  T
   3    -83.7875793 -0.366556E-07  0.960E-04    2.41      16.1  T
   4    -83.7875793 -0.947011E-09  0.325E-04    2.41      47.5  T
   5    -83.7875793 -0.899547E-09  0.515E-05    2.41     299.7  T
   6    -83.7875793 -0.388667E-10  0.161E-05    2.41     961.2  T
     SCC iter.                  ...        0 min,  0.016 sec
     gradient                   ...        0 min,  0.045 sec
 * total energy  :   -83.0001176 Eh     change       -0.4769128E-04 Eh
   gradient norm :     0.0031218 Eh/α   predicted    -0.3245535E-04 ( -31.95%)
   displ. norm   :     0.1411476 α      lambda       -0.6300408E-04
   maximum displ.:     0.0816923 α      in ANC's #3, #6, #18, ...

........................................................................
.............................. CYCLE   10 ..............................
........................................................................
   1    -83.7874408 -0.837874E+02  0.343E-03    2.41       0.0  T
   2    -83.7874412 -0.392531E-06  0.134E-03    2.41      11.5  T
   3    -83.7874412 -0.186134E-07  0.695E-04    2.41      22.2  T
   4    -83.7874412 -0.117726E-08  0.271E-04    2.41      57.0  T
   5    -83.7874412 -0.526512E-09  0.501E-05    2.41     308.1  T
   6    -83.7874412 -0.322586E-10  0.147E-05    2.41    1050.9  T
     SCC iter.                  ...        0 min,  0.016 sec
     gradient                   ...        0 min,  0.045 sec
 * total energy  :   -83.0001645 Eh     change       -0.4693072E-04 Eh
   gradient norm :     0.0035946 Eh/α   predicted    -0.3213243E-04 ( -31.53%)
   displ. norm   :     0.1620302 α      lambda       -0.6147793E-04
   maximum displ.:     0.0934695 α      in ANC's #3, #6, #18, ...

........................................................................
.............................. CYCLE   11 ..............................
........................................................................
   1    -83.7871393 -0.837871E+02  0.271E-03    2.41       0.0  T
   2    -83.7871395 -0.196403E-06  0.130E-03    2.41      11.9  T
   3    -83.7871396 -0.121948E-07  0.667E-04    2.41      23.1  T
   4    -83.7871396 -0.103832E-08  0.229E-04    2.41      67.5  T
   5    -83.7871396 -0.413081E-09  0.442E-05    2.41     348.9  T
   6    -83.7871396 -0.232916E-10  0.125E-05    2.41    1230.9  T
     SCC iter.                  ...        0 min,  0.016 sec
     gradient                   ...        0 min,  0.045 sec
 * total energy  :   -83.0002112 Eh     change       -0.4668787E-04 Eh
   gradient norm :     0.0035582 Eh/α   predicted    -0.3154822E-04 ( -32.43%)
   displ. norm   :     0.1791923 α      lambda       -0.6107282E-04
   maximum displ.:     0.1037740 α      in ANC's #3, #6, #18, ...

........................................................................
.............................. CYCLE   12 ..............................
........................................................................
   1    -83.7869091 -0.837869E+02  0.289E-03    2.42       0.0  T
   2    -83.7869093 -0.178549E-06  0.168E-03    2.42       9.2  T
   3    -83.7869093 -0.202098E-07  0.873E-04    2.42      17.7  T
   4    -83.7869093 -0.128435E-08  0.201E-04    2.42      76.6  T
   5    -83.7869093 -0.403503E-09  0.434E-05    2.42     355.6  T
   6    -83.7869093 -0.227942E-10  0.143E-05    2.42    1080.1  T
     SCC iter.                  ...        0 min,  0.016 sec
     gradient                   ...        0 min,  0.044 sec
 * total energy  :   -83.0002568 Eh     change       -0.4557544E-04 Eh
   gradient norm :     0.0030290 Eh/α   predicted    -0.3151999E-04 ( -30.84%)
   displ. norm   :     0.1554572 α      lambda       -0.4808682E-04
   maximum displ.:     0.0928278 α      in ANC's #3, #6, #16, ...

........................................................................
.............................. CYCLE   13 ..............................
........................................................................
   1    -83.7870349 -0.837870E+02  0.295E-03    2.42       0.0  T
   2    -83.7870351 -0.218802E-06  0.146E-03    2.42      10.6  T
   3    -83.7870351 -0.177450E-07  0.758E-04    2.42      20.3  T
   4    -83.7870351 -0.127831E-08  0.230E-04    2.42      67.1  T
   5    -83.7870351 -0.445141E-09  0.413E-05    2.42     373.7  T
   6    -83.7870351 -0.215863E-10  0.134E-05    2.42    1155.2  T
     SCC iter.                  ...        0 min,  0.016 sec
     gradient                   ...        0 min,  0.044 sec
 * total energy  :   -83.0002929 Eh     change       -0.3610195E-04 Eh
   gradient norm :     0.0024689 Eh/α   predicted    -0.2462839E-04 ( -31.78%)
   displ. norm   :     0.1545431 α      lambda       -0.3921078E-04
   maximum displ.:     0.0940142 α      in ANC's #3, #6, #16, ...

........................................................................
.............................. CYCLE   14 ..............................
........................................................................
   1    -83.7872495 -0.837872E+02  0.283E-03    2.42       0.0  T
   2    -83.7872497 -0.233396E-06  0.108E-03    2.42      14.3  T
   3    -83.7872498 -0.150742E-07  0.550E-04    2.42      28.0  T
   4    -83.7872498 -0.123596E-08  0.209E-04    2.42      73.9  T
   5    -83.7872498 -0.233683E-09  0.396E-05    2.42     389.9  T
   6    -83.7872498 -0.183746E-10  0.118E-05    2.42    1303.1  T
     SCC iter.                  ...        0 min,  0.016 sec
     gradient                   ...        0 min,  0.044 sec
 * total energy  :   -83.0003216 Eh     change       -0.2867350E-04 Eh
   gradient norm :     0.0022705 Eh/α   predicted    -0.2007384E-04 ( -29.99%)
   displ. norm   :     0.1380641 α      lambda       -0.2874350E-04
   maximum displ.:     0.0850700 α      in ANC's #3, #6, #16, ...

........................................................................
.............................. CYCLE   15 ..............................
........................................................................
   1    -83.7875446 -0.837875E+02  0.243E-03    2.42       0.0  T
   2    -83.7875448 -0.178488E-06  0.897E-04    2.42      17.2  T
   3    -83.7875448 -0.137461E-07  0.406E-04    2.42      38.0  T
   4    -83.7875448 -0.673651E-09  0.157E-04    2.42      98.5  T
   5    -83.7875448 -0.152554E-09  0.333E-05    2.42     463.9  T
     SCC iter.                  ...        0 min,  0.014 sec
     gradient                   ...        0 min,  0.045 sec
 * total energy  :   -83.0003427 Eh     change       -0.2112615E-04 Eh
   gradient norm :     0.0021350 Eh/α   predicted    -0.1464870E-04 ( -30.66%)
   displ. norm   :     0.1360533 α      lambda       -0.2451327E-04
   maximum displ.:     0.0842458 α      in ANC's #3, #6, #16, ...

........................................................................
.............................. CYCLE   16 ..............................
........................................................................
   1    -83.7876721 -0.837877E+02  0.252E-03    2.42       0.0  T
   2    -83.7876723 -0.197583E-06  0.107E-03    2.42      14.4  T
   3    -83.7876723 -0.181028E-07  0.482E-04    2.42      32.0  T
   4    -83.7876723 -0.324306E-09  0.173E-04    2.42      89.4  T
   5    -83.7876723 -0.272763E-09  0.357E-05    2.42     431.7  T
     SCC iter.                  ...        0 min,  0.014 sec
     gradient                   ...        0 min,  0.045 sec
 * total energy  :   -83.0003605 Eh     change       -0.1778503E-04 Eh
   gradient norm :     0.0019358 Eh/α   predicted    -0.1248499E-04 ( -29.80%)
   displ. norm   :     0.1592870 α      lambda       -0.1949312E-04
   maximum displ.:     0.0961744 α      in ANC's #3, #6, #16, ...

........................................................................
.............................. CYCLE   17 ..............................
........................................................................
   1    -83.7881376 -0.837881E+02  0.358E-03    2.41       0.0  T
   2    -83.7881380 -0.385834E-06  0.162E-03    2.41       9.5  T
   3    -83.7881381 -0.312813E-07  0.803E-04    2.41      19.2  T
   4    -83.7881381 -0.521453E-09  0.270E-04    2.41      57.2  T
   5    -83.7881381 -0.749324E-09  0.459E-05    2.41     336.0  T
   6    -83.7881381 -0.237179E-10  0.135E-05    2.41    1140.0  T
     SCC iter.                  ...        0 min,  0.016 sec
     gradient                   ...        0 min,  0.046 sec
 * total energy  :   -83.0003764 Eh     change       -0.1588581E-04 Eh
   gradient norm :     0.0019158 Eh/α   predicted    -0.9858486E-05 ( -37.94%)
   displ. norm   :     0.0419100 α      lambda       -0.9602447E-05
   maximum displ.:     0.0151711 α      in ANC's #15, #8, #3, ...

........................................................................
.............................. CYCLE   18 ..............................
........................................................................
   1    -83.7879461 -0.837879E+02  0.179E-03    2.42       0.0  T
   2    -83.7879462 -0.109275E-06  0.718E-04    2.42      21.5  T
   3    -83.7879462 -0.208345E-08  0.385E-04    2.42      40.0  T
   4    -83.7879462 -0.711111E-10  0.102E-04    2.42     150.7  T
   5    -83.7879462 -0.102744E-09  0.201E-05    2.42     768.0  T
     SCC iter.                  ...        0 min,  0.020 sec
     gradient                   ...        0 min,  0.083 sec
 * total energy  :   -83.0003875 Eh     change       -0.1114733E-04 Eh
   gradient norm :     0.0013089 Eh/α   predicted    -0.4809751E-05 ( -56.85%)
   displ. norm   :     0.1036974 α      lambda       -0.1715418E-04
   maximum displ.:     0.0537486 α      in ANC's #15, #5, #8, ...

........................................................................
.............................. CYCLE   19 ..............................
........................................................................
   1    -83.7885715 -0.837886E+02  0.311E-03    2.42       0.0  T
   2    -83.7885719 -0.329773E-06  0.115E-03    2.42      13.4  T
   3    -83.7885719 -0.986971E-08  0.587E-04    2.42      26.3  T
   4    -83.7885719 -0.792042E-09  0.237E-04    2.42      65.2  T
   5    -83.7885719 -0.393243E-09  0.464E-05    2.42     332.4  T
   6    -83.7885719 -0.310507E-10  0.106E-05    2.42    1455.1  T
     SCC iter.                  ...        0 min,  0.023 sec
     gradient                   ...        0 min,  0.083 sec
 * total energy  :   -83.0004012 Eh     change       -0.1365515E-04 Eh
   gradient norm :     0.0021184 Eh/α   predicted    -0.8619562E-05 ( -36.88%)
   displ. norm   :     0.0622963 α      lambda       -0.9955704E-05
   maximum displ.:     0.0290891 α      in ANC's #3, #5, #25, ...

........................................................................
.............................. CYCLE   20 ..............................
........................................................................
   1    -83.7875761 -0.837876E+02  0.191E-03    2.42       0.0  T
   2    -83.7875762 -0.543863E-07  0.975E-04    2.42      15.8  T
   3    -83.7875762 -0.166777E-08  0.456E-04    2.42      33.9  T
   4    -83.7875762 -0.796717E-09  0.996E-05    2.42     154.8  T
   5    -83.7875762 -0.122611E-09  0.243E-05    2.42     634.6  T
     SCC iter.                  ...        0 min,  0.020 sec
     gradient                   ...        0 min,  0.083 sec
 * total energy  :   -83.0004068 Eh     change       -0.5640952E-05 Eh
   gradient norm :     0.0019721 Eh/α   predicted    -0.4998471E-05 ( -11.39%)
   displ. norm   :     0.0756520 α      lambda       -0.1206487E-04
   maximum displ.:     0.0356701 α      in ANC's #6, #15, #10, ...
 * RMSD in coord.:     0.3360945 α      energy gain  -0.1861826E-01 Eh

generating ANC from model Hessian ...
Using Lindh-Hessian (1995)
 Shifting diagonal of input Hessian by   9.806823937834008E-003
 Lowest  eigenvalues of input Hessian
    0.000000    0.000000    0.000000    0.000000    0.000000    0.000000
    0.010000    0.010144    0.010532    0.011069    0.011869    0.012377
    0.013138    0.013578    0.014408    0.015315    0.016402    0.017336
 Highest eigenvalues
    2.122758    2.143917    2.231665    2.387240    2.410686    2.426775
 

........................................................................
.............................. CYCLE   21 ..............................
........................................................................
   1    -83.7875787 -0.837876E+02  0.317E-03    2.42       0.0  T
   2    -83.7875789 -0.166123E-06  0.150E-03    2.42      10.3  T
   3    -83.7875789 -0.619495E-08  0.733E-04    2.42      21.0  T
   4    -83.7875789 -0.190633E-08  0.186E-04    2.42      82.8  T
   5    -83.7875789 -0.417771E-09  0.400E-05    2.42     385.8  T
     SCC iter.                  ...        0 min,  0.019 sec
     gradient                   ...        0 min,  0.083 sec
 * total energy  :   -83.0004130 Eh     change       -0.6221495E-05 Eh
   gradient norm :     0.0020391 Eh/α   predicted     0.0000000E+00 (-100.00%)
   displ. norm   :     0.0154487 α      lambda       -0.4080654E-05
   maximum displ.:     0.0053145 α      in ANC's #9, #11, #5, ...

........................................................................
.............................. CYCLE   22 ..............................
........................................................................
   1    -83.7879601 -0.837880E+02  0.166E-03    2.42       0.0  T
   2    -83.7879601 -0.442059E-07  0.842E-04    2.42      18.3  T
   3    -83.7879601 -0.170236E-08  0.397E-04    2.42      38.9  T
   4    -83.7879601 -0.402721E-09  0.882E-05    2.42     175.0  T
   5    -83.7879601 -0.835030E-10  0.209E-05    2.42     738.7  T
     SCC iter.                  ...        0 min,  0.020 sec
     gradient                   ...        0 min,  0.084 sec
 * total energy  :   -83.0004206 Eh     change       -0.7558082E-05 Eh
   gradient norm :     0.0007014 Eh/α   predicted    -0.5413296E-05 ( -28.38%)
   displ. norm   :     0.0387067 α      lambda       -0.6851144E-05
   maximum displ.:     0.0145903 α      in ANC's #9, #11, #5, ...

........................................................................
.............................. CYCLE   23 ..............................
........................................................................
   1    -83.7882657 -0.837883E+02  0.201E-03    2.42       0.0  T
   2    -83.7882658 -0.994893E-07  0.972E-04    2.42      15.9  T
   3    -83.7882658 -0.375097E-08  0.484E-04    2.42      31.9  T
   4    -83.7882658 -0.293284E-09  0.135E-04    2.42     114.1  T
   5    -83.7882658 -0.203016E-09  0.289E-05    2.42     533.7  T
     SCC iter.                  ...        0 min,  0.020 sec
     gradient                   ...        0 min,  0.083 sec
 * total energy  :   -83.0004261 Eh     change       -0.5548722E-05 Eh
   gradient norm :     0.0011509 Eh/α   predicted    -0.3428028E-05 ( -38.22%)
   displ. norm   :     0.0279078 α      lambda       -0.3244969E-05
   maximum displ.:     0.0125908 α      in ANC's #5, #9, #18, ...

........................................................................
.............................. CYCLE   24 ..............................
........................................................................
   1    -83.7880919 -0.837881E+02  0.721E-04    2.42       0.0  T
   2    -83.7880919 -0.911230E-08  0.377E-04    2.42      40.9  T
   3    -83.7880919 -0.573294E-09  0.201E-04    2.42      76.8  T
   4    -83.7880919 -0.104805E-09  0.311E-05    2.42     495.7  T
   5    -83.7880919 -0.121076E-10  0.796E-06    2.42    1938.4  T
     SCC iter.                  ...        0 min,  0.020 sec
     gradient                   ...        0 min,  0.084 sec
 * total energy  :   -83.0004301 Eh     change       -0.3933107E-05 Eh
   gradient norm :     0.0008010 Eh/α   predicted    -0.1652119E-05 ( -57.99%)
   displ. norm   :     0.0594347 α      lambda       -0.5154364E-05
   maximum displ.:     0.0296253 α      in ANC's #5, #9, #18, ...

   *** GEOMETRY OPTIMIZATION CONVERGED AFTER 24 ITERATIONS ***

------------------------------------------------------------------------
 total energy gain   :        -0.0186415 Eh      -11.6977 kcal/mol
 total RMSD          :         0.3359962 a0        0.1778 Å
 total power (kW/mol):        -2.0393047 (step)  -18.2971 (real)
------------------------------------------------------------------------

 ANCopt (total)                0 d,  0 h,  0 min,  2.675 sec
 optimizer setup                ...        0 min,  0.002 sec (  0.072%)
 model hessian                  ...        0 min,  0.058 sec (  2.171%)
 ANC generation                 ...        0 min,  0.005 sec (  0.185%)
 coordinate transformation      ...        0 min,  0.001 sec (  0.033%)
 single point calculation       ...        0 min,  2.598 sec ( 97.124%)
 optimization log               ...        0 min,  0.006 sec (  0.215%)
 hessian update                 ...        0 min,  0.001 sec (  0.028%)
 rational function              ...        0 min,  0.003 sec (  0.102%)

================
 final structure:
================
42
 xtb: 6.5.1 (579679a)
C           -3.49568447056064        2.48709990266382        0.52703404094183
O           -2.99387909012812        1.21263897954800        0.08945642400515
C           -3.79764454579820        0.17936983618219        0.24927963695478
O           -4.90626412890107        0.22831426415463        0.70731554733779
C           -3.14613902389714       -1.13853856569174       -0.25755612013756
C           -4.05369293127317       -2.31187480223603        0.12638919086504
N           -1.88244111131658       -1.27646067932136        0.42706112249369
C           -0.77996976378594       -1.06991816739846       -0.16023481203801
C            0.52205907503153       -1.29052456571419        0.58300404435360
C            1.07276094164975       -2.65567040735980        0.14320288468936
C            0.28817855168716       -1.24646853969795        2.09523225282677
N            1.44185869679138       -0.21864936723623        0.19064973736175
C            2.73535338993158       -0.17116260249882        0.59455877578989
O            3.32862216848525       -1.05266927639960        1.18504670482994
C            3.35758620822079        1.11552701248940        0.19335038437742
N            2.74947449229127        2.11406861634203       -0.37433663376029
N            3.68220027727021        3.08821951086292       -0.55910306956835
C            4.80157303892153        2.62232361709033       -0.09149099120011
C            6.11943594499067        3.29421781107158       -0.06934044570979
O            4.65969180522437        1.38217038540119        0.39833462156641
N           -0.65958919462629       -0.71284324331637       -1.49619220883188
C           -1.70440176804700       -0.60864380814236       -2.36432443164671
O           -1.56190206263223       -0.27675448327223       -3.51900052259059
C           -3.06373678109778       -0.99003530773548       -1.76632251839616
O           -4.02216638221203       -1.14969991995096       -2.47682498710630
H           -2.69466648380049        3.20527608270866        0.37122620033189
H           -4.37460890001411        2.75949734658065       -0.06050885324451
H           -3.76334255166142        2.43472598383121        1.58380250180658
H           -3.59189953982356       -3.24623589195256       -0.18404716243680
H           -4.19332110527626       -2.32077390888312        1.20503570346067
H           -5.01931811975567       -2.20125226774592       -0.36379256843440
H            1.32086078489841       -2.63483487376038       -0.91595255413419
H            1.96425583066791       -2.90547506917640        0.71388742060247
H            0.31625345914252       -3.41861374979734        0.31765322175490
H            1.22534751821163       -1.42523333801554        2.61902240602193
H           -0.43254452474112       -2.01352439009117        2.37337571006287
H           -0.10457555435076       -0.27239375918952        2.38163572813016
H            1.04049009587333        0.64534960436713       -0.14357969564464
H            6.57685407245147        3.18687820818999        0.91334312589548
H            5.99712756333907        4.34817206405127       -0.30839151396402
H            6.78185275587321        2.83479704674748       -0.80422705791749
H            0.25995236274251       -0.53039528769767       -1.86958423969785
 
 Bond Distances (Angstroems)
 ---------------------------
C1-O2=1.4379         C1-H26=1.0871        C1-H27=1.0917        C1-H28=1.0914        O2-C1=1.4379         O2-C3=1.3188         
C3-O2=1.3188         C3-O4=1.2005         C3-C5=1.5551         O4-C3=1.2005         C5-C3=1.5551         C5-C6=1.5322         
C5-N7=1.4438         C5-C24=1.5183        C6-C5=1.5322         C6-H29=1.0875        C6-H30=1.0877        C6-H31=1.0886        
N7-C5=1.4438         N7-C8=1.2661         C8-N7=1.2661         C8-C9=1.5154         C8-N21=1.3881        C9-C8=1.5154         
C9-C10=1.5363        C9-C11=1.5308        C9-N12=1.4659        C10-C9=1.5363        C10-H32=1.0880       C10-H33=1.0876       
C10-H34=1.0885       C11-C9=1.5308        C11-H35=1.0884       C11-H36=1.0887       C11-H37=1.0886       N12-C9=1.4659        
N12-C13=1.3559       N12-H38=1.0096       C13-N12=1.3559       C13-O14=1.2156       C13-C15=1.4845       O14-C13=1.2156       
C15-C13=1.4845       C15-N16=1.2997       C15-O20=1.3448       N16-C15=1.2997       N16-N17=1.3613       N17-N16=1.3613       
N17-C18=1.2995       C18-N17=1.2995       C18-C19=1.4794       C18-O20=1.3409       C19-C18=1.4794       C19-H39=1.0892       
C19-H40=1.0876       C19-H41=1.0908       O20-C15=1.3448       O20-C18=1.3409       N21-C8=1.3881        N21-C22=1.3624       
N21-H42=1.0091       C22-N21=1.3624       C22-O23=1.2098       C22-C24=1.5333       O23-C22=1.2098       C24-C5=1.5183        
C24-C22=1.5333       C24-O25=1.2037       O25-C24=1.2037       H26-C1=1.0871        H27-C1=1.0917        H28-C1=1.0914        
H29-C6=1.0875        H30-C6=1.0877        H31-C6=1.0886        H32-C10=1.0880       H33-C10=1.0876       H34-C10=1.0885       
H35-C11=1.0884       H36-C11=1.0887       H37-C11=1.0886       H38-N12=1.0096       H39-C19=1.0892       H40-C19=1.0876       
H41-C19=1.0908       H42-N21=1.0091       
 C  H  Rav=1.0888 sigma=0.0014  Rmin=1.0871  Rmax=1.0917    15
 C  C  Rav=1.5206 sigma=0.0233  Rmin=1.4794  Rmax=1.5551     9
 N  H  Rav=1.0093 sigma=0.0003  Rmin=1.0091  Rmax=1.0096     2
 N  C  Rav=1.3602 sigma=0.0663  Rmin=1.2661  Rmax=1.4659     8
 N  N  Rav=1.3613 sigma=0.0000  Rmin=1.3613  Rmax=1.3613     1
 O  C  Rav=1.2840 sigma=0.0832  Rmin=1.2005  Rmax=1.4379     8
 
 selected bond angles (degree)
 --------------------
H26-C1-O2=106.55               H27-C1-O2=109.78               H27-C1-H26=110.56              H28-C1-O2=109.74               
H28-C1-H26=110.56              H28-C1-H27=109.61              C3-O2-C1=116.41                O4-C3-O2=125.25                
C5-C3-O2=111.66                C5-C3-O4=123.08                C6-C5-C3=108.61                N7-C5-C3=107.04                
N7-C5-C6=109.05                C24-C5-C3=105.29               C24-C5-C6=110.86               C24-C5-N7=115.66               
H29-C6-C5=109.57               H30-C6-C5=109.32               H30-C6-H29=109.30              H31-C6-C5=109.56               
H31-C6-H29=109.60              H31-C6-H30=109.48              C8-N7-C5=121.78                C9-C8-N7=119.80                
N21-C8-N7=124.33               N21-C8-C9=115.78               C10-C9-C8=107.27               C11-C9-C8=110.43               
C11-C9-C10=111.29              N12-C9-C8=107.54               N12-C9-C10=110.38              N12-C9-C11=109.83              
H32-C10-C9=110.08              H33-C10-C9=110.35              H33-C10-H32=109.16             H34-C10-C9=109.14              
H34-C10-H32=109.14             H34-C10-H33=108.94             
 
 selected dihedral angles (degree)
 ---------------------------------
C3-O2-C1-H26=177.09           C3-O2-C1-H27=296.84           C3-O2-C1-H28= 57.36           O4-C3-O2-C1=  1.16            
C5-C3-O2-C1=180.07            C6-C5-C3-O2=172.64            C6-C5-C3-O4=351.58            N7-C5-C3-O2= 55.03            
N7-C5-C3-O4=233.97            C24-C5-C3-O2=291.43           C24-C5-C3-O4=110.37           H29-C6-C5-C3=182.37           
H29-C6-C5-N7=298.70           H29-C6-C5-C24= 67.15          H30-C6-C5-C3=302.13           H30-C6-C5-N7= 58.46           
H30-C6-C5-C24=186.91          H31-C6-C5-C3= 62.10           H31-C6-C5-N7=178.43           H31-C6-C5-C24=306.88          
C8-N7-C5-C3=254.05            C8-N7-C5-C6=136.72            C8-N7-C5-C24= 11.00           C9-C8-N7-C5=182.86            
N21-C8-N7-C5=359.21           C10-C9-C8-N7=100.60           C10-C9-C8-N21=283.94          C11-C9-C8-N7=339.16           
C11-C9-C8-N21=162.50          N12-C9-C8-N7=219.33           N12-C9-C8-N21= 42.68          H32-C10-C9-C8= 64.49          
H32-C10-C9-C11=185.38         H32-C10-C9-N12=307.60         H33-C10-C9-C8=185.04          H33-C10-C9-C11=305.94         
H33-C10-C9-N12= 68.16         H34-C10-C9-C8=304.72          H34-C10-C9-C11= 65.62         H34-C10-C9-N12=187.84         
           -------------------------------------------------
          |                Final Singlepoint                |
           -------------------------------------------------

          ...................................................
          :                      SETUP                      :
          :.................................................:
          :  # basis functions                 134          :
          :  # atomic orbitals                 134          :
          :  # shells                           84          :
          :  # electrons                       134          :
          :  # halogen bonds                     0          :
          :  max. iterations                   250          :
          :  Hamiltonian                  GFN1-xTB          :
          :  restarted?                      false          :
          :  GBSA solvation                   true          :
          :  PC potential                    false          :
          :  electronic temp.          300.0000000     K    :
          :  accuracy                    1.0000000          :
          :  -> integral cutoff          0.2500000E+02      :
          :  -> integral neglect         0.1000000E-07      :
          :  -> SCF convergence          0.1000000E-05 Eh   :
          :  -> wf. convergence          0.2000000E-04 e    :
          :  Broyden damping             0.4000000          :
          ...................................................

 iter      E             dE          RMSdq      gap      omega  full diag
   1    -83.7880919 -0.837881E+02  0.236E-06    2.42       0.0  T
   2    -83.7880919  0.270006E-12  0.120E-06    2.42   12815.3  T
   3    -83.7880919 -0.255795E-12  0.484E-07    2.42   31897.7  T

   *** convergence criteria satisfied after 3 iterations ***

         #    Occupation            Energy/Eh            Energy/eV
      -------------------------------------------------------------
         1        2.0000           -0.8655392             -23.5525
       ...           ...                  ...                  ...
        61        2.0000           -0.4732596             -12.8780
        62        2.0000           -0.4662020             -12.6860
        63        2.0000           -0.4642386             -12.6326
        64        2.0000           -0.4595510             -12.5050
        65        2.0000           -0.4545444             -12.3688
        66        2.0000           -0.4503838             -12.2556
        67        2.0000           -0.4430015             -12.0547 (HOMO)
        68                         -0.3541745              -9.6376 (LUMO)
        69                         -0.3143345              -8.5535
        70                         -0.2980269              -8.1097
        71                         -0.2734262              -7.4403
        72                         -0.2585399              -7.0352
       ...                                ...                  ...
       134                          0.7575642              20.6144
      -------------------------------------------------------------
                  HL-Gap            0.0888270 Eh            2.4171 eV
             Fermi-level           -0.3985880 Eh          -10.8461 eV

 SCC (total)                   0 d,  0 h,  0 min,  0.133 sec
 SCC setup                      ...        0 min,  0.002 sec (  1.379%)
 Dispersion                     ...        0 min,  0.000 sec (  0.269%)
 classical contributions        ...        0 min,  0.000 sec (  0.088%)
 integral evaluation            ...        0 min,  0.035 sec ( 26.288%)
 iterations                     ...        0 min,  0.012 sec (  9.188%)
 molecular gradient             ...        0 min,  0.083 sec ( 62.110%)
 printout                       ...        0 min,  0.001 sec (  0.633%)

         :::::::::::::::::::::::::::::::::::::::::::::::::::::
         ::                     SUMMARY                     ::
         :::::::::::::::::::::::::::::::::::::::::::::::::::::
         :: total energy             -83.000430055763 Eh    ::
         :: total w/o Gsasa/hb       -82.980574471150 Eh    ::
         :: gradient norm              0.000803319884 Eh/a0 ::
         :: HOMO-LUMO gap              2.417106275022 eV    ::
         ::.................................................::
         :: SCC energy               -83.788091922603 Eh    ::
         :: -> electrostatic           0.353210534867 Eh    ::
         :: -> Gsolv                  -0.051170531912 Eh    ::
         ::    -> Gelec               -0.031314947299 Eh    ::
         ::    -> Gsasa               -0.023637326174 Eh    ::
         ::    -> Ghb                 -0.003842537444 Eh    ::
         ::    -> Gshift               0.007624279005 Eh    ::
         :: repulsion energy           0.814264183608 Eh    ::
         :: dispersion energy         -0.026602316768 Eh    ::
         :: halogen bond corr.         0.000000000000 Eh    ::
         :: add. restraining           0.000000000000 Eh    ::
         :: total charge               0.000000000000 e     ::
         :::::::::::::::::::::::::::::::::::::::::::::::::::::

           -------------------------------------------------
          |                Property Printout                |
           -------------------------------------------------

    * Orbital Energies and Occupations

         #    Occupation            Energy/Eh            Energy/eV
      -------------------------------------------------------------
         1        2.0000           -0.8655392             -23.5525
       ...           ...                  ...                  ...
        55        2.0000           -0.5126477             -13.9499
        56        2.0000           -0.5093209             -13.8593
        57        2.0000           -0.5078134             -13.8183
        58        2.0000           -0.5042337             -13.7209
        59        2.0000           -0.4988161             -13.5735
        60        2.0000           -0.4848831             -13.1943
        61        2.0000           -0.4732596             -12.8780
        62        2.0000           -0.4662020             -12.6860
        63        2.0000           -0.4642386             -12.6326
        64        2.0000           -0.4595510             -12.5050
        65        2.0000           -0.4545444             -12.3688
        66        2.0000           -0.4503838             -12.2556
        67        2.0000           -0.4430015             -12.0547 (HOMO)
        68                         -0.3541745              -9.6376 (LUMO)
        69                         -0.3143345              -8.5535
        70                         -0.2980269              -8.1097
        71                         -0.2734262              -7.4403
        72                         -0.2585399              -7.0352
        73                         -0.2272327              -6.1833
        74                         -0.2024832              -5.5098
        75                         -0.1475000              -4.0137
        76                         -0.1426064              -3.8805
        77                         -0.1302582              -3.5445
        78                         -0.1283880              -3.4936
       ...                                ...                  ...
       134                          0.7575642              20.6144
      -------------------------------------------------------------
                  HL-Gap            0.0888270 Eh            2.4171 eV
             Fermi-level           -0.3985880 Eh          -10.8461 eV

  Mulliken/CM5 charges         n(s)   n(p)   n(d)
     1C     0.16053  0.03908   0.985  2.854  0.000
     2O    -0.40877 -0.49252   1.685  4.723  0.000
     3C     0.59345  0.66050   0.973  2.433  0.000
     4O    -0.52567 -0.57672   1.721  4.805  0.000
     5C     0.09902  0.15422   1.072  2.829  0.000
     6C    -0.08163 -0.21900   1.016  3.066  0.000
     7N    -0.38578 -0.57528   1.535  3.850  0.000
     8C     0.29192  0.44438   1.020  2.688  0.000
     9C     0.15390  0.19422   1.065  2.781  0.000
    10C    -0.10409 -0.24357   1.021  3.083  0.000
    11C    -0.10134 -0.23964   1.017  3.084  0.000
    12N    -0.35642 -0.70966   1.436  3.920  0.000
    13C     0.47489  0.58259   0.977  2.549  0.000
    14O    -0.56048 -0.60649   1.724  4.836  0.000
    15C     0.33309  0.45863   1.006  2.661  0.000
    16N    -0.24066 -0.35189   1.568  3.673  0.000
    17N    -0.26135 -0.36867   1.564  3.698  0.000
    18C     0.38970  0.49802   1.008  2.602  0.000
    19C    -0.11131 -0.24862   1.012  3.099  0.000
    20O    -0.33653 -0.38817   1.691  4.646  0.000
    21N    -0.30954 -0.65506   1.434  3.875  0.000
    22C     0.46576  0.57215   0.998  2.536  0.000
    23O    -0.52457 -0.56353   1.724  4.801  0.000
    24C     0.36571  0.41265   1.081  2.553  0.000
    25O    -0.47063 -0.51664   1.728  4.742  0.000
    26H     0.06274  0.12308   0.937  0.000  0.000
    27H     0.06155  0.12295   0.938  0.000  0.000
    28H     0.06194  0.12390   0.938  0.000  0.000
    29H     0.05412  0.11060   0.946  0.000  0.000
    30H     0.05994  0.11824   0.940  0.000  0.000
    31H     0.06236  0.12180   0.938  0.000  0.000
    32H     0.04807  0.10663   0.952  0.000  0.000
    33H     0.07009  0.13090   0.930  0.000  0.000
    34H     0.04808  0.10351   0.952  0.000  0.000
    35H     0.06021  0.11916   0.940  0.000  0.000
    36H     0.04917  0.10715   0.951  0.000  0.000
    37H     0.04589  0.10381   0.954  0.000  0.000
    38H     0.25140  0.46148   0.749  0.000  0.000
    39H     0.07858  0.13341   0.921  0.000  0.000
    40H     0.07056  0.12627   0.929  0.000  0.000
    41H     0.08084  0.13502   0.919  0.000  0.000
    42H     0.28525  0.49111   0.715  0.000  0.000

Wiberg/Mayer (AO) data.
largest (>0.10) Wiberg bond orders for each atom

 ---------------------------------------------------------------------------
     #   Z sym  total        # sym  WBO       # sym  WBO       # sym  WBO
 ---------------------------------------------------------------------------
     1   6 C    3.855 --    26 H    0.985    28 H    0.980    27 H    0.980
                             2 O    0.877
     2   8 O    2.214 --     3 C    1.150     1 C    0.877     4 O    0.139
     3   6 C    3.842 --     4 O    1.705     2 O    1.150     5 C    0.869
     4   8 O    1.981 --     3 C    1.705     2 O    0.139
     5   6 C    3.964 --     7 N    0.983     6 C    0.971    24 C    0.955
                             3 C    0.869
     6   6 C    3.983 --    29 H    0.985    30 H    0.983    31 H    0.982
                             5 C    0.971
     7   7 N    3.026 --     8 C    1.756     5 C    0.983
     8   6 C    3.928 --     7 N    1.756    21 N    1.070     9 C    0.977
     9   6 C    3.933 --    11 C    0.990     8 C    0.977    10 C    0.976
                            12 N    0.925
    10   6 C    3.987 --    34 H    0.985    32 H    0.985    33 H    0.976
                             9 C    0.976
    11   6 C    3.989 --     9 C    0.990    37 H    0.985    36 H    0.983
                            35 H    0.982
    12   7 N    3.324 --    13 C    1.230     9 C    0.925    38 H    0.895
                            14 O    0.171
    13   6 C    3.914 --    14 O    1.609    12 N    1.230    15 C    0.991
    14   8 O    1.923 --    13 C    1.609    12 N    0.171
    15   6 C    3.876 --    16 N    1.607    20 O    1.065    13 C    0.991
    16   7 N    3.019 --    15 C    1.607    17 N    1.203
    17   7 N    2.981 --    18 C    1.601    16 N    1.203
    18   6 C    3.870 --    17 N    1.601    20 O    1.084    19 C    1.032
    19   6 C    3.986 --    18 C    1.032    40 H    0.981    39 H    0.968
                            41 H    0.958
    20   8 O    2.332 --    18 C    1.084    15 C    1.065
    21   7 N    3.431 --    22 C    1.183     8 C    1.070    42 H    0.880
                            23 O    0.148
    22   6 C    3.892 --    23 O    1.673    21 N    1.183    24 C    0.908
    23   8 O    1.956 --    22 C    1.673    21 N    0.148
    24   6 C    3.847 --    25 O    1.810     5 C    0.955    22 C    0.908
    25   8 O    2.021 --    24 C    1.810
    26   1 H    1.008 --     1 C    0.985
    27   1 H    1.004 --     1 C    0.980
    28   1 H    1.004 --     1 C    0.980
    29   1 H    1.000 --     6 C    0.985
    30   1 H    1.004 --     6 C    0.983
    31   1 H    1.006 --     6 C    0.982
    32   1 H    1.000 --    10 C    0.985
    33   1 H    1.010 --    10 C    0.976
    34   1 H    1.001 --    10 C    0.985
    35   1 H    1.004 --    11 C    0.982
    36   1 H    1.009 --    11 C    0.983
    37   1 H    1.004 --    11 C    0.985
    38   1 H    0.952 --    12 N    0.895
    39   1 H    0.996 --    19 C    0.968
    40   1 H    0.998 --    19 C    0.981
    41   1 H    0.996 --    19 C    0.958
    42   1 H    0.927 --    21 N    0.880
 ---------------------------------------------------------------------------

Topologies differ in total number of bonds
Writing topology from bond orders to xtbtopo.mol

 dipole moment from electron density (au)
     X       Y       Z   
   2.8062   1.2541   1.4663  total (Debye):    8.656

           -------------------------------------------------
          |                Geometry Summary                 |
           -------------------------------------------------

      molecular mass/u    :      351.3152409
   center of mass at/Å    :       -0.0730949       0.0695883      -0.2211840
  moments of inertia/u·Å² :        0.1237771E+04   0.4513251E+04   0.4748265E+04
rotational constants/cm⁻¹ :        0.1361935E-01   0.3735141E-02   0.3550272E-02

 * 36 selected distances

     #   Z          #   Z                                           value/Å
     1   6 C        2   8 O                                       1.4378922
     2   8 O        3   6 C                                       1.3187979
     3   6 C        4   8 O                                       1.2005124
     5   6 C        6   6 C                                       1.5322488
     7   7 N        8   6 C                                       1.2661041
     9   6 C       10   6 C                                       1.5363337 (max)
     9   6 C       11   6 C                                       1.5308415
     9   6 C       12   7 N                                       1.4659093
    12   7 N       13   6 C                                       1.3559227
    13   6 C       14   8 O                                       1.2156061
    15   6 C       16   7 N                                       1.2996746
    17   7 N       18   6 C                                       1.2995060
    18   6 C       19   6 C                                       1.4794240
    15   6 C       20   8 O                                       1.3448407
    18   6 C       20   8 O                                       1.3409101
     8   6 C       21   7 N                                       1.3880838
    21   7 N       22   6 C                                       1.3624040
    22   6 C       23   8 O                                       1.2098487
    24   6 C       25   8 O                                       1.2037002
     1   6 C       26   1 H                                       1.0870525
     1   6 C       27   1 H                                       1.0917488
     1   6 C       28   1 H                                       1.0913953
     6   6 C       29   1 H                                       1.0874993
     6   6 C       30   1 H                                       1.0876827
     6   6 C       31   1 H                                       1.0885530
    10   6 C       32   1 H                                       1.0880249
    10   6 C       33   1 H                                       1.0875875
    10   6 C       34   1 H                                       1.0884940
    11   6 C       35   1 H                                       1.0883928
    11   6 C       36   1 H                                       1.0886599
    11   6 C       37   1 H                                       1.0886251
    12   7 N       38   1 H                                       1.0096041
    19   6 C       39   1 H                                       1.0892292
    19   6 C       40   1 H                                       1.0876233
    19   6 C       41   1 H                                       1.0908355
    21   7 N       42   1 H                                       1.0090915 (min)

 * 5 distinct bonds (by element types)

   Z      Z             #   av. dist./Å        max./Å        min./Å
   1 H    6 C          15     1.0887603     1.0917488     1.0870525
   6 C    6 C           4     1.5197120     1.5363337     1.4794240
   1 H    7 N           2     1.0093478     1.0096041     1.0090915
   6 C    7 N           7     1.3482292     1.4659093     1.2661041
   6 C    8 O           8     1.2840135     1.4378922     1.2005124


optimized geometry written to: xtbopt.xyz


           -------------------------------------------------
          | TOTAL ENERGY              -83.000430055763 Eh   |
          | GRADIENT NORM               0.000803319884 Eh/α |
          | HOMO-LUMO GAP               2.417106275022 eV   |
           -------------------------------------------------

------------------------------------------------------------------------
 * finished run on 2023/06/21 at 17:32:48.730     
------------------------------------------------------------------------
 total:
 * wall-time:     0 d,  0 h,  0 min,  3.153 sec
 *  cpu-time:     0 d,  0 h,  0 min,  2.999 sec
 * ratio c/w:     0.951 speedup
 SCF:
 * wall-time:     0 d,  0 h,  0 min,  0.223 sec
 *  cpu-time:     0 d,  0 h,  0 min,  0.158 sec
 * ratio c/w:     0.708 speedup
 ANC optimizer:
 * wall-time:     0 d,  0 h,  0 min,  2.819 sec
 *  cpu-time:     0 d,  0 h,  0 min,  2.790 sec
 * ratio c/w:     0.990 speedup

