42
 energy: -82.985492660285 gnorm: 0.000718915184 xtb: 6.5.1 (579679a)
C            3.62249940183126       -2.50443134355516       -2.93283562867237
O            3.44842177244486       -1.41434220922951       -2.01794386279963
C            2.21399329227219       -0.98581852845442       -1.83040352224646
O            1.23732084146644       -1.44970055248725       -2.36139781658478
C            2.14643968784805        0.15984929836528       -0.83839879614296
C            3.33482430143275        1.01612408144537       -0.55968886570467
O            4.26762251791651        1.13956866580306       -1.31097112461360
C            3.25338715079032        1.77914719664900        0.76499221558682
O            4.22959851317582        2.24445030959961        1.31648129874357
N            2.00756648287233        1.86924145369350        1.27586132842742
C            0.78392358336492        1.40797882853913        0.64957141524122
C            0.14805429858474        2.56838713661485       -0.13266787071975
C           -0.16649460883845        0.81924406444874        1.74193533287409
C           -0.68320206084761        1.89972032417665        2.69364519037192
C            0.56836902518856       -0.28693236545302        2.50870483699664
N           -1.28650252150815        0.23399193360180        1.00480624142830
C           -2.34758924046743       -0.34807374634173        1.60072377132034
O           -2.55893623638305       -0.38065169807666        2.80181185941909
C           -3.29018211928881       -0.95081193177004        0.62436839761016
N           -4.40322038522129       -1.56491928464093        0.88153253434848
N           -4.93323858866776       -1.93805957223850       -0.31617805234393
C           -4.11118959722298       -1.52940089213645       -1.23254274213308
C           -4.23855519533573       -1.69434670774137       -2.69691972490530
O           -3.04964931326361       -0.89805455831143       -0.70435174154341
N            1.01090988161712        0.35796427854371       -0.29357317044054
H            3.27826527296250       -2.21242373245652       -3.92693316100502
H            3.05210195813408       -3.37029448026527       -2.59080688214770
H            4.68662463104472       -2.72925187194348       -2.94682559935471
H            1.91017520619693        2.46735831776668        2.08250040478436
H            0.80793265064598        2.84545505591836       -0.95260842450851
H            0.01799423591096        3.42490810059861        0.52368799905063
H           -0.81696354344148        2.26620420947880       -0.53281083061760
H            0.14601432658700        2.46824642468702        3.10849661957103
H           -1.22561116023609        1.43557183274595        3.51591481402597
H           -1.35591738814743        2.57874684600420        2.17373869007004
H            1.41658234612237        0.13413071677837        3.04481021811071
H            0.92578235673422       -1.04576545953241        1.81395656143512
H           -0.10882656285478       -0.74836628093698        3.22574599919788
H           -1.14434696580728        0.07613938989409        0.01655508294293
H           -5.23399447856848       -2.05908183147481       -2.93824996958323
H           -3.49721765784118       -2.40760068062497       -3.05780626266998
H           -4.06276811120511       -0.74256073768381       -3.19592376281239
