42
 energy: -83.639252361249 gnorm: 0.000430793231 xtb: 6.5.1 (579679a)
C            6.81096405628469       -1.43323210046094       -0.57267065300285
O            5.71265460879564       -0.80642079827894        0.06712828292072
C            4.57727600507761       -0.69455898653131       -0.68081499920508
O            4.55023582413012       -1.14170945575000       -1.82475209863900
C            3.47531283180503       -0.02113337981607       -0.02022232514819
N            2.34623331088801        0.07746906105413       -0.82238831450990
C            1.29186477430227        0.65718175002974       -0.38131242586034
C            0.06807216335426        0.86716530927788       -1.25127019295989
C            0.19835418474926        2.25158080075023       -1.90885297817222
C           -0.00263544264049       -0.21666118819540       -2.33755409451342
N           -1.11792316427801        0.90262708607117       -0.39929677591968
C           -1.50592066292937       -0.35855380810000        0.21777870065371
O           -0.61204715354241       -1.21152483681371        0.49173054492499
C           -2.86311224769058       -0.54116008520060        0.32600166859672
O           -3.78740489607610        0.54787050351889        0.19745204167227
C           -4.79323014705616        0.23435961299815        1.01834391697023
C           -5.92214986462733        1.19921131591031        1.14796670317519
N           -4.72065186204421       -0.87909137634359        1.64143803575114
N           -3.48928752283961       -1.51448855026925        1.22648138469743
C           -3.87173718984594       -2.75053234287306        0.52162089202110
N            1.24419688004196        1.22613706017928        0.87232215642148
C            2.27239888051307        1.20253856203253        1.76444104665669
O            2.14804104266884        1.74081623413876        2.86879876119327
C            3.52897513989453        0.50291615177328        1.29729059943115
O            4.50380046395532        0.44528989353394        2.07789465146133
H            6.56456639378785       -2.46099982416941       -0.85949798248456
H            7.63664296612176       -1.44036982968173        0.13817818228336
H            7.10565224286287       -0.88153735270331       -1.47141774686138
H           -0.65226244920906        2.43857003463103       -2.56220489202670
H            0.22714456667456        3.02652421431943       -1.14348479113214
H            1.11245078325459        2.30423823220412       -2.49969605963996
H           -0.88220519862619       -0.06466914951407       -2.96091055341401
H           -0.05172432601099       -1.20643930663921       -1.88322520707161
H            0.88926434342899       -0.16288782941669       -2.96218806725185
H           -1.89946897356442        1.31709092322009       -0.89139376683801
H           -6.36250833848477        1.38512454633602        0.16907590245734
H           -6.68057454738414        0.79450482973699        1.81376848646418
H           -5.56364982520549        2.15019128872965        1.54176571929412
H           -4.43500466843990       -3.38354978440067        1.20660536105431
H           -2.95708877492421       -3.25970903831750        0.21917585664275
H           -4.48188699756082       -2.53642143319109       -0.36145579687127
H            0.38837479038438        1.69423804621778        1.14004082677501
