      -----------------------------------------------------------      
     |                   =====================                   |     
     |                           x T B                           |     
     |                   =====================                   |     
     |                         S. Grimme                         |     
     |          Mulliken Center for Theoretical Chemistry        |     
     |                    University of Bonn                     |     
      -----------------------------------------------------------      

   * xtb version 6.5.1 (579679a) compiled by 'ehlert@majestix' on 2022-07-11

   xtb is free software: you can redistribute it and/or modify it under
   the terms of the GNU Lesser General Public License as published by
   the Free Software Foundation, either version 3 of the License, or
   (at your option) any later version.
   
   xtb is distributed in the hope that it will be useful,
   but WITHOUT ANY WARRANTY; without even the implied warranty of
   MERCHANTABILITY or FITNESS FOR A PARTICULAR PURPOSE.  See the
   GNU Lesser General Public License for more details.
   
   Cite this work as:
   * C. Bannwarth, E. Caldeweyher, S. Ehlert, A. Hansen, P. Pracht,
     J. Seibert, S. Spicher, S. Grimme, WIREs Comput. Mol. Sci., 2020, 11,
     e01493. DOI: 10.1002/wcms.1493
   
   for GFN2-xTB:
   * C. Bannwarth, S. Ehlert and S. Grimme., J. Chem. Theory Comput., 2019,
     15, 1652-1671. DOI: 10.1021/acs.jctc.8b01176
   for GFN1-xTB:
   * S. Grimme, C. Bannwarth, P. Shushkov, J. Chem. Theory Comput., 2017,
     13, 1989-2009. DOI: 10.1021/acs.jctc.7b00118
   for GFN0-xTB:
   * P. Pracht, E. Caldeweyher, S. Ehlert, S. Grimme, ChemRxiv, 2019, preprint.
     DOI: 10.26434/chemrxiv.8326202.v1
   for GFN-FF:
   * S. Spicher and S. Grimme, Angew. Chem. Int. Ed., 2020, 59, 15665-15673.
     DOI: 10.1002/anie.202004239
   
   for ALPB and GBSA implicit solvation:
   * S. Ehlert, M. Stahn, S. Spicher, S. Grimme, J. Chem. Theory Comput.,
     2021, 17, 4250-4261. DOI: 10.1021/acs.jctc.1c00471
   
   for DFT-D4:
   * E. Caldeweyher, C. Bannwarth and S. Grimme, J. Chem. Phys., 2017,
     147, 034112. DOI: 10.1063/1.4993215
   * E. Caldeweyher, S. Ehlert, A. Hansen, H. Neugebauer, S. Spicher,
     C. Bannwarth and S. Grimme, J. Chem. Phys., 2019, 150, 154122.
     DOI: 10.1063/1.5090222
   * E. Caldeweyher, J.-M. Mewes, S. Ehlert and S. Grimme, Phys. Chem. Chem. Phys.
     2020, 22, 8499-8512. DOI: 10.1039/D0CP00502A
   
   for sTDA-xTB:
   * S. Grimme and C. Bannwarth, J. Chem. Phys., 2016, 145, 054103.
     DOI: 10.1063/1.4959605
   
   in the mass-spec context:
   * V. Asgeirsson, C. Bauer and S. Grimme, Chem. Sci., 2017, 8, 4879.
     DOI: 10.1039/c7sc00601b
   * J. Koopman and S. Grimme, ACS Omega 2019, 4, 12, 15120-15133.
     DOI: 10.1021/acsomega.9b02011
   
   for metadynamics refer to:
   * S. Grimme, J. Chem. Theory Comput., 2019, 155, 2847-2862
     DOI: 10.1021/acs.jctc.9b00143
   
   for SPH calculations refer to:
   * S. Spicher and S. Grimme, J. Chem. Theory Comput., 2021, 17, 1701-1714
     DOI: 10.1021/acs.jctc.0c01306
   
   with help from (in alphabetical order)
   P. Atkinson, C. Bannwarth, F. Bohle, G. Brandenburg, E. Caldeweyher
   M. Checinski, S. Dohm, S. Ehlert, S. Ehrlich, I. Gerasimov, C. Hölzer
   A. Katbashev, J. Koopman, C. Lavigne, S. Lehtola, F. März, M. Müller,
   F. Musil, H. Neugebauer, J. Pisarek, C. Plett, P. Pracht, F. Pultar,
   J. Seibert, P. Shushkov, S. Spicher, M. Stahn, M. Steiner, T. Strunk,
   J. Stückrath, T. Rose, and J. Unsleber
   
 * started run on 2023/06/20 at 15:14:58.451     

           -------------------------------------------------
          |                Calculation Setup                |
           -------------------------------------------------

          program call               : /lustre/hpc/kemi/ree/PhD/git/ReactivityQM/dep/xtb-6.5.1/bin/xtb --gfn 1 /lustre/hpc/kemi/ree/PhD/git/ReactivityQM/calculations/R03/reac01prodN06/conf06/R03_reac01prodN06_conf06_gfn1.xyz --opt --vfukui --chrg 1 --uhf 0 --alpb DMSO
          hostname                   : node068
          coordinate file            : /lustre/hpc/kemi/ree/PhD/git/ReactivityQM/calculations/R03/reac01prodN06/conf06/R03_reac01prodN06_conf06_gfn1.xyz
          omp threads                :                     1

   ID    Z sym.   atoms
    1    6 C      1, 3-7, 9, 10
    2    9 F      2
    3    7 N      8
    4    1 H      11-21

           -------------------------------------------------
          |                 G F N 1 - x T B                 |
           -------------------------------------------------

        Reference                      10.1021/acs.jctc.7b00118
      * Hamiltonian:
        H0-scaling (s, p, d)           1.850000    2.250000    2.000000
        zeta-weighting                 0.000000
      * Dispersion:
        s8                             2.400000
        a1                             0.630000
        a2                             5.000000
        s9                             0.000000
      * Repulsion:
        kExp                           1.500000
        rExp                           1.000000
      * Coulomb:
        alpha                          2.000000
        third order                    atomic
        anisotropic                    false
      * Halogen bond correction:
        rad-scale                      1.300000
        damping                        0.440000

      * Solvation model:               ALPB
        Solvent                        DMSO
        Parameter file                 internal GFN1-xTB/ALPB
        Dielectric constant                4.6680E+01
        Reference state                gsolv [1 M gas/solution]
        Free energy shift                  7.6243E-03 Eh       4.7843E+00 kcal/mol
        Temperature                        2.9815E+02 K
        Density                            1.1000E+00 kg/L
        Solvent mass                       7.8130E+01 g/mol
        Interaction kernel             P16
        Born radius scaling (c1)           1.7672E+00
        Born radii integrator          GBOBC
        Born offset                        0.0000E+00 a0       0.0000E+00 AA
        H-bond correction              true
        Ion screening                  false
        Surface tension                    1.0000E-05 Eh       1.5569E+01 dyn/cm
        Grid points                               230 per atom

          ...................................................
          :                      SETUP                      :
          :.................................................:
          :  # basis functions                  62          :
          :  # atomic orbitals                  62          :
          :  # shells                           42          :
          :  # electrons                        54          :
          :  # halogen bonds                     0          :
          :  max. iterations                   250          :
          :  Hamiltonian                  GFN1-xTB          :
          :  restarted?                      false          :
          :  GBSA solvation                   true          :
          :  PC potential                    false          :
          :  electronic temp.          300.0000000     K    :
          :  accuracy                    1.0000000          :
          :  -> integral cutoff          0.2500000E+02      :
          :  -> integral neglect         0.1000000E-07      :
          :  -> SCF convergence          0.1000000E-05 Eh   :
          :  -> wf. convergence          0.2000000E-04 e    :
          :  Broyden damping             0.4000000          :
          ...................................................

 iter      E             dE          RMSdq      gap      omega  full diag
   1    -31.0832207 -0.310832E+02  0.841E+00    3.75       0.0  T
   2    -31.1319494 -0.487287E-01  0.502E+00    2.73       1.0  T
   3    -31.1279268  0.402258E-02  0.869E-01    2.42       1.0  T
   4    -31.1360964 -0.816962E-02  0.168E-01    2.32       1.0  T
   5    -31.1364620 -0.365536E-03  0.273E-02    2.42       1.0  T
   6    -31.1364767 -0.147025E-04  0.668E-03    2.42       3.3  T
   7    -31.1364769 -0.241483E-06  0.149E-03    2.42      14.7  T
   8    -31.1364769 -0.491653E-08  0.469E-04    2.42      46.5  T
   9    -31.1364769 -0.733319E-09  0.678E-05    2.42     321.7  T
  10    -31.1364769 -0.466365E-10  0.249E-05    2.42     875.6  T

   *** convergence criteria satisfied after 10 iterations ***

         #    Occupation            Energy/Eh            Energy/eV
      -------------------------------------------------------------
         1        2.0000           -0.9820055             -26.7217
       ...           ...                  ...                  ...
        21        2.0000           -0.5413197             -14.7301
        22        2.0000           -0.5325104             -14.4903
        23        2.0000           -0.5100938             -13.8804
        24        2.0000           -0.5042625             -13.7217
        25        2.0000           -0.4913536             -13.3704
        26        2.0000           -0.4824621             -13.1285
        27        2.0000           -0.4072477             -11.0818 (HOMO)
        28                         -0.3181674              -8.6578 (LUMO)
        29                         -0.3091936              -8.4136
        30                         -0.3035152              -8.2591
        31                         -0.2419996              -6.5851
        32                         -0.1827892              -4.9739
       ...                                ...                  ...
        62                          0.6237337              16.9727
      -------------------------------------------------------------
                  HL-Gap            0.0890803 Eh            2.4240 eV
             Fermi-level           -0.3627076 Eh           -9.8698 eV

 SCC (total)                   0 d,  0 h,  0 min,  0.035 sec
 SCC setup                      ...        0 min,  0.001 sec (  2.053%)
 Dispersion                     ...        0 min,  0.000 sec (  0.256%)
 classical contributions        ...        0 min,  0.000 sec (  0.098%)
 integral evaluation            ...        0 min,  0.008 sec ( 23.050%)
 iterations                     ...        0 min,  0.009 sec ( 25.925%)
 molecular gradient             ...        0 min,  0.017 sec ( 47.949%)
 printout                       ...        0 min,  0.000 sec (  0.614%)

         :::::::::::::::::::::::::::::::::::::::::::::::::::::
         ::                     SUMMARY                     ::
         :::::::::::::::::::::::::::::::::::::::::::::::::::::
         :: total energy             -30.718321944290 Eh    ::
         :: total w/o Gsasa/hb       -30.702966252759 Eh    ::
         :: gradient norm              0.070523226326 Eh/a0 ::
         :: HOMO-LUMO gap              2.423997437047 eV    ::
         ::.................................................::
         :: SCC energy               -31.136476909037 Eh    ::
         :: -> electrostatic           0.126469537790 Eh    ::
         :: -> Gsolv                  -0.082688704902 Eh    ::
         ::    -> Gelec               -0.067333013371 Eh    ::
         ::    -> Gsasa               -0.015478400166 Eh    ::
         ::    -> Ghb                 -0.007501570370 Eh    ::
         ::    -> Gshift               0.007624279005 Eh    ::
         :: repulsion energy           0.427587325305 Eh    ::
         :: dispersion energy         -0.009432360558 Eh    ::
         :: halogen bond corr.         0.000000000000 Eh    ::
         :: add. restraining           0.000000000000 Eh    ::
         :: total charge               1.000000000000 e     ::
         :::::::::::::::::::::::::::::::::::::::::::::::::::::

      ----------------------------------------------------------- 
     |                   =====================                   |
     |                        A N C O P T                        |
     |                   =====================                   |
     |               Approximate Normal Coordinate               |
     |                Rational Function Optimizer                |
      ----------------------------------------------------------- 

          ...................................................
          :                      SETUP                      :
          :.................................................:
          :   optimization level            normal          :
          :   max. optcycles                   200          :
          :   ANC micro-cycles                  20          :
          :   degrees of freedom                57          :
          :.................................................:
          :   RF solver                   davidson          :
          :   write xtbopt.log                true          :
          :   linear?                        false          :
          :   energy convergence         0.5000000E-05 Eh   :
          :   grad. convergence          0.1000000E-02 Eh/α :
          :   maximium RF displ.         1.0000000          :
          :   Hlow (freq-cutoff)         0.1000000E-01      :
          :   Hmax (freq-cutoff)         5.0000000          :
          :   S6 in model hess.         20.0000000          :
          ...................................................

generating ANC from model Hessian ...
Using Lindh-Hessian (1995)
 Shifting diagonal of input Hessian by   9.052108200904317E-003
 Lowest  eigenvalues of input Hessian
    0.000000    0.000000    0.000000    0.000000    0.000000    0.000000
    0.010000    0.010748    0.012480    0.013146    0.014362    0.018955
    0.020789    0.025139    0.028158    0.035056    0.039003    0.043559
 Highest eigenvalues
    1.505359    1.589240    1.625925    1.927061    2.016324    2.052248
 

........................................................................
.............................. CYCLE    1 ..............................
........................................................................
   1    -31.1364769 -0.311365E+02  0.782E-06    2.42       0.0  T
   2    -31.1364769 -0.124345E-12  0.376E-06    2.42    5806.5  T
   3    -31.1364769  0.177636E-13  0.426E-07    2.42   51183.9  T
     SCC iter.                  ...        0 min,  0.003 sec
     gradient                   ...        0 min,  0.016 sec
 * total energy  :   -30.7183219 Eh     change       -0.2952305E-11 Eh
   gradient norm :     0.0705231 Eh/α   predicted     0.0000000E+00 (-100.00%)
   displ. norm   :     0.3092006 α      lambda       -0.1604109E-01
   maximum displ.:     0.1627028 α      in ANC's #28, #31, #13, ...

........................................................................
.............................. CYCLE    2 ..............................
........................................................................
   1    -31.1380032 -0.311380E+02  0.843E-02    2.59       0.0  T
   2    -31.1380630 -0.597934E-04  0.498E-02    2.60       1.0  T
   3    -31.1380647 -0.169985E-05  0.230E-02    2.61       1.0  T
   4    -31.1380664 -0.171643E-05  0.398E-03    2.61       5.5  T
   5    -31.1380666 -0.132256E-06  0.823E-04    2.61      26.5  T
   6    -31.1380666 -0.127019E-08  0.183E-04    2.61     119.4  T
   7    -31.1380666 -0.109637E-09  0.345E-05    2.61     633.4  T
     SCC iter.                  ...        0 min,  0.005 sec
     gradient                   ...        0 min,  0.010 sec
 * total energy  :   -30.7295474 Eh     change       -0.1122542E-01 Eh
   gradient norm :     0.0324870 Eh/α   predicted    -0.8787856E-02 ( -21.71%)
   displ. norm   :     0.2954589 α      lambda       -0.5750427E-02
   maximum displ.:     0.1283543 α      in ANC's #14, #13, #6, ...

........................................................................
.............................. CYCLE    3 ..............................
........................................................................
   1    -31.1383129 -0.311383E+02  0.749E-02    2.79       0.0  T
   2    -31.1384287 -0.115761E-03  0.395E-02    2.80       1.0  T
   3    -31.1384321 -0.341232E-05  0.214E-02    2.80       1.0  T
   4    -31.1384325 -0.358445E-06  0.633E-03    2.80       3.4  T
   5    -31.1384327 -0.192277E-06  0.709E-04    2.80      30.8  T
   6    -31.1384327 -0.303385E-08  0.177E-04    2.80     123.5  T
   7    -31.1384327 -0.838547E-10  0.437E-05    2.80     499.2  T
     SCC iter.                  ...        0 min,  0.004 sec
     gradient                   ...        0 min,  0.014 sec
 * total energy  :   -30.7328866 Eh     change       -0.3339283E-02 Eh
   gradient norm :     0.0108928 Eh/α   predicted    -0.3127393E-02 (  -6.35%)
   displ. norm   :     0.1556603 α      lambda       -0.6249230E-03
   maximum displ.:     0.0798431 α      in ANC's #5, #1, #13, ...

........................................................................
.............................. CYCLE    4 ..............................
........................................................................
   1    -31.1404409 -0.311404E+02  0.217E-02    2.84       0.0  T
   2    -31.1404557 -0.148019E-04  0.985E-03    2.84       2.2  T
   3    -31.1404561 -0.380645E-06  0.534E-03    2.84       4.1  T
   4    -31.1404561 -0.168788E-07  0.237E-03    2.84       9.2  T
   5    -31.1404561 -0.156065E-07  0.223E-04    2.84      97.9  T
   6    -31.1404561 -0.708813E-09  0.644E-05    2.84     339.0  T
   7    -31.1404561 -0.132054E-10  0.253E-05    2.84     863.4  T
     SCC iter.                  ...        0 min,  0.006 sec
     gradient                   ...        0 min,  0.016 sec
 * total energy  :   -30.7333262 Eh     change       -0.4395389E-03 Eh
   gradient norm :     0.0071091 Eh/α   predicted    -0.3200467E-03 ( -27.19%)
   displ. norm   :     0.1918497 α      lambda       -0.3637007E-03
   maximum displ.:     0.1213944 α      in ANC's #1, #5, #4, ...

........................................................................
.............................. CYCLE    5 ..............................
........................................................................
   1    -31.1422869 -0.311423E+02  0.145E-02    2.85       0.0  T
   2    -31.1422919 -0.501472E-05  0.761E-03    2.85       2.9  T
   3    -31.1422920 -0.129573E-06  0.392E-03    2.85       5.6  T
   4    -31.1422920 -0.747830E-08  0.139E-03    2.85      15.7  T
   5    -31.1422921 -0.766357E-08  0.173E-04    2.85     126.5  T
   6    -31.1422921 -0.336289E-09  0.588E-05    2.85     371.3  T
     SCC iter.                  ...        0 min,  0.005 sec
     gradient                   ...        0 min,  0.017 sec
 * total energy  :   -30.7335804 Eh     change       -0.2542095E-03 Eh
   gradient norm :     0.0052477 Eh/α   predicted    -0.1886677E-03 ( -25.78%)
   displ. norm   :     0.1908698 α      lambda       -0.2152880E-03
   maximum displ.:     0.1293607 α      in ANC's #1, #5, #4, ...

........................................................................
.............................. CYCLE    6 ..............................
........................................................................
   1    -31.1429880 -0.311430E+02  0.772E-03    2.85       0.0  T
   2    -31.1429886 -0.536184E-06  0.462E-03    2.85       4.7  T
   3    -31.1429886 -0.198876E-07  0.174E-03    2.85      12.5  T
   4    -31.1429886 -0.275724E-08  0.394E-04    2.85      55.4  T
   5    -31.1429886 -0.744674E-09  0.926E-05    2.85     235.5  T
   6    -31.1429886 -0.431619E-10  0.388E-05    2.85     562.0  T
     SCC iter.                  ...        0 min,  0.005 sec
     gradient                   ...        0 min,  0.017 sec
 * total energy  :   -30.7337464 Eh     change       -0.1660298E-03 Eh
   gradient norm :     0.0049583 Eh/α   predicted    -0.1115761E-03 ( -32.80%)
   displ. norm   :     0.2348662 α      lambda       -0.2165568E-03
   maximum displ.:     0.1600184 α      in ANC's #1, #4, #5, ...

........................................................................
.............................. CYCLE    7 ..............................
........................................................................
   1    -31.1429417 -0.311429E+02  0.670E-03    2.84       0.0  T
   2    -31.1429419 -0.185952E-06  0.330E-03    2.85       6.6  T
   3    -31.1429419 -0.951938E-08  0.132E-03    2.85      16.5  T
   4    -31.1429419 -0.436803E-08  0.220E-04    2.85      99.0  T
   5    -31.1429419 -0.335966E-09  0.106E-04    2.85     205.9  T
   6    -31.1429419 -0.321094E-10  0.236E-05    2.85     923.5  T
     SCC iter.                  ...        0 min,  0.003 sec
     gradient                   ...        0 min,  0.010 sec
 * total energy  :   -30.7339204 Eh     change       -0.1740164E-03 Eh
   gradient norm :     0.0049197 Eh/α   predicted    -0.1142517E-03 ( -34.34%)
   displ. norm   :     0.3019408 α      lambda       -0.2321808E-03
   maximum displ.:     0.2069446 α      in ANC's #1, #4, #5, ...

........................................................................
.............................. CYCLE    8 ..............................
........................................................................
   1    -31.1420555 -0.311421E+02  0.746E-03    2.84       0.0  T
   2    -31.1420561 -0.668130E-06  0.265E-03    2.84       8.2  T
   3    -31.1420561 -0.180356E-07  0.126E-03    2.84      17.4  T
   4    -31.1420561 -0.230524E-08  0.303E-04    2.84      72.0  T
   5    -31.1420561 -0.432092E-09  0.116E-04    2.84     188.5  T
   6    -31.1420561 -0.595257E-10  0.331E-05    2.84     658.8  T
     SCC iter.                  ...        0 min,  0.003 sec
     gradient                   ...        0 min,  0.010 sec
 * total energy  :   -30.7341089 Eh     change       -0.1884355E-03 Eh
   gradient norm :     0.0062101 Eh/α   predicted    -0.1266772E-03 ( -32.77%)
   displ. norm   :     0.2816362 α      lambda       -0.2109662E-03
   maximum displ.:     0.1985691 α      in ANC's #1, #4, #6, ...

........................................................................
.............................. CYCLE    9 ..............................
........................................................................
   1    -31.1414403 -0.311414E+02  0.651E-03    2.84       0.0  T
   2    -31.1414411 -0.849321E-06  0.205E-03    2.84      10.7  T
   3    -31.1414411 -0.172970E-07  0.103E-03    2.85      21.3  T
   4    -31.1414411 -0.138428E-08  0.268E-04    2.85      81.5  T
   5    -31.1414411 -0.133777E-09  0.697E-05    2.85     313.0  T
   6    -31.1414411 -0.275406E-10  0.257E-05    2.85     849.8  T
     SCC iter.                  ...        0 min,  0.003 sec
     gradient                   ...        0 min,  0.010 sec
 * total energy  :   -30.7342843 Eh     change       -0.1754044E-03 Eh
   gradient norm :     0.0069122 Eh/α   predicted    -0.1138516E-03 ( -35.09%)
   displ. norm   :     0.3267203 α      lambda       -0.2356172E-03
   maximum displ.:     0.2302835 α      in ANC's #1, #4, #6, ...

........................................................................
.............................. CYCLE   10 ..............................
........................................................................
   1    -31.1409059 -0.311409E+02  0.704E-03    2.85       0.0  T
   2    -31.1409068 -0.854087E-06  0.281E-03    2.86       7.8  T
   3    -31.1409068 -0.215693E-07  0.148E-03    2.86      14.7  T
   4    -31.1409068 -0.124991E-08  0.271E-04    2.86      80.5  T
   5    -31.1409068 -0.586077E-09  0.110E-04    2.86     198.4  T
   6    -31.1409068 -0.798259E-10  0.317E-05    2.86     687.6  T
     SCC iter.                  ...        0 min,  0.003 sec
     gradient                   ...        0 min,  0.010 sec
 * total energy  :   -30.7344553 Eh     change       -0.1709825E-03 Eh
   gradient norm :     0.0065122 Eh/α   predicted    -0.1303851E-03 ( -23.74%)
   displ. norm   :     0.2762039 α      lambda       -0.1647757E-03
   maximum displ.:     0.1934376 α      in ANC's #1, #4, #6, ...

........................................................................
.............................. CYCLE   11 ..............................
........................................................................
   1    -31.1414158 -0.311414E+02  0.615E-03    2.87       0.0  T
   2    -31.1414161 -0.377104E-06  0.309E-03    2.87       7.1  T
   3    -31.1414162 -0.125150E-07  0.143E-03    2.87      15.3  T
   4    -31.1414162 -0.721023E-09  0.205E-04    2.88     106.3  T
   5    -31.1414162 -0.663313E-09  0.916E-05    2.88     238.3  T
   6    -31.1414162 -0.469775E-10  0.268E-05    2.88     814.3  T
     SCC iter.                  ...        0 min,  0.003 sec
     gradient                   ...        0 min,  0.010 sec
 * total energy  :   -30.7345833 Eh     change       -0.1279962E-03 Eh
   gradient norm :     0.0041500 Eh/α   predicted    -0.8867419E-04 ( -30.72%)
   displ. norm   :     0.3548617 α      lambda       -0.1528863E-03
   maximum displ.:     0.2426781 α      in ANC's #1, #4, #3, ...

........................................................................
.............................. CYCLE   12 ..............................
........................................................................
   1    -31.1415864 -0.311416E+02  0.540E-03    2.89       0.0  T
   2    -31.1415866 -0.210210E-06  0.296E-03    2.89       7.4  T
   3    -31.1415866 -0.112469E-07  0.109E-03    2.89      20.0  T
   4    -31.1415866 -0.110194E-08  0.213E-04    2.89     102.2  T
   5    -31.1415866 -0.288846E-09  0.727E-05    2.89     300.3  T
   6    -31.1415866 -0.165166E-10  0.225E-05    2.89     967.9  T
     SCC iter.                  ...        0 min,  0.003 sec
     gradient                   ...        0 min,  0.009 sec
 * total energy  :   -30.7346885 Eh     change       -0.1052408E-03 Eh
   gradient norm :     0.0041260 Eh/α   predicted    -0.8607209E-04 ( -18.21%)
   displ. norm   :     0.2093611 α      lambda       -0.9037882E-04
   maximum displ.:     0.1394227 α      in ANC's #4, #1, #5, ...

........................................................................
.............................. CYCLE   13 ..............................
........................................................................
   1    -31.1439860 -0.311440E+02  0.735E-03    2.90       0.0  T
   2    -31.1439861 -0.105588E-06  0.403E-03    2.90       5.4  T
   3    -31.1439861 -0.400345E-08  0.921E-04    2.90      23.7  T
   4    -31.1439861 -0.207307E-08  0.230E-04    2.90      94.8  T
   5    -31.1439861 -0.383217E-09  0.586E-05    2.90     372.2  T
   6    -31.1439861 -0.207088E-10  0.150E-05    2.90    1458.6  T
     SCC iter.                  ...        0 min,  0.003 sec
     gradient                   ...        0 min,  0.009 sec
 * total energy  :   -30.7347413 Eh     change       -0.5282788E-04 Eh
   gradient norm :     0.0036357 Eh/α   predicted    -0.4717212E-04 ( -10.71%)
   displ. norm   :     0.4118038 α      lambda       -0.9425163E-04
   maximum displ.:     0.2880223 α      in ANC's #4, #1, #3, ...

........................................................................
.............................. CYCLE   14 ..............................
........................................................................
   1    -31.1413836 -0.311414E+02  0.828E-03    2.91       0.0  T
   2    -31.1413838 -0.199454E-06  0.443E-03    2.91       4.9  T
   3    -31.1413838 -0.111612E-07  0.135E-03    2.91      16.1  T
   4    -31.1413838 -0.406921E-08  0.305E-04    2.91      71.6  T
   5    -31.1413838 -0.356575E-09  0.892E-05    2.91     244.7  T
   6    -31.1413838 -0.341807E-10  0.187E-05    2.91    1163.9  T
     SCC iter.                  ...        0 min,  0.003 sec
     gradient                   ...        0 min,  0.009 sec
 * total energy  :   -30.7347546 Eh     change       -0.1325082E-04 Eh
   gradient norm :     0.0067625 Eh/α   predicted    -0.5511948E-04 ( 315.97%)
   displ. norm   :     0.1423738 α      lambda       -0.8861706E-04
   maximum displ.:     0.1030091 α      in ANC's #1, #4, #3, ...

........................................................................
.............................. CYCLE   15 ..............................
........................................................................
   1    -31.1437697 -0.311438E+02  0.842E-03    2.90       0.0  T
   2    -31.1437701 -0.404972E-06  0.464E-03    2.90       4.7  T
   3    -31.1437701 -0.692882E-08  0.149E-03    2.90      14.7  T
   4    -31.1437701 -0.154215E-08  0.229E-04    2.90      95.4  T
   5    -31.1437701 -0.444480E-09  0.604E-05    2.90     361.0  T
   6    -31.1437701 -0.318146E-10  0.205E-05    2.90    1063.5  T
     SCC iter.                  ...        0 min,  0.003 sec
     gradient                   ...        0 min,  0.010 sec
 * total energy  :   -30.7347997 Eh     change       -0.4510950E-04 Eh
   gradient norm :     0.0029705 Eh/α   predicted    -0.4521370E-04 (   0.23%)
   displ. norm   :     0.0694538 α      lambda       -0.3663317E-04
   maximum displ.:     0.0549650 α      in ANC's #4, #2, #1, ...

........................................................................
.............................. CYCLE   16 ..............................
........................................................................
   1    -31.1441302 -0.311441E+02  0.392E-03    2.90       0.0  T
   2    -31.1441303 -0.977452E-07  0.197E-03    2.90      11.1  T
   3    -31.1441303 -0.258190E-08  0.824E-04    2.90      26.5  T
   4    -31.1441303 -0.564281E-09  0.117E-04    2.90     186.1  T
   5    -31.1441303 -0.234586E-09  0.416E-05    2.90     524.3  T
     SCC iter.                  ...        0 min,  0.003 sec
     gradient                   ...        0 min,  0.010 sec
 * total energy  :   -30.7348191 Eh     change       -0.1943815E-04 Eh
   gradient norm :     0.0023035 Eh/α   predicted    -0.1840577E-04 (  -5.31%)
   displ. norm   :     0.1527802 α      lambda       -0.3854583E-04
   maximum displ.:     0.1178722 α      in ANC's #4, #1, #3, ...

........................................................................
.............................. CYCLE   17 ..............................
........................................................................
   1    -31.1438311 -0.311438E+02  0.588E-03    2.89       0.0  T
   2    -31.1438314 -0.312604E-06  0.321E-03    2.90       6.8  T
   3    -31.1438314 -0.107651E-07  0.124E-03    2.90      17.6  T
   4    -31.1438314 -0.989516E-09  0.207E-04    2.90     105.6  T
   5    -31.1438314 -0.255415E-09  0.678E-05    2.90     321.8  T
   6    -31.1438314 -0.222187E-10  0.294E-05    2.90     741.2  T
     SCC iter.                  ...        0 min,  0.003 sec
     gradient                   ...        0 min,  0.010 sec
 * total energy  :   -30.7348454 Eh     change       -0.2625996E-04 Eh
   gradient norm :     0.0019704 Eh/α   predicted    -0.1972499E-04 ( -24.89%)
   displ. norm   :     0.1773974 α      lambda       -0.1938993E-04
   maximum displ.:     0.1414542 α      in ANC's #4, #1, #2, ...

........................................................................
.............................. CYCLE   18 ..............................
........................................................................
   1    -31.1430217 -0.311430E+02  0.448E-03    2.90       0.0  T
   2    -31.1430218 -0.157708E-06  0.222E-03    2.90       9.8  T
   3    -31.1430218 -0.721765E-08  0.914E-04    2.90      23.9  T
   4    -31.1430218 -0.827178E-09  0.165E-04    2.90     132.2  T
   5    -31.1430218 -0.151605E-09  0.630E-05    2.90     346.2  T
     SCC iter.                  ...        0 min,  0.003 sec
     gradient                   ...        0 min,  0.010 sec
 * total energy  :   -30.7348608 Eh     change       -0.1537372E-04 Eh
   gradient norm :     0.0027450 Eh/α   predicted    -0.9833135E-05 ( -36.04%)
   displ. norm   :     0.0458907 α      lambda       -0.1746692E-04
   maximum displ.:     0.0336018 α      in ANC's #1, #3, #2, ...

........................................................................
.............................. CYCLE   19 ..............................
........................................................................
   1    -31.1435320 -0.311435E+02  0.246E-03    2.90       0.0  T
   2    -31.1435321 -0.109914E-07  0.143E-03    2.90      15.2  T
   3    -31.1435321 -0.328455E-09  0.318E-04    2.90      68.6  T
   4    -31.1435321 -0.168786E-09  0.580E-05    2.90     376.2  T
   5    -31.1435321 -0.344471E-10  0.181E-05    2.90    1202.3  T
     SCC iter.                  ...        0 min,  0.003 sec
     gradient                   ...        0 min,  0.010 sec
 * total energy  :   -30.7348745 Eh     change       -0.1375763E-04 Eh
   gradient norm :     0.0020872 Eh/α   predicted    -0.8753442E-05 ( -36.37%)
   displ. norm   :     0.1116021 α      lambda       -0.2735623E-04
   maximum displ.:     0.0739305 α      in ANC's #4, #2, #3, ...

........................................................................
.............................. CYCLE   20 ..............................
........................................................................
   1    -31.1438559 -0.311439E+02  0.407E-03    2.90       0.0  T
   2    -31.1438560 -0.111250E-06  0.246E-03    2.90       8.9  T
   3    -31.1438560 -0.384436E-08  0.871E-04    2.90      25.1  T
   4    -31.1438560 -0.221914E-08  0.213E-04    2.90     102.4  T
   5    -31.1438560 -0.293944E-09  0.412E-05    2.90     529.4  T
   6    -31.1438560 -0.106475E-10  0.183E-05    2.90    1194.2  T
     SCC iter.                  ...        0 min,  0.003 sec
     gradient                   ...        0 min,  0.010 sec
 * total energy  :   -30.7348918 Eh     change       -0.1726770E-04 Eh
   gradient norm :     0.0011348 Eh/α   predicted    -0.1385143E-04 ( -19.78%)
   displ. norm   :     0.0886070 α      lambda        0.2361805E-05
   maximum displ.:     0.0581412 α      in ANC's #4, #2, #1, ...
 * RMSD in coord.:     0.7030956 α      energy gain  -0.1656984E-01 Eh

generating ANC from model Hessian ...
Using Lindh-Hessian (1995)
 Shifting diagonal of input Hessian by   8.812816049433328E-003
 Lowest  eigenvalues of input Hessian
    0.000000    0.000000    0.000000    0.000000    0.000000    0.000000
    0.010000    0.011437    0.012709    0.013534    0.015798    0.017593
    0.023136    0.023791    0.029513    0.035242    0.039300    0.055429
 Highest eigenvalues
    1.446985    1.593389    1.631952    1.882760    2.009147    2.045000
 

........................................................................
.............................. CYCLE   21 ..............................
........................................................................
   1    -31.1441042 -0.311441E+02  0.375E-03    2.90       0.0  T
   2    -31.1441042 -0.851041E-07  0.225E-03    2.90       9.7  T
   3    -31.1441042 -0.214817E-08  0.710E-04    2.90      30.7  T
   4    -31.1441042 -0.180147E-08  0.179E-04    2.90     121.7  T
   5    -31.1441042 -0.235431E-09  0.325E-05    2.90     670.6  T
     SCC iter.                  ...        0 min,  0.003 sec
     gradient                   ...        0 min,  0.009 sec
 * total energy  :   -30.7348872 Eh     change        0.4607548E-05 Eh
   gradient norm :     0.0025410 Eh/α   predicted     0.0000000E+00 (-100.00%)
   displ. norm   :     0.0160534 α      lambda       -0.1543025E-04
   maximum displ.:     0.0098302 α      in ANC's #7, #6, #1, ...

........................................................................
.............................. CYCLE   22 ..............................
........................................................................
   1    -31.1439630 -0.311440E+02  0.231E-03    2.90       0.0  T
   2    -31.1439630 -0.888437E-08  0.127E-03    2.90      17.2  T
   3    -31.1439630 -0.514895E-10  0.352E-04    2.90      62.1  T
   4    -31.1439630 -0.556682E-09  0.644E-05    2.90     338.8  T
   5    -31.1439630 -0.307949E-10  0.201E-05    2.90    1087.3  T
     SCC iter.                  ...        0 min,  0.002 sec
     gradient                   ...        0 min,  0.016 sec
 * total energy  :   -30.7348979 Eh     change       -0.1074532E-04 Eh
   gradient norm :     0.0010657 Eh/α   predicted    -0.7729523E-05 ( -28.07%)
   displ. norm   :     0.0297081 α      lambda       -0.6447336E-05
   maximum displ.:     0.0181230 α      in ANC's #7, #1, #6, ...

........................................................................
.............................. CYCLE   23 ..............................
........................................................................
   1    -31.1438578 -0.311439E+02  0.289E-03    2.90       0.0  T
   2    -31.1438578 -0.393060E-07  0.143E-03    2.90      15.3  T
   3    -31.1438578 -0.813358E-09  0.546E-04    2.90      40.0  T
   4    -31.1438578 -0.399261E-09  0.917E-05    2.90     238.1  T
   5    -31.1438578 -0.927010E-10  0.276E-05    2.90     791.6  T
     SCC iter.                  ...        0 min,  0.004 sec
     gradient                   ...        0 min,  0.016 sec
 * total energy  :   -30.7349023 Eh     change       -0.4347925E-05 Eh
   gradient norm :     0.0008555 Eh/α   predicted    -0.3226055E-05 ( -25.80%)
   displ. norm   :     0.0122528 α      lambda       -0.1609115E-05
   maximum displ.:     0.0085678 α      in ANC's #1, #3, #7, ...

   *** GEOMETRY OPTIMIZATION CONVERGED AFTER 23 ITERATIONS ***

------------------------------------------------------------------------
 total energy gain   :        -0.0165803 Eh      -10.4043 kcal/mol
 total RMSD          :         0.6993372 a0        0.3701 Å
 total power (kW/mol):        -1.8926803 (step)  -87.4551 (real)
------------------------------------------------------------------------

 ANCopt (total)                0 d,  0 h,  0 min,  0.498 sec
 optimizer setup                ...        0 min,  0.001 sec (  0.126%)
 model hessian                  ...        0 min,  0.007 sec (  1.422%)
 ANC generation                 ...        0 min,  0.001 sec (  0.196%)
 coordinate transformation      ...        0 min,  0.000 sec (  0.025%)
 single point calculation       ...        0 min,  0.485 sec ( 97.409%)
 optimization log               ...        0 min,  0.002 sec (  0.485%)
 hessian update                 ...        0 min,  0.000 sec (  0.029%)
 rational function              ...        0 min,  0.001 sec (  0.194%)

================
 final structure:
================
21
 xtb: 6.5.1 (579679a)
C            3.88584797942809        0.05490959192270       -0.23932075011389
F            2.76798989089412       -0.83022144021736       -0.43539800341576
C            1.34407337418984       -0.55532222923032       -0.18642509124529
C            0.60191675505410       -0.15801036791308       -1.26821938053613
C           -0.74959905650944        0.05510906031884       -1.02703466667496
C           -1.28801415952955       -0.12269999120614        0.24718436548288
C           -2.75978378470408        0.09780439616302        0.48395015841399
N           -3.32891745773156        0.95962623819342       -0.54562894354215
C           -0.46262007002005       -0.52279951612691        1.29917807291702
C            0.89363287046683       -0.74843961135293        1.09401093601503
H            3.92672848893264        0.25532388063256        0.82704523675310
H            4.73367664131983       -0.51876254754626       -0.60241251524243
H            3.67784462712953        0.94047131223854       -0.83362480704359
H            1.04188376711471       -0.02408129484631       -2.24591543591934
H           -1.39660013092930        0.37110670520228       -1.83770087866350
H           -3.26309374728690       -0.87424652862435        0.43697197440879
H           -2.91641306756630        0.50663155568120        1.49148723997490
H           -3.05112647102337        1.91418988146048       -0.36209301291821
H           -4.33672866763420        0.91611487573563       -0.48213328163626
H           -0.87256205778604       -0.65954772196227        2.29255118689085
H            1.55186427619325       -1.05715724851874        1.89352859609770
 
 Bond Distances (Angstroems)
 ---------------------------
C1-F2=1.4393         C1-H11=1.0858        C1-H12=1.0862        C1-H13=1.0866        F2-C1=1.4393         F2-C3=1.4714         
C3-F2=1.4714         C3-C4=1.3707         C3-C10=1.3710        C4-C3=1.3707         C4-C5=1.3893         C4-H14=1.0805        
C5-C4=1.3893         C5-C6=1.3947         C5-H15=1.0843        C6-C5=1.3947         C6-C7=1.5069         C6-C9=1.3957         
C7-C6=1.5069         C7-N8=1.4583         C7-H16=1.0956        C7-H17=1.0985        N8-C7=1.4583         N8-H18=1.0110        
N8-H19=1.0107        C9-C6=1.3957         C9-C10=1.3901        C9-H20=1.0833        C10-C3=1.3710        C10-C9=1.3901        
C10-H21=1.0806       H11-C1=1.0858        H12-C1=1.0862        H13-C1=1.0866        H14-C4=1.0805        H15-C5=1.0843        
H16-C7=1.0956        H17-C7=1.0985        H18-N8=1.0110        H19-N8=1.0107        H20-C9=1.0833        H21-C10=1.0806       
 C  H  Rav=1.0868 sigma=0.0059  Rmin=1.0805  Rmax=1.0985     9
 C  C  Rav=1.4026 sigma=0.0436  Rmin=1.3707  Rmax=1.5069     7
 N  H  Rav=1.0109 sigma=0.0001  Rmin=1.0107  Rmax=1.0110     2
 N  C  Rav=1.4583 sigma=0.0000  Rmin=1.4583  Rmax=1.4583     1
 F  C  Rav=1.4554 sigma=0.0161  Rmin=1.4393  Rmax=1.4714     2
 
 selected bond angles (degree)
 --------------------
H11-C1-F2=106.05               H12-C1-F2=103.64               H12-C1-H11=113.35              H13-C1-F2=106.14               
H13-C1-H11=113.20              H13-C1-H12=113.39              C3-F2-C1=127.85                C4-C3-F2=116.40                
C10-C3-F2=116.72               C10-C3-C4=126.87               C5-C4-C3=115.73                H14-C4-C3=121.98               
H14-C4-C5=122.29               C6-C5-C4=120.97                H15-C5-C4=119.70               H15-C5-C6=119.33               
C7-C6-C5=120.13                C9-C6-C5=119.79                C9-C6-C7=120.07                N8-C7-C6=110.90                
H16-C7-C6=108.19               H16-C7-N8=108.35               H17-C7-C6=109.74               H17-C7-N8=111.84               
H17-C7-H16=107.70              H18-N8-C7=108.82               H19-N8-C7=108.62               H19-N8-H18=107.65              
C10-C9-C6=120.81               H20-C9-C6=120.24               H20-C9-C10=118.95              C9-C10-C3=115.82               
H21-C10-C3=122.08              H21-C10-C9=122.10              
 
 selected dihedral angles (degree)
 ---------------------------------
C3-F2-C1-H11= 63.89           C3-F2-C1-H12=183.52           C3-F2-C1-H13=303.22           C4-C3-F2-C1= 96.25            
C10-C3-F2-C1=274.99           C5-C4-C3-F2=177.95            C5-C4-C3-C10=359.36           H14-C4-C3-F2=358.21           
H14-C4-C3-C10=179.61          C6-C5-C4-C3=  0.42            C6-C5-C4-H14=180.17           H15-C5-C4-C3=179.99           
H15-C5-C4-H14=359.73          C7-C6-C5-C4=180.73            C7-C6-C5-H15=  1.16           C9-C6-C5-C4=359.89            
C9-C6-C5-H15=180.32           N8-C7-C6-C5=337.92            N8-C7-C6-C9=158.77            H16-C7-C6-C5= 96.61           
H16-C7-C6-C9=277.46           H17-C7-C6-C5=213.86           H17-C7-C6-C9= 34.71           H18-N8-C7-C6=284.19           
H18-N8-C7-H16=165.60          H18-N8-C7-H17= 47.05          H19-N8-C7-C6=167.26           H19-N8-C7-H16= 48.67          
H19-N8-C7-H17=290.12          C10-C9-C6-C5=359.95           C10-C9-C6-C7=179.11           H20-C9-C6-C5=179.78           
H20-C9-C6-C7=358.93           C9-C10-C3-F2=181.90           C9-C10-C3-C4=  0.49           H21-C10-C3-F2=  1.87          
H21-C10-C3-C4=180.47          C3-C10-C9-C6=359.88           C3-C10-C9-H20=180.06          H21-C10-C9-C6=179.91          
H21-C10-C9-H20=  0.08         
           -------------------------------------------------
          |                Final Singlepoint                |
           -------------------------------------------------

          ...................................................
          :                      SETUP                      :
          :.................................................:
          :  # basis functions                  62          :
          :  # atomic orbitals                  62          :
          :  # shells                           42          :
          :  # electrons                        54          :
          :  # halogen bonds                     0          :
          :  max. iterations                   250          :
          :  Hamiltonian                  GFN1-xTB          :
          :  restarted?                      false          :
          :  GBSA solvation                   true          :
          :  PC potential                    false          :
          :  electronic temp.          300.0000000     K    :
          :  accuracy                    1.0000000          :
          :  -> integral cutoff          0.2500000E+02      :
          :  -> integral neglect         0.1000000E-07      :
          :  -> SCF convergence          0.1000000E-05 Eh   :
          :  -> wf. convergence          0.2000000E-04 e    :
          :  Broyden damping             0.4000000          :
          ...................................................

 iter      E             dE          RMSdq      gap      omega  full diag
   1    -31.1438578 -0.311439E+02  0.880E-06    2.90       0.0  T
   2    -31.1438578 -0.230926E-12  0.441E-06    2.90    4950.8  T
   3    -31.1438578 -0.177636E-13  0.784E-07    2.90   27839.5  T

   *** convergence criteria satisfied after 3 iterations ***

         #    Occupation            Energy/Eh            Energy/eV
      -------------------------------------------------------------
         1        2.0000           -1.0069291             -27.3999
       ...           ...                  ...                  ...
        21        2.0000           -0.5379036             -14.6371
        22        2.0000           -0.5259207             -14.3110
        23        2.0000           -0.5098876             -13.8747
        24        2.0000           -0.5040447             -13.7158
        25        2.0000           -0.4873459             -13.2614
        26        2.0000           -0.4756619             -12.9434
        27        2.0000           -0.4172180             -11.3531 (HOMO)
        28                         -0.3106748              -8.4539 (LUMO)
        29                         -0.3091866              -8.4134
        30                         -0.2583577              -7.0303
        31                         -0.1881687              -5.1203
        32                         -0.1809524              -4.9240
       ...                                ...                  ...
        62                          0.6149769              16.7344
      -------------------------------------------------------------
                  HL-Gap            0.1065433 Eh            2.8992 eV
             Fermi-level           -0.3639464 Eh           -9.9035 eV

 SCC (total)                   0 d,  0 h,  0 min,  0.027 sec
 SCC setup                      ...        0 min,  0.001 sec (  2.046%)
 Dispersion                     ...        0 min,  0.000 sec (  0.238%)
 classical contributions        ...        0 min,  0.000 sec (  0.082%)
 integral evaluation            ...        0 min,  0.008 sec ( 27.897%)
 iterations                     ...        0 min,  0.002 sec (  8.921%)
 molecular gradient             ...        0 min,  0.016 sec ( 60.043%)
 printout                       ...        0 min,  0.000 sec (  0.705%)

         :::::::::::::::::::::::::::::::::::::::::::::::::::::
         ::                     SUMMARY                     ::
         :::::::::::::::::::::::::::::::::::::::::::::::::::::
         :: total energy             -30.734902273151 Eh    ::
         :: total w/o Gsasa/hb       -30.719592316206 Eh    ::
         :: gradient norm              0.000856490130 Eh/a0 ::
         :: HOMO-LUMO gap              2.899189452263 eV    ::
         ::.................................................::
         :: SCC energy               -31.143857812863 Eh    ::
         :: -> electrostatic           0.124779829432 Eh    ::
         :: -> Gsolv                  -0.082681577336 Eh    ::
         ::    -> Gelec               -0.067371620391 Eh    ::
         ::    -> Gsasa               -0.015733256275 Eh    ::
         ::    -> Ghb                 -0.007200979675 Eh    ::
         ::    -> Gshift               0.007624279005 Eh    ::
         :: repulsion energy           0.418346136998 Eh    ::
         :: dispersion energy         -0.009390597286 Eh    ::
         :: halogen bond corr.         0.000000000000 Eh    ::
         :: add. restraining           0.000000000000 Eh    ::
         :: total charge               1.000000000000 e     ::
         :::::::::::::::::::::::::::::::::::::::::::::::::::::

           -------------------------------------------------
          |                Property Printout                |
           -------------------------------------------------

    * Orbital Energies and Occupations

         #    Occupation            Energy/Eh            Energy/eV
      -------------------------------------------------------------
         1        2.0000           -1.0069291             -27.3999
       ...           ...                  ...                  ...
        15        2.0000           -0.5898353             -16.0502
        16        2.0000           -0.5826966             -15.8560
        17        2.0000           -0.5778002             -15.7227
        18        2.0000           -0.5727784             -15.5861
        19        2.0000           -0.5702224             -15.5165
        20        2.0000           -0.5582970             -15.1920
        21        2.0000           -0.5379036             -14.6371
        22        2.0000           -0.5259207             -14.3110
        23        2.0000           -0.5098876             -13.8747
        24        2.0000           -0.5040447             -13.7158
        25        2.0000           -0.4873459             -13.2614
        26        2.0000           -0.4756619             -12.9434
        27        2.0000           -0.4172180             -11.3531 (HOMO)
        28                         -0.3106748              -8.4539 (LUMO)
        29                         -0.3091866              -8.4134
        30                         -0.2583577              -7.0303
        31                         -0.1881687              -5.1203
        32                         -0.1809524              -4.9240
        33                         -0.1428094              -3.8860
        34                         -0.1402322              -3.8159
        35                         -0.1305398              -3.5522
        36                         -0.1298879              -3.5344
        37                         -0.1196523              -3.2559
        38                         -0.1151701              -3.1339
       ...                                ...                  ...
        62                          0.6149769              16.7344
      -------------------------------------------------------------
                  HL-Gap            0.1065433 Eh            2.8992 eV
             Fermi-level           -0.3639464 Eh           -9.9035 eV

  Mulliken/CM5 charges         n(s)   n(p)   n(d)
     1C     0.16200  0.03168   1.064  2.774  0.000
     2F    -0.07564 -0.12217   1.800  5.275  0.000
     3C     0.20276  0.20765   1.086  2.712  0.000
     4C    -0.03566 -0.08722   1.062  2.974  0.000
     5C    -0.00755 -0.05835   1.066  2.942  0.000
     6C     0.02313  0.01258   1.100  2.877  0.000
     7C     0.08663  0.03735   1.007  2.906  0.000
     8N    -0.52297 -0.98306   1.473  4.050  0.000
     9C    -0.01982 -0.07317   1.067  2.953  0.000
    10C    -0.03466 -0.08643   1.061  2.974  0.000
    11H     0.10942  0.16297   0.891  0.000  0.000
    12H     0.12310  0.17630   0.877  0.000  0.000
    13H     0.10908  0.16255   0.891  0.000  0.000
    14H     0.08886  0.14608   0.911  0.000  0.000
    15H     0.07154  0.13423   0.928  0.000  0.000
    16H     0.05515  0.11984   0.945  0.000  0.000
    17H     0.04332  0.10639   0.957  0.000  0.000
    18H     0.22303  0.41210   0.777  0.000  0.000
    19H     0.23259  0.42085   0.767  0.000  0.000
    20H     0.07554  0.13247   0.924  0.000  0.000
    21H     0.09016  0.14737   0.910  0.000  0.000

Wiberg/Mayer (AO) data.
largest (>0.10) Wiberg bond orders for each atom

 ---------------------------------------------------------------------------
     #   Z sym  total        # sym  WBO       # sym  WBO       # sym  WBO
 ---------------------------------------------------------------------------
     1   6 C    3.679 --    11 H    0.980    13 H    0.980    12 H    0.974
                             2 F    0.718
     2   9 F    1.436 --     1 C    0.718     3 C    0.630
     3   6 C    3.685 --     4 C    1.431    10 C    1.430     2 F    0.630
     4   6 C    3.985 --     3 C    1.431     5 C    1.426    14 H    0.962
                             9 C    0.108
     5   6 C    3.986 --     4 C    1.426     6 C    1.410    15 H    0.962
                            10 C    0.108
     6   6 C    3.980 --     5 C    1.410     9 C    1.410     7 C    1.011
     7   6 C    3.980 --     6 C    1.011     8 N    1.003    17 H    0.966
                            16 H    0.956
     8   7 N    2.952 --     7 C    1.003    18 H    0.945    19 H    0.938
     9   6 C    3.988 --    10 C    1.428     6 C    1.410    20 H    0.967
                             4 C    0.108
    10   6 C    3.985 --     3 C    1.430     9 C    1.428    21 H    0.961
                             5 C    0.108
    11   1 H    0.993 --     1 C    0.980
    12   1 H    0.992 --     1 C    0.974
    13   1 H    0.993 --     1 C    0.980
    14   1 H    0.991 --     4 C    0.962
    15   1 H    1.013 --     5 C    0.962
    16   1 H    1.007 --     7 C    0.956
    17   1 H    1.000 --     7 C    0.966
    18   1 H    0.956 --     8 N    0.945
    19   1 H    0.952 --     8 N    0.938
    20   1 H    0.994 --     9 C    0.967
    21   1 H    0.990 --    10 C    0.961
 ---------------------------------------------------------------------------

Topologies differ in total number of bonds
Writing topology from bond orders to xtbtopo.mol

 dipole moment from electron density (au)
     X       Y       Z   
   3.1873   0.1186   0.4478  total (Debye):    8.186

           -------------------------------------------------
          |                Geometry Summary                 |
           -------------------------------------------------

      molecular mass/u    :      140.1783418
   center of mass at/Å    :        0.1615778      -0.1666546      -0.0748177
  moments of inertia/u·Å² :        0.1280499E+03   0.7776358E+03   0.8657531E+03
rotational constants/cm⁻¹ :        0.1316490E+00   0.2167806E-01   0.1947164E-01

 * 19 selected distances

     #   Z          #   Z                                           value/Å
     1   6 C        2   9 F                                       1.4392742
     3   6 C        4   6 C                                       1.3707415
     4   6 C        5   6 C                                       1.3893111
     5   6 C        6   6 C                                       1.3946833
     7   6 C        8   7 N                                       1.4583153 (max)
     6   6 C        9   6 C                                       1.3957242
     3   6 C       10   6 C                                       1.3710243
     9   6 C       10   6 C                                       1.3901185
     1   6 C       11   1 H                                       1.0858056
     1   6 C       12   1 H                                       1.0861625
     1   6 C       13   1 H                                       1.0865921
     4   6 C       14   1 H                                       1.0804618
     5   6 C       15   1 H                                       1.0842716
     7   6 C       16   1 H                                       1.0956327
     7   6 C       17   1 H                                       1.0985461
     8   7 N       18   1 H                                       1.0109625
     8   7 N       19   1 H                                       1.0107465 (min)
     9   6 C       20   1 H                                       1.0833018
    10   6 C       21   1 H                                       1.0806497

 * 5 distinct bonds (by element types)

   Z      Z             #   av. dist./Å        max./Å        min./Å
   1 H    6 C           9     1.0868249     1.0985461     1.0804618
   6 C    6 C           6     1.3852672     1.3957242     1.3707415
   1 H    7 N           2     1.0108545     1.0109625     1.0107465
   6 C    7 N           1     1.4583153     1.4583153     1.4583153
   6 C    9 F           1     1.4392742     1.4392742     1.4392742


optimized geometry written to: xtbopt.xyz


           -------------------------------------------------
          | TOTAL ENERGY              -30.734902273151 Eh   |
          | GRADIENT NORM               0.000856490130 Eh/α |
          | HOMO-LUMO GAP               2.899189452263 eV   |
           -------------------------------------------------

------------------------------------------------------------------------
 * finished run on 2023/06/20 at 15:14:59.066     
------------------------------------------------------------------------
 total:
 * wall-time:     0 d,  0 h,  0 min,  0.615 sec
 *  cpu-time:     0 d,  0 h,  0 min,  0.578 sec
 * ratio c/w:     0.940 speedup
 SCF:
 * wall-time:     0 d,  0 h,  0 min,  0.035 sec
 *  cpu-time:     0 d,  0 h,  0 min,  0.035 sec
 * ratio c/w:     0.993 speedup
 ANC optimizer:
 * wall-time:     0 d,  0 h,  0 min,  0.529 sec
 *  cpu-time:     0 d,  0 h,  0 min,  0.524 sec
 * ratio c/w:     0.991 speedup

