16
 energy: -33.392103324244 gnorm: 0.000658414229 xtb: 6.5.1 (579679a)
C            2.55933490637369       -0.41371669975669        0.79994361416569
C            1.29573215711150       -0.27118917204660        0.09618126543899
N            1.08095614667851       -0.58780570760485       -1.22765914665485
N           -0.13033528432664       -0.36557705888180       -1.48620335261998
C           -0.78769685459045        0.13717116377330       -0.33616107503795
C           -1.99185348323390       -0.69457721903757        0.11354462477665
C           -1.32049288296904        1.59127021575364       -0.71841441494532
O           -2.17376657167822        1.66772140187422       -1.53434030995942
Cl          -0.61090510565409        2.86428355502785        0.11004439955619
O            0.22098570305315        0.16351637203889        0.64279196103407
H            2.76951420761883       -1.48294700052365        0.91186459315170
H            3.37053931321426       -0.00189058949293        0.19644771635623
H            2.51693680024123        0.05290321152619        1.78148560818272
H           -2.74122173964280       -0.67706849477557       -0.67562032406629
H           -1.66034226487737       -1.71400128123235        0.29800498337486
H           -2.39738404731866       -0.26809269664200        1.02808985724666
