      -----------------------------------------------------------      
     |                   =====================                   |     
     |                           x T B                           |     
     |                   =====================                   |     
     |                         S. Grimme                         |     
     |          Mulliken Center for Theoretical Chemistry        |     
     |                    University of Bonn                     |     
      -----------------------------------------------------------      

   * xtb version 6.5.1 (579679a) compiled by 'ehlert@majestix' on 2022-07-11

   xtb is free software: you can redistribute it and/or modify it under
   the terms of the GNU Lesser General Public License as published by
   the Free Software Foundation, either version 3 of the License, or
   (at your option) any later version.
   
   xtb is distributed in the hope that it will be useful,
   but WITHOUT ANY WARRANTY; without even the implied warranty of
   MERCHANTABILITY or FITNESS FOR A PARTICULAR PURPOSE.  See the
   GNU Lesser General Public License for more details.
   
   Cite this work as:
   * C. Bannwarth, E. Caldeweyher, S. Ehlert, A. Hansen, P. Pracht,
     J. Seibert, S. Spicher, S. Grimme, WIREs Comput. Mol. Sci., 2020, 11,
     e01493. DOI: 10.1002/wcms.1493
   
   for GFN2-xTB:
   * C. Bannwarth, S. Ehlert and S. Grimme., J. Chem. Theory Comput., 2019,
     15, 1652-1671. DOI: 10.1021/acs.jctc.8b01176
   for GFN1-xTB:
   * S. Grimme, C. Bannwarth, P. Shushkov, J. Chem. Theory Comput., 2017,
     13, 1989-2009. DOI: 10.1021/acs.jctc.7b00118
   for GFN0-xTB:
   * P. Pracht, E. Caldeweyher, S. Ehlert, S. Grimme, ChemRxiv, 2019, preprint.
     DOI: 10.26434/chemrxiv.8326202.v1
   for GFN-FF:
   * S. Spicher and S. Grimme, Angew. Chem. Int. Ed., 2020, 59, 15665-15673.
     DOI: 10.1002/anie.202004239
   
   for ALPB and GBSA implicit solvation:
   * S. Ehlert, M. Stahn, S. Spicher, S. Grimme, J. Chem. Theory Comput.,
     2021, 17, 4250-4261. DOI: 10.1021/acs.jctc.1c00471
   
   for DFT-D4:
   * E. Caldeweyher, C. Bannwarth and S. Grimme, J. Chem. Phys., 2017,
     147, 034112. DOI: 10.1063/1.4993215
   * E. Caldeweyher, S. Ehlert, A. Hansen, H. Neugebauer, S. Spicher,
     C. Bannwarth and S. Grimme, J. Chem. Phys., 2019, 150, 154122.
     DOI: 10.1063/1.5090222
   * E. Caldeweyher, J.-M. Mewes, S. Ehlert and S. Grimme, Phys. Chem. Chem. Phys.
     2020, 22, 8499-8512. DOI: 10.1039/D0CP00502A
   
   for sTDA-xTB:
   * S. Grimme and C. Bannwarth, J. Chem. Phys., 2016, 145, 054103.
     DOI: 10.1063/1.4959605
   
   in the mass-spec context:
   * V. Asgeirsson, C. Bauer and S. Grimme, Chem. Sci., 2017, 8, 4879.
     DOI: 10.1039/c7sc00601b
   * J. Koopman and S. Grimme, ACS Omega 2019, 4, 12, 15120-15133.
     DOI: 10.1021/acsomega.9b02011
   
   for metadynamics refer to:
   * S. Grimme, J. Chem. Theory Comput., 2019, 155, 2847-2862
     DOI: 10.1021/acs.jctc.9b00143
   
   for SPH calculations refer to:
   * S. Spicher and S. Grimme, J. Chem. Theory Comput., 2021, 17, 1701-1714
     DOI: 10.1021/acs.jctc.0c01306
   
   with help from (in alphabetical order)
   P. Atkinson, C. Bannwarth, F. Bohle, G. Brandenburg, E. Caldeweyher
   M. Checinski, S. Dohm, S. Ehlert, S. Ehrlich, I. Gerasimov, C. Hölzer
   A. Katbashev, J. Koopman, C. Lavigne, S. Lehtola, F. März, M. Müller,
   F. Musil, H. Neugebauer, J. Pisarek, C. Plett, P. Pracht, F. Pultar,
   J. Seibert, P. Shushkov, S. Spicher, M. Stahn, M. Steiner, T. Strunk,
   J. Stückrath, T. Rose, and J. Unsleber
   
 * started run on 2023/06/20 at 15:07:01.944     

           -------------------------------------------------
          |                Calculation Setup                |
           -------------------------------------------------

          program call               : /lustre/hpc/kemi/ree/PhD/git/ReactivityQM/dep/xtb-6.5.1/bin/xtb --gfn 1 /lustre/hpc/kemi/ree/PhD/git/ReactivityQM/calculations/RaltegravirCLI/reac02prodE08/conf17/RaltegravirCLI_reac02prodE08_conf17_gfn1.xyz --opt --vfukui --chrg -1 --uhf 0 --alpb DMSO
          hostname                   : node308
          coordinate file            : /lustre/hpc/kemi/ree/PhD/git/ReactivityQM/calculations/RaltegravirCLI/reac02prodE08/conf17/RaltegravirCLI_reac02prodE08_conf17_gfn1.xyz
          omp threads                :                     1

   ID    Z sym.   atoms
    1    6 C      1-5, 7, 9, 11-14, 17, 18, 20, 22-24
    2    7 N      6, 10, 15, 16
    3    8 O      8, 19, 21
    4    9 F      25
    5    1 H      26-47

           -------------------------------------------------
          |                 G F N 1 - x T B                 |
           -------------------------------------------------

        Reference                      10.1021/acs.jctc.7b00118
      * Hamiltonian:
        H0-scaling (s, p, d)           1.850000    2.250000    2.000000
        zeta-weighting                 0.000000
      * Dispersion:
        s8                             2.400000
        a1                             0.630000
        a2                             5.000000
        s9                             0.000000
      * Repulsion:
        kExp                           1.500000
        rExp                           1.000000
      * Coulomb:
        alpha                          2.000000
        third order                    atomic
        anisotropic                    false
      * Halogen bond correction:
        rad-scale                      1.300000
        damping                        0.440000

      * Solvation model:               ALPB
        Solvent                        DMSO
        Parameter file                 internal GFN1-xTB/ALPB
        Dielectric constant                4.6680E+01
        Reference state                gsolv [1 M gas/solution]
        Free energy shift                  7.6243E-03 Eh       4.7843E+00 kcal/mol
        Temperature                        2.9815E+02 K
        Density                            1.1000E+00 kg/L
        Solvent mass                       7.8130E+01 g/mol
        Interaction kernel             P16
        Born radius scaling (c1)           1.7672E+00
        Born radii integrator          GBOBC
        Born offset                        0.0000E+00 a0       0.0000E+00 AA
        H-bond correction              true
        Ion screening                  false
        Surface tension                    1.0000E-05 Eh       1.5569E+01 dyn/cm
        Grid points                               230 per atom

          ...................................................
          :                      SETUP                      :
          :.................................................:
          :  # basis functions                 144          :
          :  # atomic orbitals                 144          :
          :  # shells                           94          :
          :  # electrons                       136          :
          :  # halogen bonds                     0          :
          :  max. iterations                   250          :
          :  Hamiltonian                  GFN1-xTB          :
          :  restarted?                      false          :
          :  GBSA solvation                   true          :
          :  PC potential                    false          :
          :  electronic temp.          300.0000000     K    :
          :  accuracy                    1.0000000          :
          :  -> integral cutoff          0.2500000E+02      :
          :  -> integral neglect         0.1000000E-07      :
          :  -> SCF convergence          0.1000000E-05 Eh   :
          :  -> wf. convergence          0.2000000E-04 e    :
          :  Broyden damping             0.4000000          :
          ...................................................

 iter      E             dE          RMSdq      gap      omega  full diag
   1    -80.8321755 -0.808322E+02  0.881E+00    0.89       0.0  T
   2    -80.6929855  0.139190E+00  0.547E+00    0.44       1.0  T
   3    -79.4383318  0.125465E+01  0.407E+00    0.82       1.0  T
   4    -80.9852879 -0.154696E+01  0.137E+00    1.93       1.0  T
   5    -81.0092401 -0.239522E-01  0.792E-01    1.54       1.0  T
   6    -81.0234358 -0.141958E-01  0.397E-01    0.50       1.0  T
   7    -80.9878789  0.355569E-01  0.687E-01    0.01       1.0  T
   8    -81.0215252 -0.336462E-01  0.473E-01    0.68       1.0  T
   9    -81.0241966 -0.267146E-02  0.408E-01    0.42       1.0  T
  10    -81.0270860 -0.288938E-02  0.345E-01    0.24       1.0  T
  11    -80.7696654  0.257421E+00  0.146E+00    0.16       1.0  T
  12    -81.0279787 -0.258313E+00  0.329E-01    0.22       1.0  T
  13    -81.0351755 -0.719683E-02  0.202E-01    0.13       1.0  T
  14    -81.0397053 -0.452977E-02  0.491E-02    0.09       1.0  T
  15    -81.0395021  0.203173E-03  0.639E-02    0.09       1.0  T
  16    -81.0399980 -0.495890E-03  0.263E-03    0.08       5.5  T
  17    -81.0399671  0.309022E-04  0.161E-02    0.08       1.0  T
  18    -81.0399986 -0.314999E-04  0.103E-03    0.08      14.1  T
  19    -81.0399970  0.162072E-05  0.378E-03    0.08       3.9  T
  20    -81.0399985 -0.154959E-05  0.127E-03    0.08      11.5  T
  21    -81.0399987 -0.196675E-06  0.631E-05    0.08     231.2  T
  22    -81.0399987  0.141137E-08  0.125E-04    0.08     116.6  T

   *** convergence criteria satisfied after 22 iterations ***

         #    Occupation            Energy/Eh            Energy/eV
      -------------------------------------------------------------
         1        2.0000           -0.8168207             -22.2268
       ...           ...                  ...                  ...
        62        2.0000           -0.4162024             -11.3254
        63        2.0000           -0.4089077             -11.1269
        64        2.0000           -0.4047352             -11.0134
        65        2.0000           -0.4025707             -10.9545
        66        2.0000           -0.3915007             -10.6533
        67        2.0000           -0.3838485             -10.4450
        68        1.6578           -0.2909078              -7.9160 (HOMO)
        69        0.3422           -0.2879097              -7.8344 (LUMO)
        70                         -0.2543597              -6.9215
        71                         -0.2008917              -5.4665
        72                         -0.1986610              -5.4058
        73                         -0.1281987              -3.4885
       ...                                ...                  ...
       144                          0.7228262              19.6691
      -------------------------------------------------------------
                  HL-Gap            0.0029981 Eh            0.0816 eV
             Fermi-level           -0.2894088 Eh           -7.8752 eV

 SCC (total)                   0 d,  0 h,  0 min,  0.289 sec
 SCC setup                      ...        0 min,  0.003 sec (  0.900%)
 Dispersion                     ...        0 min,  0.000 sec (  0.170%)
 classical contributions        ...        0 min,  0.000 sec (  0.054%)
 integral evaluation            ...        0 min,  0.076 sec ( 26.412%)
 iterations                     ...        0 min,  0.109 sec ( 37.499%)
 molecular gradient             ...        0 min,  0.100 sec ( 34.504%)
 printout                       ...        0 min,  0.001 sec (  0.437%)

         :::::::::::::::::::::::::::::::::::::::::::::::::::::
         ::                     SUMMARY                     ::
         :::::::::::::::::::::::::::::::::::::::::::::::::::::
         :: total energy             -80.179249099216 Eh    ::
         :: total w/o Gsasa/hb       -80.155113613753 Eh    ::
         :: gradient norm              0.091957585993 Eh/a0 ::
         :: HOMO-LUMO gap              0.081583728582 eV    ::
         ::.................................................::
         :: SCC energy               -81.039998727072 Eh    ::
         :: -> electrostatic           0.316586998034 Eh    ::
         :: -> Gsolv                  -0.097489043425 Eh    ::
         ::    -> Gelec               -0.073353557962 Eh    ::
         ::    -> Gsasa               -0.024343393252 Eh    ::
         ::    -> Ghb                 -0.007416371216 Eh    ::
         ::    -> Gshift               0.007624279005 Eh    ::
         :: repulsion energy           0.890856153505 Eh    ::
         :: dispersion energy         -0.030106525649 Eh    ::
         :: halogen bond corr.         0.000000000000 Eh    ::
         :: add. restraining           0.000000000000 Eh    ::
         :: total charge              -1.000000000000 e     ::
         :::::::::::::::::::::::::::::::::::::::::::::::::::::

      ----------------------------------------------------------- 
     |                   =====================                   |
     |                        A N C O P T                        |
     |                   =====================                   |
     |               Approximate Normal Coordinate               |
     |                Rational Function Optimizer                |
      ----------------------------------------------------------- 

          ...................................................
          :                      SETUP                      :
          :.................................................:
          :   optimization level            normal          :
          :   max. optcycles                   200          :
          :   ANC micro-cycles                  20          :
          :   degrees of freedom               135          :
          :.................................................:
          :   RF solver                   davidson          :
          :   write xtbopt.log                true          :
          :   linear?                        false          :
          :   energy convergence         0.5000000E-05 Eh   :
          :   grad. convergence          0.1000000E-02 Eh/α :
          :   maximium RF displ.         1.0000000          :
          :   Hlow (freq-cutoff)         0.1000000E-01      :
          :   Hmax (freq-cutoff)         5.0000000          :
          :   S6 in model hess.         20.0000000          :
          ...................................................

generating ANC from model Hessian ...
Using Lindh-Hessian (1995)
 Shifting diagonal of input Hessian by   9.844738539261639E-003
 Lowest  eigenvalues of input Hessian
    0.000000    0.000000    0.000000    0.000000    0.000000    0.000000
    0.010000    0.010030    0.010402    0.010790    0.011415    0.011852
    0.012906    0.014304    0.015160    0.015940    0.016464    0.017346
 Highest eigenvalues
    1.926357    1.966518    2.034496    2.114275    2.284276    2.339286
 

........................................................................
.............................. CYCLE    1 ..............................
........................................................................
   1    -81.0399987 -0.810400E+02  0.149E-05    0.08       0.0  T
   2    -81.0399987  0.393700E-08  0.180E-04    0.08      80.9  T
   3    -81.0399987 -0.396395E-08  0.207E-07    0.08   70458.7  T
     SCC iter.                  ...        0 min,  0.014 sec
     gradient                   ...        0 min,  0.090 sec
 * total energy  :   -80.1792491 Eh     change       -0.1908106E-08 Eh
   gradient norm :     0.0919588 Eh/α   predicted     0.0000000E+00 (-100.00%)
   displ. norm   :     0.2608775 α      lambda       -0.1192541E-01
   maximum displ.:     0.0875601 α      in ANC's #48, #35, #38, ...

........................................................................
.............................. CYCLE    2 ..............................
........................................................................
   1    -81.0307752 -0.810308E+02  0.218E-01    0.15       0.0  T
   2    -80.7096347  0.321141E+00  0.165E+00    0.37       1.0  T
   3    -81.0362329 -0.326598E+00  0.310E-02    0.08       1.0  T
   4    -81.0356681  0.564805E-03  0.744E-02    0.07       1.0  T
   5    -81.0361021 -0.433977E-03  0.358E-02    0.09       1.0  T
   6    -81.0362635 -0.161455E-03  0.268E-03    0.09       5.4  T
   7    -81.0362626  0.904043E-06  0.349E-03    0.09       4.2  T
   8    -81.0362639 -0.129958E-05  0.107E-03    0.09      13.6  T
   9    -81.0362640 -0.136497E-06  0.104E-04    0.09     140.4  T
  10    -81.0362640 -0.932786E-09  0.356E-05    0.09     410.1  T
     SCC iter.                  ...        0 min,  0.034 sec
     gradient                   ...        0 min,  0.097 sec
 * total energy  :   -80.1875207 Eh     change       -0.8271574E-02 Eh
   gradient norm :     0.0453733 Eh/α   predicted    -0.6371384E-02 ( -22.97%)
   displ. norm   :     0.2187537 α      lambda       -0.4050150E-02
   maximum displ.:     0.0716087 α      in ANC's #35, #17, #12, ...

........................................................................
.............................. CYCLE    3 ..............................
........................................................................
   1    -81.0337521 -0.810338E+02  0.199E-01    0.15       0.0  T
   2    -80.7074403  0.326312E+00  0.165E+00    0.32       1.0  T
   3    -81.0380416 -0.330601E+00  0.405E-02    0.10       1.0  T
   4    -81.0378913  0.150323E-03  0.575E-02    0.08       1.0  T
   5    -81.0382431 -0.351802E-03  0.721E-03    0.09       2.0  T
   6    -81.0382491 -0.596812E-05  0.178E-03    0.09       8.2  T
   7    -81.0382489  0.162961E-06  0.175E-03    0.09       8.3  T
   8    -81.0382493 -0.346197E-06  0.246E-04    0.09      59.2  T
   9    -81.0382493 -0.686636E-08  0.342E-05    0.09     427.1  T
  10    -81.0382493  0.136851E-10  0.207E-05    0.09     705.6  T
     SCC iter.                  ...        0 min,  0.043 sec
     gradient                   ...        0 min,  0.084 sec
 * total energy  :   -80.1898518 Eh     change       -0.2331171E-02 Eh
   gradient norm :     0.0141197 Eh/α   predicted    -0.2122627E-02 (  -8.95%)
   displ. norm   :     0.1244721 α      lambda       -0.4845849E-03
   maximum displ.:     0.0436510 α      in ANC's #17, #6, #11, ...

........................................................................
.............................. CYCLE    4 ..............................
........................................................................
   1    -81.0396782 -0.810397E+02  0.780E-02    0.11       0.0  T
   2    -80.8487017  0.190977E+00  0.124E+00    0.08       1.0  T
   3    -81.0401331 -0.191431E+00  0.439E-02    0.10       1.0  T
   4    -81.0403570 -0.223960E-03  0.101E-02    0.10       1.4  T
   5    -81.0403685 -0.114606E-04  0.333E-03    0.09       4.4  T
   6    -81.0403645  0.399527E-05  0.647E-03    0.09       2.3  T
   7    -81.0403692 -0.473472E-05  0.154E-03    0.09       9.4  T
   8    -81.0403695 -0.285023E-06  0.924E-05    0.09     157.9  T
   9    -81.0403695 -0.467139E-09  0.611E-05    0.09     238.6  T
     SCC iter.                  ...        0 min,  0.039 sec
     gradient                   ...        0 min,  0.094 sec
 * total energy  :   -80.1902193 Eh     change       -0.3675002E-03 Eh
   gradient norm :     0.0073884 Eh/α   predicted    -0.2460545E-03 ( -33.05%)
   displ. norm   :     0.2179400 α      lambda       -0.4932060E-03
   maximum displ.:     0.0780590 α      in ANC's #20, #6, #11, ...

........................................................................
.............................. CYCLE    5 ..............................
........................................................................
   1    -81.0416196 -0.810416E+02  0.713E-02    0.11       0.0  T
   2    -80.8820091  0.159610E+00  0.113E+00    0.06       1.0  T
   3    -81.0419186 -0.159909E+00  0.471E-02    0.11       1.0  T
   4    -81.0421570 -0.238367E-03  0.160E-02    0.10       1.0  T
   5    -81.0421861 -0.291377E-04  0.347E-03    0.10       4.2  T
   6    -81.0421840  0.211849E-05  0.532E-03    0.09       2.7  T
   7    -81.0421872 -0.314013E-05  0.146E-03    0.09      10.0  T
   8    -81.0421874 -0.256463E-06  0.105E-04    0.09     138.4  T
   9    -81.0421874 -0.125345E-08  0.147E-05    0.09     991.6  T
     SCC iter.                  ...        0 min,  0.039 sec
     gradient                   ...        0 min,  0.092 sec
 * total energy  :   -80.1905445 Eh     change       -0.3251175E-03 Eh
   gradient norm :     0.0077744 Eh/α   predicted    -0.2583212E-03 ( -20.55%)
   displ. norm   :     0.1709445 α      lambda       -0.2119703E-03
   maximum displ.:     0.0586940 α      in ANC's #20, #9, #6, ...

........................................................................
.............................. CYCLE    6 ..............................
........................................................................
   1    -81.0423693 -0.810424E+02  0.191E-02    0.10       0.0  T
   2    -81.0364794  0.588994E-02  0.221E-01    0.06       1.0  T
   3    -81.0423968 -0.591740E-02  0.101E-02    0.10       1.4  T
   4    -81.0424087 -0.119293E-04  0.178E-03    0.09       8.2  T
   5    -81.0424088 -0.111094E-06  0.116E-03    0.09      12.6  T
   6    -81.0424089 -0.828020E-07  0.339E-04    0.09      43.0  T
   7    -81.0424089 -0.126340E-07  0.617E-05    0.09     236.3  T
   8    -81.0424089 -0.958238E-10  0.430E-05    0.09     339.1  T
     SCC iter.                  ...        0 min,  0.034 sec
     gradient                   ...        0 min,  0.096 sec
 * total energy  :   -80.1907066 Eh     change       -0.1621802E-03 Eh
   gradient norm :     0.0083344 Eh/α   predicted    -0.1091282E-03 ( -32.71%)
   displ. norm   :     0.2374293 α      lambda       -0.2418276E-03
   maximum displ.:     0.1015696 α      in ANC's #9, #11, #8, ...

........................................................................
.............................. CYCLE    7 ..............................
........................................................................
   1    -81.0418599 -0.810419E+02  0.728E-03    0.09       0.0  T
   2    -81.0417878  0.720574E-04  0.250E-02    0.10       1.0  T
   3    -81.0418323 -0.444154E-04  0.165E-02    0.09       1.0  T
   4    -81.0418628 -0.305661E-04  0.251E-03    0.09       5.8  T
   5    -81.0418632 -0.396656E-06  0.674E-04    0.09      21.6  T
   6    -81.0418632 -0.613049E-08  0.105E-04    0.09     139.1  T
   7    -81.0418632 -0.364366E-09  0.416E-05    0.09     350.5  T
     SCC iter.                  ...        0 min,  0.030 sec
     gradient                   ...        0 min,  0.097 sec
 * total energy  :   -80.1908729 Eh     change       -0.1662129E-03 Eh
   gradient norm :     0.0065445 Eh/α   predicted    -0.1277330E-03 ( -23.15%)
   displ. norm   :     0.1658067 α      lambda       -0.1192266E-03
   maximum displ.:     0.0829609 α      in ANC's #9, #11, #8, ...

........................................................................
.............................. CYCLE    8 ..............................
........................................................................
   1    -81.0418432 -0.810418E+02  0.154E-02    0.09       0.0  T
   2    -81.0402838  0.155942E-02  0.116E-01    0.13       1.0  T
   3    -81.0418674 -0.158361E-02  0.346E-03    0.09       4.2  T
   4    -81.0418684 -0.946414E-06  0.107E-03    0.09      13.6  T
   5    -81.0418684 -0.530618E-08  0.560E-04    0.09      26.0  T
   6    -81.0418684 -0.940825E-08  0.205E-04    0.09      71.0  T
   7    -81.0418684 -0.384460E-08  0.331E-05    0.09     440.7  T
   8    -81.0418684 -0.639346E-10  0.129E-05    0.09    1133.5  T
     SCC iter.                  ...        0 min,  0.033 sec
     gradient                   ...        0 min,  0.098 sec
 * total energy  :   -80.1909571 Eh     change       -0.8428226E-04 Eh
   gradient norm :     0.0042843 Eh/α   predicted    -0.6132998E-04 ( -27.23%)
   displ. norm   :     0.1413325 α      lambda       -0.8033599E-04
   maximum displ.:     0.0735701 α      in ANC's #9, #2, #11, ...

........................................................................
.............................. CYCLE    9 ..............................
........................................................................
   1    -81.0423922 -0.810424E+02  0.105E-02    0.09       0.0  T
   2    -81.0416548  0.737467E-03  0.794E-02    0.11       1.0  T
   3    -81.0423997 -0.744981E-03  0.539E-03    0.09       2.7  T
   4    -81.0424028 -0.305720E-05  0.142E-03    0.09      10.3  T
   5    -81.0424029 -0.137512E-06  0.481E-04    0.09      30.3  T
   6    -81.0424029 -0.390263E-08  0.185E-04    0.09      78.7  T
   7    -81.0424029 -0.311347E-08  0.194E-05    0.09     751.6  T
     SCC iter.                  ...        0 min,  0.028 sec
     gradient                   ...        0 min,  0.092 sec
 * total energy  :   -80.1910161 Eh     change       -0.5900693E-04 Eh
   gradient norm :     0.0030492 Eh/α   predicted    -0.4097116E-04 ( -30.57%)
   displ. norm   :     0.1566070 α      lambda       -0.6863123E-04
   maximum displ.:     0.0762127 α      in ANC's #9, #2, #11, ...

........................................................................
.............................. CYCLE   10 ..............................
........................................................................
   1    -81.0429427 -0.810429E+02  0.641E-03    0.09       0.0  T
   2    -81.0425193  0.423420E-03  0.595E-02    0.08       1.0  T
   3    -81.0429462 -0.426926E-03  0.326E-03    0.09       4.5  T
   4    -81.0429471 -0.935534E-06  0.113E-03    0.09      12.9  T
   5    -81.0429472 -0.708772E-07  0.415E-04    0.09      35.2  T
   6    -81.0429472 -0.193997E-08  0.126E-04    0.09     115.5  T
   7    -81.0429472 -0.112519E-08  0.584E-05    0.09     249.9  T
     SCC iter.                  ...        0 min,  0.027 sec
     gradient                   ...        0 min,  0.092 sec
 * total energy  :   -80.1910665 Eh     change       -0.5031880E-04 Eh
   gradient norm :     0.0033388 Eh/α   predicted    -0.3516077E-04 ( -30.12%)
   displ. norm   :     0.1565038 α      lambda       -0.5681799E-04
   maximum displ.:     0.0816510 α      in ANC's #2, #9, #11, ...

........................................................................
.............................. CYCLE   11 ..............................
........................................................................
   1    -81.0435883 -0.810436E+02  0.160E-02    0.10       0.0  T
   2    -81.0386808  0.490747E-02  0.201E-01    0.06       1.0  T
   3    -81.0436200 -0.493914E-02  0.212E-03    0.09       6.9  T
   4    -81.0436202 -0.234293E-06  0.112E-03    0.09      13.0  T
   5    -81.0436203 -0.592502E-07  0.592E-04    0.09      24.6  T
   6    -81.0436203 -0.193478E-07  0.226E-04    0.09      64.6  T
   7    -81.0436203 -0.499816E-08  0.823E-05    0.09     177.3  T
   8    -81.0436203 -0.795623E-09  0.727E-06    0.09    2007.3  T
     SCC iter.                  ...        0 min,  0.031 sec
     gradient                   ...        0 min,  0.094 sec
 * total energy  :   -80.1911087 Eh     change       -0.4225850E-04 Eh
   gradient norm :     0.0037996 Eh/α   predicted    -0.2910680E-04 ( -31.12%)
   displ. norm   :     0.1601132 α      lambda       -0.4828274E-04
   maximum displ.:     0.0891973 α      in ANC's #2, #9, #11, ...

........................................................................
.............................. CYCLE   12 ..............................
........................................................................
   1    -81.0436388 -0.810436E+02  0.255E-02    0.10       0.0  T
   2    -81.0278301  0.158087E-01  0.360E-01    0.04       1.0  T
   3    -81.0437192 -0.158890E-01  0.253E-03    0.09       5.8  T
   4    -81.0437197 -0.586593E-06  0.126E-03    0.09      11.6  T
   5    -81.0437196  0.130369E-06  0.153E-03    0.09       9.5  T
   6    -81.0437198 -0.229618E-06  0.445E-04    0.09      32.8  T
   7    -81.0437199 -0.231423E-07  0.473E-05    0.09     308.2  T
   8    -81.0437199 -0.756870E-10  0.350E-05    0.09     417.2  T
     SCC iter.                  ...        0 min,  0.031 sec
     gradient                   ...        0 min,  0.095 sec
 * total energy  :   -80.1911436 Eh     change       -0.3485702E-04 Eh
   gradient norm :     0.0030644 Eh/α   predicted    -0.2476394E-04 ( -28.96%)
   displ. norm   :     0.1067718 α      lambda       -0.3225077E-04
   maximum displ.:     0.0661704 α      in ANC's #2, #11, #5, ...

........................................................................
.............................. CYCLE   13 ..............................
........................................................................
   1    -81.0442870 -0.810443E+02  0.128E-02    0.10       0.0  T
   2    -81.0416470  0.264002E-02  0.148E-01    0.07       1.0  T
   3    -81.0443059 -0.265888E-02  0.213E-03    0.09       6.9  T
   4    -81.0443063 -0.393247E-06  0.742E-04    0.09      19.7  T
   5    -81.0443063 -0.282024E-07  0.262E-04    0.09      55.6  T
   6    -81.0443063  0.450527E-09  0.124E-04    0.09     117.3  T
   7    -81.0443063 -0.493685E-09  0.937E-05    0.09     155.7  T
     SCC iter.                  ...        0 min,  0.027 sec
     gradient                   ...        0 min,  0.093 sec
 * total energy  :   -80.1911658 Eh     change       -0.2218561E-04 Eh
   gradient norm :     0.0021239 Eh/α   predicted    -0.1631603E-04 ( -26.46%)
   displ. norm   :     0.0752177 α      lambda       -0.1929740E-04
   maximum displ.:     0.0506191 α      in ANC's #2, #11, #4, ...

........................................................................
.............................. CYCLE   14 ..............................
........................................................................
   1    -81.0437047 -0.810437E+02  0.120E-02    0.10       0.0  T
   2    -81.0413500  0.235469E-02  0.140E-01    0.07       1.0  T
   3    -81.0437221 -0.237206E-02  0.999E-04    0.09      14.6  T
   4    -81.0437216  0.523956E-06  0.225E-03    0.09       6.5  T
   5    -81.0437220 -0.434378E-06  0.953E-04    0.09      15.3  T
   6    -81.0437221 -0.990253E-07  0.771E-05    0.09     189.1  T
   7    -81.0437221  0.427761E-09  0.904E-05    0.09     161.3  T
     SCC iter.                  ...        0 min,  0.027 sec
     gradient                   ...        0 min,  0.093 sec
 * total energy  :   -80.1911789 Eh     change       -0.1314894E-04 Eh
   gradient norm :     0.0014315 Eh/α   predicted    -0.9706567E-05 ( -26.18%)
   displ. norm   :     0.0738114 α      lambda       -0.1277454E-04
   maximum displ.:     0.0492518 α      in ANC's #2, #1, #4, ...

........................................................................
.............................. CYCLE   15 ..............................
........................................................................
   1    -81.0439540 -0.810440E+02  0.733E-03    0.09       0.0  T
   2    -81.0434631  0.490874E-03  0.646E-02    0.11       1.0  T
   3    -81.0439598 -0.496677E-03  0.256E-03    0.09       5.7  T
   4    -81.0439604 -0.685562E-06  0.555E-04    0.09      26.3  T
   5    -81.0439605 -0.129943E-07  0.159E-04    0.09      91.5  T
   6    -81.0439605 -0.220240E-09  0.314E-05    0.09     464.3  T
     SCC iter.                  ...        0 min,  0.024 sec
     gradient                   ...        0 min,  0.093 sec
 * total energy  :   -80.1911900 Eh     change       -0.1108005E-04 Eh
   gradient norm :     0.0020514 Eh/α   predicted    -0.6410482E-05 ( -42.14%)
   displ. norm   :     0.0300879 α      lambda       -0.8088563E-05
   maximum displ.:     0.0217116 α      in ANC's #2, #1, #4, ...

........................................................................
.............................. CYCLE   16 ..............................
........................................................................
   1    -81.0435597 -0.810436E+02  0.289E-03    0.09       0.0  T
   2    -81.0434910  0.687469E-04  0.240E-02    0.10       1.0  T
   3    -81.0435605 -0.694776E-04  0.114E-03    0.09      12.8  T
   4    -81.0435605 -0.563624E-07  0.749E-04    0.09      19.5  T
   5    -81.0435606 -0.451458E-07  0.293E-04    0.09      49.8  T
   6    -81.0435606 -0.762940E-08  0.495E-05    0.09     294.4  T
   7    -81.0435606 -0.251191E-09  0.657E-06    0.09    2219.0  T
     SCC iter.                  ...        0 min,  0.027 sec
     gradient                   ...        0 min,  0.093 sec
 * total energy  :   -80.1911968 Eh     change       -0.6772290E-05 Eh
   gradient norm :     0.0015933 Eh/α   predicted    -0.4049321E-05 ( -40.21%)
   displ. norm   :     0.0857763 α      lambda       -0.1369875E-04
   maximum displ.:     0.0574326 α      in ANC's #2, #1, #15, ...

........................................................................
.............................. CYCLE   17 ..............................
........................................................................
   1    -81.0432361 -0.810432E+02  0.183E-02    0.09       0.0  T
   2    -81.0409574  0.227865E-02  0.140E-01    0.13       1.0  T
   3    -81.0432697 -0.231227E-02  0.794E-03    0.10       1.8  T
   4    -81.0432769 -0.722257E-05  0.936E-04    0.09      15.6  T
   5    -81.0432769 -0.453098E-07  0.527E-04    0.09      27.7  T
   6    -81.0432770 -0.241114E-07  0.109E-04    0.09     134.0  T
   7    -81.0432770 -0.901224E-09  0.623E-05    0.09     234.1  T
     SCC iter.                  ...        0 min,  0.028 sec
     gradient                   ...        0 min,  0.094 sec
 * total energy  :   -80.1912087 Eh     change       -0.1191222E-04 Eh
   gradient norm :     0.0013400 Eh/α   predicted    -0.6873022E-05 ( -42.30%)
   displ. norm   :     0.0871060 α      lambda        0.8911720E-05
   maximum displ.:     0.0584189 α      in ANC's #2, #1, #15, ...

........................................................................
.............................. CYCLE   18 ..............................
........................................................................
   1    -81.0428684 -0.810429E+02  0.186E-02    0.09       0.0  T
   2    -81.0405179  0.235056E-02  0.143E-01    0.14       1.0  T
   3    -81.0429031 -0.238527E-02  0.810E-03    0.10       1.8  T
   4    -81.0429106 -0.750500E-05  0.103E-03    0.09      14.2  T
   5    -81.0429107 -0.620998E-07  0.563E-04    0.09      25.9  T
   6    -81.0429107 -0.282170E-07  0.115E-04    0.09     127.3  T
   7    -81.0429107 -0.102965E-08  0.631E-05    0.09     231.2  T
     SCC iter.                  ...        0 min,  0.028 sec
     gradient                   ...        0 min,  0.093 sec
 * total energy  :   -80.1912032 Eh     change        0.5471740E-05 Eh
   gradient norm :     0.0032957 Eh/α   predicted     0.4469314E-05 ( -18.32%)
   displ. norm   :     0.0278454 α      lambda       -0.1253646E-04
   maximum displ.:     0.0097879 α      in ANC's #13, #15, #2, ...

........................................................................
.............................. CYCLE   19 ..............................
........................................................................
   1    -81.0431051 -0.810431E+02  0.114E-02    0.10       0.0  T
   2    -81.0409272  0.217794E-02  0.134E-01    0.07       1.0  T
   3    -81.0431211 -0.219393E-02  0.691E-04    0.09      21.1  T
   4    -81.0431211  0.540696E-08  0.551E-04    0.09      26.5  T
   5    -81.0431211 -0.495717E-09  0.446E-04    0.09      32.7  T
   6    -81.0431211 -0.191797E-07  0.788E-05    0.09     185.1  T
   7    -81.0431211 -0.290470E-09  0.562E-05    0.09     259.6  T
     SCC iter.                  ...        0 min,  0.027 sec
     gradient                   ...        0 min,  0.094 sec
 * total energy  :   -80.1912129 Eh     change       -0.9735961E-05 Eh
   gradient norm :     0.0020323 Eh/α   predicted    -0.6273870E-05 ( -35.56%)
   displ. norm   :     0.0344314 α      lambda       -0.1344832E-04
   maximum displ.:     0.0146907 α      in ANC's #2, #13, #10, ...

........................................................................
.............................. CYCLE   20 ..............................
........................................................................
   1    -81.0433820 -0.810434E+02  0.155E-02    0.10       0.0  T
   2    -81.0389876  0.439443E-02  0.191E-01    0.06       1.0  T
   3    -81.0434107 -0.442312E-02  0.203E-03    0.09       7.2  T
   4    -81.0434111 -0.434242E-06  0.451E-04    0.09      32.4  T
   5    -81.0434111  0.100400E-07  0.424E-04    0.09      34.4  T
   6    -81.0434111 -0.155069E-07  0.305E-05    0.09     477.6  T
   7    -81.0434111  0.274554E-09  0.542E-05    0.09     268.9  T
     SCC iter.                  ...        0 min,  0.028 sec
     gradient                   ...        0 min,  0.093 sec
 * total energy  :   -80.1912218 Eh     change       -0.8864658E-05 Eh
   gradient norm :     0.0005535 Eh/α   predicted    -0.6734149E-05 ( -24.03%)
   displ. norm   :     0.0578907 α      lambda       -0.6482024E-05
   maximum displ.:     0.0438264 α      in ANC's #2, #1, #3, ...
 * RMSD in coord.:     0.2564444 α      energy gain  -0.1197271E-01 Eh

generating ANC from model Hessian ...
Using Lindh-Hessian (1995)
 Shifting diagonal of input Hessian by   9.836718981132836E-003
 Lowest  eigenvalues of input Hessian
    0.000000    0.000000    0.000000    0.000000    0.000000    0.000000
    0.010000    0.010037    0.010391    0.010796    0.011456    0.011763
    0.012814    0.014109    0.015136    0.015993    0.016402    0.017496
 Highest eigenvalues
    1.969307    1.976226    2.020525    2.148817    2.314916    2.334867
 

........................................................................
.............................. CYCLE   21 ..............................
........................................................................
   1    -81.0435875 -0.810436E+02  0.114E-02    0.10       0.0  T
   2    -81.0414918  0.209575E-02  0.132E-01    0.07       1.0  T
   3    -81.0436028 -0.211108E-02  0.147E-03    0.09       9.9  T
   4    -81.0436031 -0.240414E-06  0.272E-04    0.09      53.6  T
   5    -81.0436031  0.352560E-08  0.249E-04    0.09      58.5  T
   6    -81.0436031 -0.500543E-08  0.393E-05    0.09     371.3  T
   7    -81.0436031 -0.455316E-10  0.306E-05    0.09     476.0  T
     SCC iter.                  ...        0 min,  0.028 sec
     gradient                   ...        0 min,  0.093 sec
 * total energy  :   -80.1912296 Eh     change       -0.7828636E-05 Eh
   gradient norm :     0.0009297 Eh/α   predicted     0.0000000E+00 (-100.00%)
   displ. norm   :     0.0229343 α      lambda       -0.2851550E-05
   maximum displ.:     0.0188103 α      in ANC's #2, #1, #5, ...

........................................................................
.............................. CYCLE   22 ..............................
........................................................................
   1    -81.0435778 -0.810436E+02  0.242E-03    0.09       0.0  T
   2    -81.0435245  0.532977E-04  0.212E-02    0.10       1.0  T
   3    -81.0435784 -0.538641E-04  0.733E-04    0.09      19.9  T
   4    -81.0435785 -0.414185E-07  0.340E-04    0.09      42.8  T
   5    -81.0435785 -0.882136E-08  0.129E-04    0.09     112.7  T
   6    -81.0435785 -0.107667E-08  0.547E-05    0.09     266.7  T
     SCC iter.                  ...        0 min,  0.037 sec
     gradient                   ...        0 min,  0.095 sec
 * total energy  :   -80.1912343 Eh     change       -0.4640383E-05 Eh
   gradient norm :     0.0003578 Eh/α   predicted    -0.1750357E-05 ( -62.28%)
   displ. norm   :     0.0563733 α      lambda       -0.6723488E-05
   maximum displ.:     0.0416347 α      in ANC's #2, #1, #5, ...

   *** GEOMETRY OPTIMIZATION CONVERGED AFTER 22 ITERATIONS ***

------------------------------------------------------------------------
 total energy gain   :        -0.0119852 Eh       -7.5208 kcal/mol
 total RMSD          :         0.2576470 a0        0.1363 Å
 total power (kW/mol):        -1.4303219 (step)   -8.3342 (real)
------------------------------------------------------------------------

 ANCopt (total)                0 d,  0 h,  0 min,  3.776 sec
 optimizer setup                ...        0 min,  0.001 sec (  0.025%)
 model hessian                  ...        0 min,  0.069 sec (  1.815%)
 ANC generation                 ...        0 min,  0.006 sec (  0.170%)
 coordinate transformation      ...        0 min,  0.001 sec (  0.024%)
 single point calculation       ...        0 min,  3.685 sec ( 97.595%)
 optimization log               ...        0 min,  0.008 sec (  0.206%)
 hessian update                 ...        0 min,  0.001 sec (  0.020%)
 rational function              ...        0 min,  0.003 sec (  0.082%)

================
 final structure:
================
47
 xtb: 6.5.1 (579679a)
C           -3.41745249579378       -0.93358225870600        2.41420928733041
C           -4.21869890526999       -0.55708316094327        1.13383335689102
C           -3.30691011529643       -0.01834492144616        0.05326525349080
C           -3.31591847644586        1.28845413536598       -0.34742485796075
C           -2.35080259214299        1.76652207095158       -1.42251612849125
N           -1.04959496492259        1.11992677404866       -1.34525907731680
C           -0.67282707271817        0.12183830350531       -2.16430909389863
O           -1.37546647197287       -0.28159928310624       -3.11126292185630
C            0.64549703290344       -0.45852688890933       -1.87408975122294
N            1.38904139148438        0.10343045668835       -0.87046695994759
C            2.55886105015759       -0.36530692154423       -0.56801472004381
C            3.29557845066940        0.35054449574662        0.56116716369374
C            2.55329185406822        1.65295557813418        0.90287616022456
C            3.34632044298802       -0.53959134249671        1.81076766452557
N            4.66229780093830        0.67507976902480        0.14684556793826
N            3.08387399864447       -1.45937173644883       -1.21227786122080
C            4.36935009694837       -2.06825247041090       -0.87362678527843
C            2.39321824993156       -2.12970208563754       -2.24428890726069
O            2.89667118417242       -3.12840698581003       -2.76909027848331
C            1.12414449484988       -1.54766241397236       -2.58294181761946
O            0.41949749577537       -2.11546655611835       -3.58755010005819
C           -4.25002413701439        2.22576209112598        0.14095413075619
C           -5.25027606000062        1.76674231224500        1.03265852878708
C           -5.25343008402402        0.48099463681551        1.44127097418390
F           -6.26684523457734        0.03598814747789        2.26551744343919
H           -2.68897910662218       -1.71041548779161        2.18268130132017
H           -4.09397305021252       -1.30223652144608        3.18596921976165
H           -2.89060097163322       -0.05859238865002        2.79473574451773
H           -4.71016158656106       -1.48888988765741        0.79498822906260
H           -2.59178786704728       -0.72281961675938       -0.35932384706335
H           -2.76431950001848        1.55999002591595       -2.41834645363993
H           -2.19937243643620        2.84843148078345       -1.33615857819690
H           -0.43934907661839        1.35961928808137       -0.57822186202195
H            1.54760407885220        1.43842451200883        1.26195685456181
H            2.48231020245490        2.28595829906584        0.01958384287729
H            3.10084771175846        2.18841914613177        1.67651013252488
H            3.95474479784465       -1.42562359330459        1.64143620198848
H            2.33972930272092       -0.85091293573456        2.08779434685756
H            3.77924247039505        0.01930845160573        2.63933383392975
H            4.63739896512419        1.38910135725596       -0.56921823534394
H            5.15856856473695        1.05825032034593        0.93842734235187
H            4.21190379042745       -2.91492458763011       -0.20255944852343
H            4.83356692379400       -2.43061694349478       -1.79233989523727
H            5.02326703470497       -1.33808712331373       -0.40702604206005
H           -0.41999268433911       -1.58434528588643       -3.68391059369146
H           -4.24590018410035        3.25385304654821       -0.19652863178031
H           -6.03414231257498        2.44076769836220        1.36336826719719
 
 Bond Distances (Angstroems)
 ---------------------------
C1-C2=1.5566         C1-H26=1.0898        C1-H27=1.0905        C1-H28=1.0899        C2-C1=1.5566         C2-C3=1.5130         
C2-C24=1.4976        C2-H29=1.1066        C3-C2=1.5130         C3-C4=1.3669         C3-H30=1.0853        C4-C3=1.3669         
C4-C5=1.5218         C4-C22=1.4105        C5-C4=1.5218         C5-N6=1.4551         C5-H31=1.0979        C5-H32=1.0959        
N6-C5=1.4551         N6-C7=1.3450         N6-H33=1.0091        C7-N6=1.3450         C7-O8=1.2463         C7-C9=1.4694         
O8-C7=1.2463         C9-C7=1.4694         C9-N10=1.3696        C9-C20=1.3848        N10-C9=1.3696        N10-C11=1.2960       
C11-N10=1.2960       C11-C12=1.5265       C11-N16=1.3739       C12-C11=1.5265       C12-C13=1.5375       C12-C14=1.5351       
C12-N15=1.4646       C13-C12=1.5375       C13-H34=1.0892       C13-H35=1.0890       C13-H36=1.0886       C14-C12=1.5351       
C14-H37=1.0881       C14-H38=1.0894       C14-H39=1.0892       N15-C12=1.4646       N15-H40=1.0115       N15-H41=1.0098       
N16-C11=1.3739       N16-C17=1.4621       N16-C18=1.4112       C17-N16=1.4621       C17-H42=1.0918       C17-H43=1.0913       
C17-H44=1.0856       C18-N16=1.4112       C18-O19=1.2354       C18-C20=1.4367       O19-C18=1.2354       C20-C9=1.3848        
C20-C18=1.4367       C20-O21=1.3521       O21-C20=1.3521       O21-H45=0.9981       C22-C4=1.4105        C22-C23=1.4165       
C22-H46=1.0821       C23-C22=1.4165       C23-C24=1.3491       C23-H47=1.0854       C24-C2=1.4976        C24-C23=1.3491       
C24-F25=1.3800       F25-C24=1.3800       H26-C1=1.0898        H27-C1=1.0905        H28-C1=1.0899        H29-C2=1.1066        
H30-C3=1.0853        H31-C5=1.0979        H32-C5=1.0959        H33-N6=1.0091        H34-C13=1.0892       H35-C13=1.0890       
H36-C13=1.0886       H37-C14=1.0881       H38-C14=1.0894       H39-C14=1.0892       H40-N15=1.0115       H41-N15=1.0098       
H42-C17=1.0918       H43-C17=1.0913       H44-C17=1.0856       H45-O21=0.9981       H46-C22=1.0821       H47-C23=1.0854       
 C  H  Rav=1.0903 sigma=0.0053  Rmin=1.0821  Rmax=1.1066    18
 C  C  Rav=1.4659 sigma=0.0679  Rmin=1.3491  Rmax=1.5566    14
 N  H  Rav=1.0101 sigma=0.0010  Rmin=1.0091  Rmax=1.0115     3
 N  C  Rav=1.3972 sigma=0.0576  Rmin=1.2960  Rmax=1.4646     8
 O  H  Rav=0.9981 sigma=0.0000  Rmin=0.9981  Rmax=0.9981     1
 O  C  Rav=1.2779 sigma=0.0526  Rmin=1.2354  Rmax=1.3521     3
 F  C  Rav=1.3800 sigma=0.0000  Rmin=1.3800  Rmax=1.3800     1
 
 selected bond angles (degree)
 --------------------
H26-C1-C2=109.98               H27-C1-C2=110.15               H27-C1-H26=108.91              H28-C1-C2=109.99               
H28-C1-H26=108.86              H28-C1-H27=108.92              C3-C2-C1=111.31                C24-C2-C1=110.76               
C24-C2-C3=108.43               H29-C2-C1=106.07               H29-C2-C3=110.41               H29-C2-C24=109.86              
C4-C3-C2=123.08                H30-C3-C2=115.94               H30-C3-C4=120.90               C5-C4-C3=120.22                
C22-C4-C3=122.56               C22-C4-C5=117.12               N6-C5-C4=112.96                H31-C5-C4=110.05               
H31-C5-N6=107.54               H32-C5-C4=110.01               H32-C5-N6=108.12               H32-C5-H31=108.01              
C7-N6-C5=123.23                H33-N6-C5=118.40               H33-N6-C7=118.02               O8-C7-N6=123.02                
C9-C7-N6=115.10                C9-C7-O8=121.87                N10-C9-C7=118.02               C20-C9-C7=121.31               
C20-C9-N10=120.67              C11-N10-C9=120.84              
 
 selected dihedral angles (degree)
 ---------------------------------
C3-C2-C1-H26=299.03           C3-C2-C1-H27=178.98           C3-C2-C1-H28= 58.92           C24-C2-C1-H26=178.32          
C24-C2-C1-H27= 58.27          C24-C2-C1-H28=298.20          H29-C2-C1-H26= 59.16          H29-C2-C1-H27=299.11          
H29-C2-C1-H28=179.05          C4-C3-C2-C1=249.18            C4-C3-C2-C24= 11.26           C4-C3-C2-H29=131.66           
H30-C3-C2-C1= 65.88           H30-C3-C2-C24=187.95          H30-C3-C2-H29=308.35          C5-C4-C3-C2=178.80            
C5-C4-C3-H30=  2.27           C22-C4-C3-C2=354.94           C22-C4-C3-H30=178.41          N6-C5-C4-C3=323.86            
N6-C5-C4-C22=147.51           H31-C5-C4-C3= 84.06           H31-C5-C4-C22=267.71          H32-C5-C4-C3=202.96           
H32-C5-C4-C22= 26.61          C7-N6-C5-C4=102.07            C7-N6-C5-H31=340.44           C7-N6-C5-H32=224.04           
H33-N6-C5-C4=289.05           H33-N6-C5-H31=167.42          H33-N6-C5-H32= 51.02          O8-C7-N6-C5=  4.40            
O8-C7-N6-H33=177.44           C9-C7-N6-C5=183.73            C9-C7-N6-H33=356.78           N10-C9-C7-N6=356.40           
N10-C9-C7-O8=175.74           C20-C9-C7-N6=175.90           C20-C9-C7-O8=355.25           C11-N10-C9-C7=179.96          
C11-N10-C9-C20=  0.45         
           -------------------------------------------------
          |                Final Singlepoint                |
           -------------------------------------------------

          ...................................................
          :                      SETUP                      :
          :.................................................:
          :  # basis functions                 144          :
          :  # atomic orbitals                 144          :
          :  # shells                           94          :
          :  # electrons                       136          :
          :  # halogen bonds                     0          :
          :  max. iterations                   250          :
          :  Hamiltonian                  GFN1-xTB          :
          :  restarted?                      false          :
          :  GBSA solvation                   true          :
          :  PC potential                    false          :
          :  electronic temp.          300.0000000     K    :
          :  accuracy                    1.0000000          :
          :  -> integral cutoff          0.2500000E+02      :
          :  -> integral neglect         0.1000000E-07      :
          :  -> SCF convergence          0.1000000E-05 Eh   :
          :  -> wf. convergence          0.2000000E-04 e    :
          :  Broyden damping             0.4000000          :
          ...................................................

 iter      E             dE          RMSdq      gap      omega  full diag
   1    -81.0435785 -0.810436E+02  0.470E-06    0.09       0.0  T
   2    -81.0435785  0.120679E-09  0.317E-05    0.09     460.2  T
   3    -81.0435785 -0.119300E-09  0.496E-06    0.09    2940.5  T

   *** convergence criteria satisfied after 3 iterations ***

         #    Occupation            Energy/Eh            Energy/eV
      -------------------------------------------------------------
         1        2.0000           -0.8035806             -21.8665
       ...           ...                  ...                  ...
        62        2.0000           -0.4200910             -11.4313
        63        2.0000           -0.4096359             -11.1468
        64        2.0000           -0.4069581             -11.0739
        65        2.0000           -0.4048303             -11.0160
        66        2.0000           -0.3924898             -10.6802
        67        2.0000           -0.3828478             -10.4178
        68        1.7218           -0.2937340              -7.9929 (HOMO)
        69        0.2782           -0.2902702              -7.8987 (LUMO)
        70                         -0.2524398              -6.8692
        71                         -0.2026882              -5.5154
        72                         -0.1983990              -5.3987
        73                         -0.1298018              -3.5321
       ...                                ...                  ...
       144                          0.7068865              19.2354
      -------------------------------------------------------------
                  HL-Gap            0.0034638 Eh            0.0943 eV
             Fermi-level           -0.2920021 Eh           -7.9458 eV

 SCC (total)                   0 d,  0 h,  0 min,  0.148 sec
 SCC setup                      ...        0 min,  0.002 sec (  1.481%)
 Dispersion                     ...        0 min,  0.000 sec (  0.279%)
 classical contributions        ...        0 min,  0.000 sec (  0.092%)
 integral evaluation            ...        0 min,  0.039 sec ( 26.396%)
 iterations                     ...        0 min,  0.013 sec (  8.567%)
 molecular gradient             ...        0 min,  0.092 sec ( 62.494%)
 printout                       ...        0 min,  0.001 sec (  0.654%)

         :::::::::::::::::::::::::::::::::::::::::::::::::::::
         ::                     SUMMARY                     ::
         :::::::::::::::::::::::::::::::::::::::::::::::::::::
         :: total energy             -80.191234277876 Eh    ::
         :: total w/o Gsasa/hb       -80.166992081652 Eh    ::
         :: gradient norm              0.000357020054 Eh/a0 ::
         :: HOMO-LUMO gap              0.094254665638 eV    ::
         ::.................................................::
         :: SCC energy               -81.043578464391 Eh    ::
         :: -> electrostatic           0.323308226699 Eh    ::
         :: -> Gsolv                  -0.099478018122 Eh    ::
         ::    -> Gelec               -0.075235821898 Eh    ::
         ::    -> Gsasa               -0.024535040301 Eh    ::
         ::    -> Ghb                 -0.007331434928 Eh    ::
         ::    -> Gshift               0.007624279005 Eh    ::
         :: repulsion energy           0.882406468806 Eh    ::
         :: dispersion energy         -0.030062282292 Eh    ::
         :: halogen bond corr.         0.000000000000 Eh    ::
         :: add. restraining           0.000000000000 Eh    ::
         :: total charge              -1.000000000000 e     ::
         :::::::::::::::::::::::::::::::::::::::::::::::::::::

           -------------------------------------------------
          |                Property Printout                |
           -------------------------------------------------

    * Orbital Energies and Occupations

         #    Occupation            Energy/Eh            Energy/eV
      -------------------------------------------------------------
         1        2.0000           -0.8035806             -21.8665
       ...           ...                  ...                  ...
        56        2.0000           -0.4573893             -12.4462
        57        2.0000           -0.4452922             -12.1170
        58        2.0000           -0.4418992             -12.0247
        59        2.0000           -0.4404151             -11.9843
        60        2.0000           -0.4295108             -11.6876
        61        2.0000           -0.4254873             -11.5781
        62        2.0000           -0.4200910             -11.4313
        63        2.0000           -0.4096359             -11.1468
        64        2.0000           -0.4069581             -11.0739
        65        2.0000           -0.4048303             -11.0160
        66        2.0000           -0.3924898             -10.6802
        67        2.0000           -0.3828478             -10.4178
        68        1.7218           -0.2937340              -7.9929 (HOMO)
        69        0.2782           -0.2902702              -7.8987 (LUMO)
        70                         -0.2524398              -6.8692
        71                         -0.2026882              -5.5154
        72                         -0.1983990              -5.3987
        73                         -0.1298018              -3.5321
        74                         -0.1274547              -3.4682
        75                         -0.1217383              -3.3127
        76                         -0.1158100              -3.1514
        77                         -0.1102585              -3.0003
        78                         -0.0965385              -2.6269
        79                         -0.0944096              -2.5690
       ...                                ...                  ...
       144                          0.7068865              19.2354
      -------------------------------------------------------------
                  HL-Gap            0.0034638 Eh            0.0943 eV
             Fermi-level           -0.2920021 Eh           -7.9458 eV

  Mulliken/CM5 charges         n(s)   n(p)   n(d)
     1C    -0.09360 -0.24066   1.015  3.078  0.000
     2C     0.00738 -0.04979   1.045  2.947  0.000
     3C    -0.15832 -0.21087   1.041  3.117  0.000
     4C    -0.00818 -0.01833   1.078  2.931  0.000
     5C     0.09534  0.05299   1.006  2.899  0.000
     6N    -0.32161 -0.68275   1.423  3.899  0.000
     7C     0.44289  0.54641   0.983  2.575  0.000
     8O    -0.63626 -0.70196   1.735  4.901  0.000
     9C     0.03945  0.11753   1.045  2.915  0.000
    10N    -0.40062 -0.59473   1.531  3.870  0.000
    11C     0.26286  0.41391   1.020  2.717  0.000
    12C     0.14566  0.17943   1.066  2.789  0.000
    13C    -0.10355 -0.24328   1.020  3.084  0.000
    14C    -0.10413 -0.24569   1.018  3.086  0.000
    15N    -0.51364 -0.97596   1.474  4.040  0.000
    16N    -0.23056 -0.47430   1.456  3.775  0.000
    17C     0.05142 -0.03537   0.987  2.961  0.000
    18C     0.41532  0.51381   0.987  2.598  0.000
    19O    -0.62555 -0.66796   1.735  4.890  0.000
    20C     0.19697  0.22994   1.021  2.782  0.000
    21O    -0.54323 -0.72538   1.708  4.836  0.000
    22C    -0.18134 -0.23491   1.025  3.156  0.000
    23C    -0.07807 -0.12861   1.047  3.031  0.000
    24C     0.14655  0.15421   1.047  2.806  0.000
    25F    -0.33717 -0.36057   1.850  5.487  0.000
    26H     0.01404  0.06599   0.986  0.000  0.000
    27H     0.01696  0.06964   0.983  0.000  0.000
    28H     0.00994  0.06290   0.990  0.000  0.000
    29H    -0.00234  0.05538   1.002  0.000  0.000
    30H     0.00068  0.06286   0.999  0.000  0.000
    31H     0.03893  0.10937   0.961  0.000  0.000
    32H     0.02204  0.08749   0.978  0.000  0.000
    33H     0.22566  0.43039   0.774  0.000  0.000
    34H     0.03487  0.09290   0.965  0.000  0.000
    35H     0.03582  0.09467   0.964  0.000  0.000
    36H     0.03661  0.09226   0.963  0.000  0.000
    37H     0.03762  0.09526   0.962  0.000  0.000
    38H     0.03740  0.09197   0.963  0.000  0.000
    39H     0.04405  0.09919   0.956  0.000  0.000
    40H     0.21920  0.41008   0.781  0.000  0.000
    41H     0.22162  0.41261   0.778  0.000  0.000
    42H     0.04277  0.10586   0.957  0.000  0.000
    43H     0.05681  0.12581   0.943  0.000  0.000
    44H     0.04394  0.11960   0.956  0.000  0.000
    45H     0.38747  0.57725   0.613  0.000  0.000
    46H    -0.00209  0.05448   1.002  0.000  0.000
    47H     0.01003  0.06692   0.990  0.000  0.000

Wiberg/Mayer (AO) data.
largest (>0.10) Wiberg bond orders for each atom

 ---------------------------------------------------------------------------
     #   Z sym  total        # sym  WBO       # sym  WBO       # sym  WBO
 ---------------------------------------------------------------------------
     1   6 C    3.970 --    28 H    0.989    26 H    0.988    27 H    0.987
                             2 C    0.964
     2   6 C    3.992 --    24 C    1.007     3 C    1.006     1 C    0.964
                            29 H    0.961
     3   6 C    3.811 --     4 C    1.594     2 C    1.006    30 H    0.975
     4   6 C    3.981 --     3 C    1.594    22 C    1.306     5 C    0.980
     5   6 C    3.937 --     4 C    0.980    32 H    0.976    31 H    0.968
                             6 N    0.939
     6   7 N    3.334 --     7 C    1.267     5 C    0.939    33 H    0.905
                             8 O    0.150
     7   6 C    3.868 --     8 O    1.465     6 N    1.267     9 C    1.055
     8   8 O    1.847 --     7 C    1.465     6 N    0.150
     9   6 C    3.874 --    20 C    1.399    10 N    1.180     7 C    1.055
    10   7 N    3.040 --    11 C    1.563     9 C    1.180
    11   6 C    3.905 --    10 N    1.563    16 N    1.166    12 C    0.975
    12   6 C    3.966 --    13 C    0.992    14 C    0.987    15 N    0.978
                            11 C    0.975
    13   6 C    3.995 --    12 C    0.992    36 H    0.986    35 H    0.984
                            34 H    0.983
    14   6 C    3.993 --    12 C    0.987    38 H    0.986    39 H    0.984
                            37 H    0.982
    15   7 N    2.992 --    12 C    0.978    40 H    0.943    41 H    0.943
    16   7 N    3.422 --    11 C    1.166    18 C    1.063    17 C    0.940
                            19 O    0.116
    17   6 C    3.935 --    42 H    0.978    43 H    0.977    44 H    0.970
                            16 N    0.940
    18   6 C    3.862 --    19 O    1.517    20 C    1.143    16 N    1.063
    19   8 O    1.810 --    18 C    1.517    16 N    0.116
    20   6 C    3.833 --     9 C    1.399    18 C    1.143    21 O    1.080
    21   8 O    2.018 --    20 C    1.080    45 H    0.767
    22   6 C    3.753 --     4 C    1.306    23 C    1.272    46 H    0.976
    23   6 C    3.989 --    24 C    1.625    22 C    1.272    47 H    0.971
    24   6 C    3.690 --    23 C    1.625     2 C    1.007    25 F    0.859
    25   9 F    0.965 --    24 C    0.859
    26   1 H    1.010 --     1 C    0.988
    27   1 H    1.010 --     1 C    0.987
    28   1 H    1.017 --     1 C    0.989
    29   1 H    1.006 --     2 C    0.961
    30   1 H    1.003 --     3 C    0.975
    31   1 H    1.018 --     5 C    0.968
    32   1 H    1.010 --     5 C    0.976
    33   1 H    0.971 --     6 N    0.905
    34   1 H    1.014 --    13 C    0.983
    35   1 H    1.011 --    13 C    0.984
    36   1 H    1.004 --    13 C    0.986
    37   1 H    1.005 --    14 C    0.982
    38   1 H    1.004 --    14 C    0.986
    39   1 H    1.001 --    14 C    0.984
    40   1 H    0.959 --    15 N    0.943
    41   1 H    0.957 --    15 N    0.943
    42   1 H    1.005 --    17 C    0.978
    43   1 H    1.014 --    17 C    0.977
    44   1 H    1.031 --    17 C    0.970
    45   1 H    0.872 --    21 O    0.767
    46   1 H    1.002 --    22 C    0.976
    47   1 H    1.006 --    23 C    0.971
 ---------------------------------------------------------------------------

Topologies differ in total number of bonds
Writing topology from bond orders to xtbtopo.mol

 dipole moment from electron density (au)
     X       Y       Z   
   6.2142   2.9851   3.3219  total (Debye):   19.451

           -------------------------------------------------
          |                Geometry Summary                 |
           -------------------------------------------------

      molecular mass/u    :      349.3806376
   center of mass at/Å    :       -0.3086323      -0.1862837      -0.5047365
  moments of inertia/u·Å² :        0.1419366E+04   0.4777659E+04   0.5272304E+04
rotational constants/cm⁻¹ :        0.1187687E-01   0.3528429E-02   0.3197394E-02

 * 39 selected distances

     #   Z          #   Z                                           value/Å
     3   6 C        4   6 C                                       1.3668789
     5   6 C        6   7 N                                       1.4550587
     6   7 N        7   6 C                                       1.3449825
     9   6 C       10   7 N                                       1.3696399
    10   7 N       11   6 C                                       1.2960210
    12   6 C       13   6 C                                       1.5375401 (max)
    12   6 C       14   6 C                                       1.5350630
    12   6 C       15   7 N                                       1.4645503
    11   6 C       16   7 N                                       1.3739330
    16   7 N       17   6 C                                       1.4621455
    16   7 N       18   6 C                                       1.4111681
    18   6 C       19   8 O                                       1.2354324
     9   6 C       20   6 C                                       1.3848434
    20   6 C       21   8 O                                       1.3520973
     4   6 C       22   6 C                                       1.4105368
    22   6 C       23   6 C                                       1.4164534
    23   6 C       24   6 C                                       1.3491188
     1   6 C       26   1 H                                       1.0898389
     1   6 C       27   1 H                                       1.0905043
     1   6 C       28   1 H                                       1.0899451
     2   6 C       29   1 H                                       1.1066235
     3   6 C       30   1 H                                       1.0853177
     5   6 C       31   1 H                                       1.0978752
     5   6 C       32   1 H                                       1.0958635
     6   7 N       33   1 H                                       1.0090584
    13   6 C       34   1 H                                       1.0892064
    13   6 C       35   1 H                                       1.0890071
    13   6 C       36   1 H                                       1.0885993
    14   6 C       37   1 H                                       1.0880748
    14   6 C       38   1 H                                       1.0894452
    14   6 C       39   1 H                                       1.0891798
    15   7 N       40   1 H                                       1.0115307
    15   7 N       41   1 H                                       1.0098050
    17   6 C       42   1 H                                       1.0917759
    17   6 C       43   1 H                                       1.0912558
    17   6 C       44   1 H                                       1.0855714
    21   8 O       45   1 H                                       0.9980577 (min)
    22   6 C       46   1 H                                       1.0820734
    23   6 C       47   1 H                                       1.0854150

 * 6 distinct bonds (by element types)

   Z      Z             #   av. dist./Å        max./Å        min./Å
   1 H    6 C          18     1.0903096     1.1066235     1.0820734
   6 C    6 C           7     1.4286335     1.5375401     1.3491188
   1 H    7 N           3     1.0101314     1.0115307     1.0090584
   6 C    7 N           8     1.3971874     1.4645503     1.2960210
   1 H    8 O           1     0.9980577     0.9980577     0.9980577
   6 C    8 O           2     1.2937648     1.3520973     1.2354324


optimized geometry written to: xtbopt.xyz


           -------------------------------------------------
          | TOTAL ENERGY              -80.191234277876 Eh   |
          | GRADIENT NORM               0.000357020054 Eh/α |
          | HOMO-LUMO GAP               0.094254665638 eV   |
           -------------------------------------------------

------------------------------------------------------------------------
 * finished run on 2023/06/20 at 15:07:06.373     
------------------------------------------------------------------------
 total:
 * wall-time:     0 d,  0 h,  0 min,  4.429 sec
 *  cpu-time:     0 d,  0 h,  0 min,  4.207 sec
 * ratio c/w:     0.950 speedup
 SCF:
 * wall-time:     0 d,  0 h,  0 min,  0.290 sec
 *  cpu-time:     0 d,  0 h,  0 min,  0.247 sec
 * ratio c/w:     0.850 speedup
 ANC optimizer:
 * wall-time:     0 d,  0 h,  0 min,  3.930 sec
 *  cpu-time:     0 d,  0 h,  0 min,  3.906 sec
 * ratio c/w:     0.994 speedup

