      -----------------------------------------------------------      
     |                   =====================                   |     
     |                           x T B                           |     
     |                   =====================                   |     
     |                         S. Grimme                         |     
     |          Mulliken Center for Theoretical Chemistry        |     
     |                    University of Bonn                     |     
      -----------------------------------------------------------      

   * xtb version 6.5.1 (579679a) compiled by 'ehlert@majestix' on 2022-07-11

   xtb is free software: you can redistribute it and/or modify it under
   the terms of the GNU Lesser General Public License as published by
   the Free Software Foundation, either version 3 of the License, or
   (at your option) any later version.
   
   xtb is distributed in the hope that it will be useful,
   but WITHOUT ANY WARRANTY; without even the implied warranty of
   MERCHANTABILITY or FITNESS FOR A PARTICULAR PURPOSE.  See the
   GNU Lesser General Public License for more details.
   
   Cite this work as:
   * C. Bannwarth, E. Caldeweyher, S. Ehlert, A. Hansen, P. Pracht,
     J. Seibert, S. Spicher, S. Grimme, WIREs Comput. Mol. Sci., 2020, 11,
     e01493. DOI: 10.1002/wcms.1493
   
   for GFN2-xTB:
   * C. Bannwarth, S. Ehlert and S. Grimme., J. Chem. Theory Comput., 2019,
     15, 1652-1671. DOI: 10.1021/acs.jctc.8b01176
   for GFN1-xTB:
   * S. Grimme, C. Bannwarth, P. Shushkov, J. Chem. Theory Comput., 2017,
     13, 1989-2009. DOI: 10.1021/acs.jctc.7b00118
   for GFN0-xTB:
   * P. Pracht, E. Caldeweyher, S. Ehlert, S. Grimme, ChemRxiv, 2019, preprint.
     DOI: 10.26434/chemrxiv.8326202.v1
   for GFN-FF:
   * S. Spicher and S. Grimme, Angew. Chem. Int. Ed., 2020, 59, 15665-15673.
     DOI: 10.1002/anie.202004239
   
   for ALPB and GBSA implicit solvation:
   * S. Ehlert, M. Stahn, S. Spicher, S. Grimme, J. Chem. Theory Comput.,
     2021, 17, 4250-4261. DOI: 10.1021/acs.jctc.1c00471
   
   for DFT-D4:
   * E. Caldeweyher, C. Bannwarth and S. Grimme, J. Chem. Phys., 2017,
     147, 034112. DOI: 10.1063/1.4993215
   * E. Caldeweyher, S. Ehlert, A. Hansen, H. Neugebauer, S. Spicher,
     C. Bannwarth and S. Grimme, J. Chem. Phys., 2019, 150, 154122.
     DOI: 10.1063/1.5090222
   * E. Caldeweyher, J.-M. Mewes, S. Ehlert and S. Grimme, Phys. Chem. Chem. Phys.
     2020, 22, 8499-8512. DOI: 10.1039/D0CP00502A
   
   for sTDA-xTB:
   * S. Grimme and C. Bannwarth, J. Chem. Phys., 2016, 145, 054103.
     DOI: 10.1063/1.4959605
   
   in the mass-spec context:
   * V. Asgeirsson, C. Bauer and S. Grimme, Chem. Sci., 2017, 8, 4879.
     DOI: 10.1039/c7sc00601b
   * J. Koopman and S. Grimme, ACS Omega 2019, 4, 12, 15120-15133.
     DOI: 10.1021/acsomega.9b02011
   
   for metadynamics refer to:
   * S. Grimme, J. Chem. Theory Comput., 2019, 155, 2847-2862
     DOI: 10.1021/acs.jctc.9b00143
   
   for SPH calculations refer to:
   * S. Spicher and S. Grimme, J. Chem. Theory Comput., 2021, 17, 1701-1714
     DOI: 10.1021/acs.jctc.0c01306
   
   with help from (in alphabetical order)
   P. Atkinson, C. Bannwarth, F. Bohle, G. Brandenburg, E. Caldeweyher
   M. Checinski, S. Dohm, S. Ehlert, S. Ehrlich, I. Gerasimov, C. Hölzer
   A. Katbashev, J. Koopman, C. Lavigne, S. Lehtola, F. März, M. Müller,
   F. Musil, H. Neugebauer, J. Pisarek, C. Plett, P. Pracht, F. Pultar,
   J. Seibert, P. Shushkov, S. Spicher, M. Stahn, M. Steiner, T. Strunk,
   J. Stückrath, T. Rose, and J. Unsleber
   
 * started run on 2023/06/20 at 14:52:58.666     

           -------------------------------------------------
          |                Calculation Setup                |
           -------------------------------------------------

          program call               : /lustre/hpc/kemi/ree/PhD/git/ReactivityQM/dep/xtb-6.5.1/bin/xtb --gfn 1 /lustre/hpc/kemi/ree/PhD/git/ReactivityQM/calculations/R01/reac01prodE02/conf06/R01_reac01prodE02_conf06_gfn1.xyz --opt --vfukui --chrg -1 --uhf 0 --alpb DMSO
          hostname                   : node312
          coordinate file            : /lustre/hpc/kemi/ree/PhD/git/ReactivityQM/calculations/R01/reac01prodE02/conf06/R01_reac01prodE02_conf06_gfn1.xyz
          omp threads                :                     1

   ID    Z sym.   atoms
    1    6 C      1, 3, 5, 6, 9, 10
    2    8 O      2, 4, 11
    3    7 N      7, 8
    4    1 H      12-20

           -------------------------------------------------
          |                 G F N 1 - x T B                 |
           -------------------------------------------------

        Reference                      10.1021/acs.jctc.7b00118
      * Hamiltonian:
        H0-scaling (s, p, d)           1.850000    2.250000    2.000000
        zeta-weighting                 0.000000
      * Dispersion:
        s8                             2.400000
        a1                             0.630000
        a2                             5.000000
        s9                             0.000000
      * Repulsion:
        kExp                           1.500000
        rExp                           1.000000
      * Coulomb:
        alpha                          2.000000
        third order                    atomic
        anisotropic                    false
      * Halogen bond correction:
        rad-scale                      1.300000
        damping                        0.440000

      * Solvation model:               ALPB
        Solvent                        DMSO
        Parameter file                 internal GFN1-xTB/ALPB
        Dielectric constant                4.6680E+01
        Reference state                gsolv [1 M gas/solution]
        Free energy shift                  7.6243E-03 Eh       4.7843E+00 kcal/mol
        Temperature                        2.9815E+02 K
        Density                            1.1000E+00 kg/L
        Solvent mass                       7.8130E+01 g/mol
        Interaction kernel             P16
        Born radius scaling (c1)           1.7672E+00
        Born radii integrator          GBOBC
        Born offset                        0.0000E+00 a0       0.0000E+00 AA
        H-bond correction              true
        Ion screening                  false
        Surface tension                    1.0000E-05 Eh       1.5569E+01 dyn/cm
        Grid points                               230 per atom

          ...................................................
          :                      SETUP                      :
          :.................................................:
          :  # basis functions                  62          :
          :  # atomic orbitals                  62          :
          :  # shells                           40          :
          :  # electrons                        62          :
          :  # halogen bonds                     0          :
          :  max. iterations                   250          :
          :  Hamiltonian                  GFN1-xTB          :
          :  restarted?                      false          :
          :  GBSA solvation                   true          :
          :  PC potential                    false          :
          :  electronic temp.          300.0000000     K    :
          :  accuracy                    1.0000000          :
          :  -> integral cutoff          0.2500000E+02      :
          :  -> integral neglect         0.1000000E-07      :
          :  -> SCF convergence          0.1000000E-05 Eh   :
          :  -> wf. convergence          0.2000000E-04 e    :
          :  Broyden damping             0.4000000          :
          ...................................................

 iter      E             dE          RMSdq      gap      omega  full diag
   1    -38.4516458 -0.384516E+02  0.842E+00    2.44       0.0  T
   2    -38.5535882 -0.101942E+00  0.515E+00    2.20       1.0  T
   3    -38.5228005  0.307877E-01  0.219E+00    2.49       1.0  T
   4    -38.5735925 -0.507920E-01  0.321E-01    2.18       1.0  T
   5    -38.5745146 -0.922125E-03  0.430E-02    2.22       1.0  T
   6    -38.5745473 -0.326419E-04  0.195E-02    2.19       1.1  T
   7    -38.5745557 -0.836878E-05  0.466E-03    2.20       4.8  T
   8    -38.5745558 -0.113242E-06  0.132E-03    2.20      17.0  T
   9    -38.5745558 -0.942787E-08  0.279E-04    2.20      80.1  T
  10    -38.5745558 -0.300822E-09  0.582E-05    2.20     383.9  T
  11    -38.5745558 -0.183960E-10  0.170E-05    2.20    1318.9  T

   *** convergence criteria satisfied after 11 iterations ***

         #    Occupation            Energy/Eh            Energy/eV
      -------------------------------------------------------------
         1        2.0000           -0.7609266             -20.7059
       ...           ...                  ...                  ...
        25        2.0000           -0.4425607             -12.0427
        26        2.0000           -0.4365602             -11.8794
        27        2.0000           -0.4113581             -11.1936
        28        2.0000           -0.3869713             -10.5300
        29        2.0000           -0.3613706              -9.8334
        30        2.0000           -0.3484578              -9.4820
        31        2.0000           -0.2556560              -6.9568 (HOMO)
        32                         -0.1748676              -4.7584 (LUMO)
        33                         -0.1219234              -3.3177
        34                         -0.1120771              -3.0498
        35                         -0.1112693              -3.0278
        36                         -0.0987775              -2.6879
       ...                                ...                  ...
        62                          0.5820590              15.8386
      -------------------------------------------------------------
                  HL-Gap            0.0807884 Eh            2.1984 eV
             Fermi-level           -0.2152618 Eh           -5.8576 eV

 SCC (total)                   0 d,  0 h,  0 min,  0.043 sec
 SCC setup                      ...        0 min,  0.001 sec (  2.202%)
 Dispersion                     ...        0 min,  0.000 sec (  0.295%)
 classical contributions        ...        0 min,  0.000 sec (  0.113%)
 integral evaluation            ...        0 min,  0.010 sec ( 23.571%)
 iterations                     ...        0 min,  0.010 sec ( 23.257%)
 molecular gradient             ...        0 min,  0.022 sec ( 49.970%)
 printout                       ...        0 min,  0.000 sec (  0.505%)

         :::::::::::::::::::::::::::::::::::::::::::::::::::::
         ::                     SUMMARY                     ::
         :::::::::::::::::::::::::::::::::::::::::::::::::::::
         :: total energy             -38.275021759036 Eh    ::
         :: total w/o Gsasa/hb       -38.266478721515 Eh    ::
         :: gradient norm              0.140142447735 Eh/a0 ::
         :: HOMO-LUMO gap              2.198365315531 eV    ::
         ::.................................................::
         :: SCC energy               -38.574555774905 Eh    ::
         :: -> electrostatic           0.253513043770 Eh    ::
         :: -> Gsolv                  -0.103655867345 Eh    ::
         ::    -> Gelec               -0.095112829824 Eh    ::
         ::    -> Gsasa               -0.015397158272 Eh    ::
         ::    -> Ghb                 -0.000770158254 Eh    ::
         ::    -> Gshift               0.007624279005 Eh    ::
         :: repulsion energy           0.307783779943 Eh    ::
         :: dispersion energy         -0.008249764074 Eh    ::
         :: halogen bond corr.         0.000000000000 Eh    ::
         :: add. restraining           0.000000000000 Eh    ::
         :: total charge              -1.000000000000 e     ::
         :::::::::::::::::::::::::::::::::::::::::::::::::::::

      ----------------------------------------------------------- 
     |                   =====================                   |
     |                        A N C O P T                        |
     |                   =====================                   |
     |               Approximate Normal Coordinate               |
     |                Rational Function Optimizer                |
      ----------------------------------------------------------- 

          ...................................................
          :                      SETUP                      :
          :.................................................:
          :   optimization level            normal          :
          :   max. optcycles                   200          :
          :   ANC micro-cycles                  20          :
          :   degrees of freedom                54          :
          :.................................................:
          :   RF solver                   davidson          :
          :   write xtbopt.log                true          :
          :   linear?                        false          :
          :   energy convergence         0.5000000E-05 Eh   :
          :   grad. convergence          0.1000000E-02 Eh/α :
          :   maximium RF displ.         1.0000000          :
          :   Hlow (freq-cutoff)         0.1000000E-01      :
          :   Hmax (freq-cutoff)         5.0000000          :
          :   S6 in model hess.         20.0000000          :
          ...................................................

generating ANC from model Hessian ...
Using Lindh-Hessian (1995)
 Shifting diagonal of input Hessian by   8.567450356473891E-003
 Lowest  eigenvalues of input Hessian
    0.000000    0.000000    0.000000    0.000000    0.000000    0.000000
    0.010000    0.011333    0.012180    0.013391    0.013581    0.016224
    0.018431    0.027870    0.028461    0.034268    0.036746    0.046683
 Highest eigenvalues
    1.549978    1.604273    1.790750    1.861645    1.929422    2.051794
 

........................................................................
.............................. CYCLE    1 ..............................
........................................................................
   1    -38.5745558 -0.385746E+02  0.368E-06    2.20       0.0  T
   2    -38.5745558 -0.568434E-13  0.227E-06    2.20    9832.9  T
   3    -38.5745558  0.213163E-13  0.130E-06    2.20   17257.2  T
     SCC iter.                  ...        0 min,  0.003 sec
     gradient                   ...        0 min,  0.020 sec
 * total energy  :   -38.2750218 Eh     change       -0.3112177E-11 Eh
   gradient norm :     0.1401426 Eh/α   predicted     0.0000000E+00 (-100.00%)
   displ. norm   :     0.2787512 α      lambda       -0.1559029E-01
   maximum displ.:     0.1653379 α      in ANC's #8, #2, #14, ...

........................................................................
.............................. CYCLE    2 ..............................
........................................................................
   1    -38.5866401 -0.385866E+02  0.164E-01    2.43       0.0  T
   2    -38.5870138 -0.373692E-03  0.864E-02    2.39       1.0  T
   3    -38.5871337 -0.119914E-03  0.287E-02    2.41       1.0  T
   4    -38.5871346 -0.877466E-06  0.152E-02    2.40       1.5  T
   5    -38.5871350 -0.450588E-06  0.272E-03    2.41       8.2  T
   6    -38.5871352 -0.178060E-06  0.370E-04    2.40      60.4  T
   7    -38.5871352 -0.663775E-09  0.129E-04    2.40     173.6  T
   8    -38.5871352 -0.480540E-10  0.259E-05    2.40     863.4  T
     SCC iter.                  ...        0 min,  0.006 sec
     gradient                   ...        0 min,  0.021 sec
 * total energy  :   -38.2863877 Eh     change       -0.1136594E-01 Eh
   gradient norm :     0.0615451 Eh/α   predicted    -0.8403908E-02 ( -26.06%)
   displ. norm   :     0.2993095 α      lambda       -0.6387788E-02
   maximum displ.:     0.1936677 α      in ANC's #8, #2, #6, ...

........................................................................
.............................. CYCLE    3 ..............................
........................................................................
   1    -38.5948582 -0.385949E+02  0.156E-01    2.60       0.0  T
   2    -38.5952313 -0.373120E-03  0.812E-02    2.55       1.0  T
   3    -38.5953441 -0.112808E-03  0.243E-02    2.56       1.0  T
   4    -38.5953444 -0.260698E-06  0.121E-02    2.56       1.9  T
   5    -38.5953446 -0.186322E-06  0.183E-03    2.56      12.2  T
   6    -38.5953446 -0.777967E-07  0.314E-04    2.56      71.3  T
   7    -38.5953446 -0.579654E-09  0.122E-04    2.56     182.9  T
   8    -38.5953446 -0.422418E-10  0.250E-05    2.56     894.3  T
     SCC iter.                  ...        0 min,  0.006 sec
     gradient                   ...        0 min,  0.021 sec
 * total energy  :   -38.2899396 Eh     change       -0.3551864E-02 Eh
   gradient norm :     0.0194287 Eh/α   predicted    -0.3480492E-02 (  -2.01%)
   displ. norm   :     0.1610806 α      lambda       -0.7642010E-03
   maximum displ.:     0.0996802 α      in ANC's #8, #6, #10, ...

........................................................................
.............................. CYCLE    4 ..............................
........................................................................
   1    -38.5943132 -0.385943E+02  0.350E-02    2.56       0.0  T
   2    -38.5943319 -0.187100E-04  0.213E-02    2.54       1.0  T
   3    -38.5943389 -0.695043E-05  0.761E-03    2.54       2.9  T
   4    -38.5943389 -0.805530E-08  0.148E-03    2.54      15.1  T
   5    -38.5943389 -0.539613E-08  0.329E-04    2.54      68.0  T
   6    -38.5943389 -0.174280E-08  0.108E-04    2.54     207.8  T
   7    -38.5943389 -0.109409E-09  0.441E-05    2.54     507.6  T
     SCC iter.                  ...        0 min,  0.006 sec
     gradient                   ...        0 min,  0.021 sec
 * total energy  :   -38.2904606 Eh     change       -0.5210624E-03 Eh
   gradient norm :     0.0096514 Eh/α   predicted    -0.3920349E-03 ( -24.76%)
   displ. norm   :     0.1325315 α      lambda       -0.3158767E-03
   maximum displ.:     0.0777988 α      in ANC's #8, #6, #9, ...

........................................................................
.............................. CYCLE    5 ..............................
........................................................................
   1    -38.5947807 -0.385948E+02  0.226E-02    2.52       0.0  T
   2    -38.5947874 -0.678607E-05  0.143E-02    2.51       1.6  T
   3    -38.5947899 -0.248393E-05  0.620E-03    2.52       3.6  T
   4    -38.5947899  0.162763E-08  0.790E-04    2.52      28.3  T
   5    -38.5947899 -0.780745E-08  0.295E-04    2.52      75.7  T
   6    -38.5947899 -0.161960E-08  0.752E-05    2.52     297.4  T
   7    -38.5947899 -0.385469E-10  0.238E-05    2.52     939.9  T
     SCC iter.                  ...        0 min,  0.006 sec
     gradient                   ...        0 min,  0.021 sec
 * total energy  :   -38.2906714 Eh     change       -0.2107633E-03 Eh
   gradient norm :     0.0042381 Eh/α   predicted    -0.1607657E-03 ( -23.72%)
   displ. norm   :     0.1223906 α      lambda       -0.1470571E-03
   maximum displ.:     0.0578889 α      in ANC's #6, #3, #9, ...

........................................................................
.............................. CYCLE    6 ..............................
........................................................................
   1    -38.5954674 -0.385955E+02  0.126E-02    2.50       0.0  T
   2    -38.5954692 -0.186118E-05  0.771E-03    2.50       2.9  T
   3    -38.5954699 -0.628576E-06  0.370E-03    2.50       6.0  T
   4    -38.5954699 -0.147541E-08  0.467E-04    2.50      47.9  T
   5    -38.5954699 -0.289768E-08  0.151E-04    2.50     147.7  T
   6    -38.5954699 -0.389811E-09  0.474E-05    2.50     472.2  T
     SCC iter.                  ...        0 min,  0.005 sec
     gradient                   ...        0 min,  0.021 sec
 * total energy  :   -38.2907889 Eh     change       -0.1175622E-03 Eh
   gradient norm :     0.0037622 Eh/α   predicted    -0.7465580E-04 ( -36.50%)
   displ. norm   :     0.3060021 α      lambda       -0.2917720E-03
   maximum displ.:     0.1598050 α      in ANC's #3, #9, #6, ...

........................................................................
.............................. CYCLE    7 ..............................
........................................................................
   1    -38.5955225 -0.385955E+02  0.189E-02    2.48       0.0  T
   2    -38.5955261 -0.365830E-05  0.103E-02    2.48       2.2  T
   3    -38.5955275 -0.133444E-05  0.505E-03    2.48       4.4  T
   4    -38.5955275 -0.311479E-07  0.557E-04    2.48      40.1  T
   5    -38.5955275 -0.149012E-08  0.138E-04    2.48     162.6  T
   6    -38.5955275 -0.121190E-09  0.580E-05    2.48     385.6  T
     SCC iter.                  ...        0 min,  0.005 sec
     gradient                   ...        0 min,  0.022 sec
 * total energy  :   -38.2910558 Eh     change       -0.2668628E-03 Eh
   gradient norm :     0.0071887 Eh/α   predicted    -0.1595481E-03 ( -40.21%)
   displ. norm   :     0.7954139 α      lambda       -0.7900206E-03
   maximum displ.:     0.4254371 α      in ANC's #3, #9, #6, ...

........................................................................
.............................. CYCLE    8 ..............................
........................................................................
   1    -38.5863020 -0.385863E+02  0.799E-02    2.48       0.0  T
   2    -38.5863895 -0.875359E-04  0.435E-02    2.45       1.0  T
   3    -38.5864110 -0.214760E-04  0.229E-02    2.46       1.0  T
   4    -38.5864115 -0.458600E-06  0.524E-03    2.46       4.3  T
   5    -38.5864115 -0.572955E-07  0.148E-03    2.46      15.1  T
   6    -38.5864116 -0.416927E-07  0.276E-04    2.46      81.1  T
   7    -38.5864116 -0.392880E-09  0.935E-05    2.46     239.1  T
   8    -38.5864116 -0.368914E-10  0.240E-05    2.46     932.6  T
     SCC iter.                  ...        0 min,  0.007 sec
     gradient                   ...        0 min,  0.020 sec
 * total energy  :   -38.2907751 Eh     change        0.2807573E-03 Eh
   gradient norm :     0.0325799 Eh/α   predicted    -0.6449297E-03 (-329.71%)
   displ. norm   :     0.3228437 α      lambda       -0.2088557E-02
   maximum displ.:     0.2053532 α      in ANC's #3, #9, #6, ...

........................................................................
.............................. CYCLE    9 ..............................
........................................................................
   1    -38.5962847 -0.385963E+02  0.553E-02    2.46       0.0  T
   2    -38.5963119 -0.272741E-04  0.323E-02    2.48       1.0  T
   3    -38.5963182 -0.631033E-05  0.188E-02    2.47       1.2  T
   4    -38.5963187 -0.492016E-06  0.229E-03    2.47       9.8  T
   5    -38.5963188 -0.332121E-07  0.633E-04    2.47      35.3  T
   6    -38.5963188 -0.719891E-08  0.153E-04    2.47     146.1  T
   7    -38.5963188 -0.154877E-09  0.550E-05    2.47     406.4  T
     SCC iter.                  ...        0 min,  0.006 sec
     gradient                   ...        0 min,  0.021 sec
 * total energy  :   -38.2916457 Eh     change       -0.8706842E-03 Eh
   gradient norm :     0.0113564 Eh/α   predicted    -0.1153212E-02 (  32.45%)
   displ. norm   :     0.1576777 α      lambda       -0.3236446E-03
   maximum displ.:     0.0751152 α      in ANC's #9, #3, #6, ...

........................................................................
.............................. CYCLE   10 ..............................
........................................................................
   1    -38.5968641 -0.385969E+02  0.124E-02    2.49       0.0  T
   2    -38.5968671 -0.299469E-05  0.625E-03    2.49       3.6  T
   3    -38.5968679 -0.799844E-06  0.207E-03    2.49      10.8  T
   4    -38.5968679 -0.975591E-08  0.975E-04    2.49      22.9  T
   5    -38.5968679 -0.146990E-09  0.304E-04    2.49      73.6  T
   6    -38.5968679 -0.125725E-08  0.691E-05    2.49     323.6  T
   7    -38.5968679 -0.209823E-10  0.114E-05    2.49    1958.2  T
     SCC iter.                  ...        0 min,  0.006 sec
     gradient                   ...        0 min,  0.021 sec
 * total energy  :   -38.2919630 Eh     change       -0.3172484E-03 Eh
   gradient norm :     0.0100963 Eh/α   predicted    -0.1658516E-03 ( -47.72%)
   displ. norm   :     0.8478260 α      lambda       -0.1898802E-02
   maximum displ.:     0.4109847 α      in ANC's #9, #3, #6, ...

........................................................................
.............................. CYCLE   11 ..............................
........................................................................
   1    -38.5876955 -0.385877E+02  0.957E-02    2.59       0.0  T
   2    -38.5878300 -0.134444E-03  0.538E-02    2.55       1.0  T
   3    -38.5878596 -0.296325E-04  0.281E-02    2.56       1.0  T
   4    -38.5878602 -0.608482E-06  0.644E-03    2.56       3.5  T
   5    -38.5878603 -0.857704E-07  0.679E-04    2.56      33.0  T
   6    -38.5878603 -0.297581E-08  0.271E-04    2.56      82.6  T
   7    -38.5878603 -0.449816E-09  0.612E-05    2.56     365.1  T
   8    -38.5878603 -0.129390E-10  0.300E-05    2.56     746.4  T
     SCC iter.                  ...        0 min,  0.006 sec
     gradient                   ...        0 min,  0.021 sec
 * total energy  :   -38.2923301 Eh     change       -0.3671639E-03 Eh
   gradient norm :     0.0314305 Eh/α   predicted    -0.1631914E-02 ( 344.46%)
   displ. norm   :     0.3135784 α      lambda       -0.2349044E-02
   maximum displ.:     0.1566216 α      in ANC's #9, #3, #2, ...

........................................................................
.............................. CYCLE   12 ..............................
........................................................................
   1    -38.5985338 -0.385985E+02  0.723E-02    2.56       0.0  T
   2    -38.5985905 -0.567165E-04  0.413E-02    2.57       1.0  T
   3    -38.5986021 -0.115807E-04  0.238E-02    2.57       1.0  T
   4    -38.5986027 -0.662820E-06  0.425E-03    2.57       5.3  T
   5    -38.5986028 -0.631443E-07  0.526E-04    2.57      42.5  T
   6    -38.5986028 -0.526505E-08  0.153E-04    2.57     146.6  T
   7    -38.5986028 -0.400547E-09  0.530E-05    2.57     421.6  T
     SCC iter.                  ...        0 min,  0.006 sec
     gradient                   ...        0 min,  0.021 sec
 * total energy  :   -38.2931922 Eh     change       -0.8620537E-03 Eh
   gradient norm :     0.0098093 Eh/α   predicted    -0.1289983E-02 (  49.64%)
   displ. norm   :     0.1800908 α      lambda       -0.3812941E-03
   maximum displ.:     0.0956371 α      in ANC's #1, #4, #9, ...

........................................................................
.............................. CYCLE   13 ..............................
........................................................................
   1    -38.5973416 -0.385973E+02  0.177E-02    2.57       0.0  T
   2    -38.5973458 -0.422532E-05  0.874E-03    2.57       2.6  T
   3    -38.5973467 -0.945194E-06  0.437E-03    2.57       5.1  T
   4    -38.5973468 -0.281751E-07  0.134E-03    2.57      16.7  T
   5    -38.5973468 -0.104983E-08  0.221E-04    2.57     101.1  T
   6    -38.5973468 -0.746510E-09  0.846E-05    2.57     264.4  T
   7    -38.5973468 -0.758860E-10  0.239E-05    2.57     935.5  T
     SCC iter.                  ...        0 min,  0.006 sec
     gradient                   ...        0 min,  0.021 sec
 * total energy  :   -38.2935040 Eh     change       -0.3118279E-03 Eh
   gradient norm :     0.0076187 Eh/α   predicted    -0.1968551E-03 ( -36.87%)
   displ. norm   :     0.5117911 α      lambda       -0.8430420E-03
   maximum displ.:     0.2583564 α      in ANC's #1, #3, #9, ...

........................................................................
.............................. CYCLE   14 ..............................
........................................................................
   1    -38.5920154 -0.385920E+02  0.478E-02    2.60       0.0  T
   2    -38.5920478 -0.323370E-04  0.270E-02    2.59       1.0  T
   3    -38.5920548 -0.703025E-05  0.140E-02    2.59       1.6  T
   4    -38.5920550 -0.154872E-06  0.345E-03    2.59       6.5  T
   5    -38.5920550 -0.175723E-07  0.359E-04    2.59      62.4  T
   6    -38.5920550 -0.934783E-09  0.147E-04    2.59     151.6  T
   7    -38.5920550 -0.126768E-09  0.535E-05    2.59     418.2  T
     SCC iter.                  ...        0 min,  0.006 sec
     gradient                   ...        0 min,  0.021 sec
 * total energy  :   -38.2938527 Eh     change       -0.3486266E-03 Eh
   gradient norm :     0.0185321 Eh/α   predicted    -0.5321480E-03 (  52.64%)
   displ. norm   :     0.1003016 α      lambda       -0.5356832E-03
   maximum displ.:     0.0632410 α      in ANC's #2, #5, #9, ...

........................................................................
.............................. CYCLE   15 ..............................
........................................................................
   1    -38.5964436 -0.385964E+02  0.245E-02    2.58       0.0  T
   2    -38.5964487 -0.507512E-05  0.137E-02    2.58       1.6  T
   3    -38.5964502 -0.150356E-05  0.779E-03    2.58       2.9  T
   4    -38.5964502 -0.755283E-07  0.872E-04    2.58      25.6  T
   5    -38.5964503 -0.694664E-08  0.217E-04    2.58     103.2  T
   6    -38.5964503 -0.987519E-09  0.527E-05    2.58     424.0  T
   7    -38.5964503 -0.293738E-10  0.195E-05    2.58    1146.9  T
     SCC iter.                  ...        0 min,  0.006 sec
     gradient                   ...        0 min,  0.022 sec
 * total energy  :   -38.2942386 Eh     change       -0.3859216E-03 Eh
   gradient norm :     0.0097941 Eh/α   predicted    -0.2704510E-03 ( -29.92%)
   displ. norm   :     0.3483322 α      lambda       -0.6596643E-03
   maximum displ.:     0.1954187 α      in ANC's #1, #2, #4, ...

........................................................................
.............................. CYCLE   16 ..............................
........................................................................
   1    -38.5986775 -0.385987E+02  0.321E-02    2.60       0.0  T
   2    -38.5986933 -0.158127E-04  0.173E-02    2.58       1.3  T
   3    -38.5986985 -0.527066E-05  0.530E-03    2.58       4.2  T
   4    -38.5986986 -0.210581E-07  0.129E-03    2.58      17.3  T
   5    -38.5986986 -0.312949E-08  0.354E-04    2.58      63.2  T
   6    -38.5986986 -0.174854E-08  0.121E-04    2.58     184.1  T
   7    -38.5986986 -0.876881E-10  0.276E-05    2.58     809.8  T
     SCC iter.                  ...        0 min,  0.005 sec
     gradient                   ...        0 min,  0.019 sec
 * total energy  :   -38.2947426 Eh     change       -0.5040263E-03 Eh
   gradient norm :     0.0056468 Eh/α   predicted    -0.3696927E-03 ( -26.65%)
   displ. norm   :     0.4661555 α      lambda       -0.5564556E-03
   maximum displ.:     0.2680252 α      in ANC's #1, #2, #4, ...

........................................................................
.............................. CYCLE   17 ..............................
........................................................................
   1    -38.5977473 -0.385977E+02  0.429E-02    2.61       0.0  T
   2    -38.5977837 -0.363578E-04  0.244E-02    2.58       1.0  T
   3    -38.5977945 -0.108190E-04  0.557E-03    2.59       4.0  T
   4    -38.5977946 -0.528410E-07  0.202E-03    2.59      11.0  T
   5    -38.5977946 -0.389277E-08  0.659E-04    2.59      33.9  T
   6    -38.5977946 -0.568635E-08  0.169E-04    2.59     132.7  T
   7    -38.5977946 -0.113346E-09  0.476E-05    2.59     469.7  T
     SCC iter.                  ...        0 min,  0.005 sec
     gradient                   ...        0 min,  0.021 sec
 * total energy  :   -38.2951534 Eh     change       -0.4107499E-03 Eh
   gradient norm :     0.0090180 Eh/α   predicted    -0.3384559E-03 ( -17.60%)
   displ. norm   :     0.4084628 α      lambda       -0.4486329E-03
   maximum displ.:     0.2394919 α      in ANC's #1, #2, #6, ...

........................................................................
.............................. CYCLE   18 ..............................
........................................................................
   1    -38.5977698 -0.385978E+02  0.266E-02    2.60       0.0  T
   2    -38.5977820 -0.121552E-04  0.159E-02    2.58       1.4  T
   3    -38.5977853 -0.330933E-05  0.618E-03    2.59       3.6  T
   4    -38.5977853 -0.146538E-07  0.152E-03    2.59      14.7  T
   5    -38.5977853 -0.429849E-08  0.375E-04    2.59      59.7  T
   6    -38.5977853 -0.212347E-08  0.109E-04    2.59     204.5  T
   7    -38.5977853 -0.854641E-10  0.411E-05    2.59     543.9  T
     SCC iter.                  ...        0 min,  0.006 sec
     gradient                   ...        0 min,  0.022 sec
 * total energy  :   -38.2954747 Eh     change       -0.3213050E-03 Eh
   gradient norm :     0.0092733 Eh/α   predicted    -0.2616028E-03 ( -18.58%)
   displ. norm   :     0.4493594 α      lambda       -0.5077198E-03
   maximum displ.:     0.2499190 α      in ANC's #1, #2, #5, ...

........................................................................
.............................. CYCLE   19 ..............................
........................................................................
   1    -38.5998215 -0.385998E+02  0.757E-02    2.67       0.0  T
   2    -38.5999453 -0.123782E-03  0.425E-02    2.61       1.0  T
   3    -38.5999796 -0.343283E-04  0.785E-03    2.63       2.8  T
   4    -38.5999798 -0.160840E-06  0.256E-03    2.63       8.7  T
   5    -38.5999798 -0.963771E-08  0.969E-04    2.63      23.1  T
   6    -38.5999798 -0.102456E-07  0.204E-04    2.63     109.4  T
   7    -38.5999798 -0.225192E-09  0.824E-05    2.63     271.3  T
   8    -38.5999798 -0.342339E-10  0.244E-05    2.63     918.2  T
     SCC iter.                  ...        0 min,  0.007 sec
     gradient                   ...        0 min,  0.022 sec
 * total energy  :   -38.2957432 Eh     change       -0.2685149E-03 Eh
   gradient norm :     0.0161160 Eh/α   predicted    -0.3049501E-03 (  13.57%)
   displ. norm   :     0.3111339 α      lambda       -0.5393294E-03
   maximum displ.:     0.1831522 α      in ANC's #2, #1, #5, ...

........................................................................
.............................. CYCLE   20 ..............................
........................................................................
   1    -38.6026520 -0.386027E+02  0.249E-02    2.60       0.0  T
   2    -38.6026556 -0.362745E-05  0.127E-02    2.61       1.8  T
   3    -38.6026564 -0.755277E-06  0.778E-03    2.61       2.9  T
   4    -38.6026565 -0.178093E-06  0.866E-04    2.61      25.8  T
   5    -38.6026566 -0.286198E-08  0.174E-04    2.61     128.2  T
   6    -38.6026566 -0.110354E-09  0.407E-05    2.61     549.7  T
     SCC iter.                  ...        0 min,  0.005 sec
     gradient                   ...        0 min,  0.022 sec
 * total energy  :   -38.2960518 Eh     change       -0.3085866E-03 Eh
   gradient norm :     0.0105685 Eh/α   predicted    -0.2956711E-03 (  -4.19%)
   displ. norm   :     0.5726672 α      lambda       -0.5737585E-03
   maximum displ.:     0.3382687 α      in ANC's #1, #2, #4, ...
 * RMSD in coord.:     0.9936775 α      energy gain  -0.2103000E-01 Eh

generating ANC from model Hessian ...
Using Lindh-Hessian (1995)
 Shifting diagonal of input Hessian by   8.713416518885476E-003
 Lowest  eigenvalues of input Hessian
    0.000000    0.000000    0.000000    0.000000    0.000000    0.000000
    0.010000    0.010947    0.012396    0.012944    0.013994    0.014871
    0.017888    0.029018    0.030433    0.033696    0.036938    0.046281
 Highest eigenvalues
    1.456237    1.546528    1.727617    1.881238    1.967283    2.104793
 

........................................................................
.............................. CYCLE   21 ..............................
........................................................................
   1    -38.5926025 -0.385926E+02  0.460E-02    2.59       0.0  T
   2    -38.5926168 -0.142354E-04  0.236E-02    2.60       1.0  T
   3    -38.5926205 -0.368969E-05  0.142E-02    2.60       1.6  T
   4    -38.5926209 -0.473304E-06  0.163E-03    2.60      13.7  T
   5    -38.5926209 -0.107076E-07  0.422E-04    2.60      53.0  T
   6    -38.5926209 -0.216473E-08  0.180E-04    2.60     124.3  T
   7    -38.5926209 -0.292673E-09  0.299E-05    2.60     748.1  T
     SCC iter.                  ...        0 min,  0.006 sec
     gradient                   ...        0 min,  0.022 sec
 * total energy  :   -38.2961353 Eh     change       -0.8349447E-04 Eh
   gradient norm :     0.0183541 Eh/α   predicted     0.0000000E+00 (-100.00%)
   displ. norm   :     0.1058759 α      lambda       -0.7210614E-03
   maximum displ.:     0.0592502 α      in ANC's #3, #5, #11, ...

........................................................................
.............................. CYCLE   22 ..............................
........................................................................
   1    -38.5994770 -0.385995E+02  0.220E-02    2.62       0.0  T
   2    -38.5994775 -0.552505E-06  0.127E-02    2.62       1.8  T
   3    -38.5994775  0.500343E-07  0.380E-03    2.62       5.9  T
   4    -38.5994775 -0.726675E-07  0.665E-04    2.62      33.6  T
   5    -38.5994776 -0.934229E-08  0.119E-04    2.62     187.5  T
   6    -38.5994776 -0.996110E-10  0.371E-05    2.62     602.6  T
     SCC iter.                  ...        0 min,  0.005 sec
     gradient                   ...        0 min,  0.022 sec
 * total energy  :   -38.2966318 Eh     change       -0.4965804E-03 Eh
   gradient norm :     0.0061046 Eh/α   predicted    -0.3645748E-03 ( -26.58%)
   displ. norm   :     0.1625940 α      lambda       -0.3460949E-03
   maximum displ.:     0.0955456 α      in ANC's #5, #3, #11, ...

........................................................................
.............................. CYCLE   23 ..............................
........................................................................
   1    -38.6031397 -0.386031E+02  0.154E-02    2.64       0.0  T
   2    -38.6031410 -0.135526E-05  0.101E-02    2.64       2.2  T
   3    -38.6031413 -0.222111E-06  0.531E-03    2.64       4.2  T
   4    -38.6031413 -0.514140E-07  0.830E-04    2.64      26.9  T
   5    -38.6031413 -0.446518E-08  0.803E-05    2.64     278.4  T
   6    -38.6031413 -0.554863E-10  0.288E-05    2.64     775.7  T
     SCC iter.                  ...        0 min,  0.005 sec
     gradient                   ...        0 min,  0.022 sec
 * total energy  :   -38.2968962 Eh     change       -0.2643812E-03 Eh
   gradient norm :     0.0039188 Eh/α   predicted    -0.1776830E-03 ( -32.79%)
   displ. norm   :     0.3403119 α      lambda       -0.4656695E-03
   maximum displ.:     0.1935905 α      in ANC's #5, #3, #1, ...

........................................................................
.............................. CYCLE   24 ..............................
........................................................................
   1    -38.6040108 -0.386040E+02  0.222E-02    2.65       0.0  T
   2    -38.6040172 -0.631745E-05  0.151E-02    2.66       1.5  T
   3    -38.6040190 -0.181591E-05  0.744E-03    2.66       3.0  T
   4    -38.6040190 -0.422084E-09  0.989E-04    2.66      22.6  T
   5    -38.6040190 -0.383638E-08  0.118E-04    2.66     190.1  T
   6    -38.6040190 -0.110873E-09  0.507E-05    2.66     440.9  T
     SCC iter.                  ...        0 min,  0.005 sec
     gradient                   ...        0 min,  0.022 sec
 * total energy  :   -38.2972930 Eh     change       -0.3967987E-03 Eh
   gradient norm :     0.0066021 Eh/α   predicted    -0.2598005E-03 ( -34.53%)
   displ. norm   :     0.6345479 α      lambda       -0.7209170E-03
   maximum displ.:     0.3402599 α      in ANC's #3, #5, #1, ...

........................................................................
.............................. CYCLE   25 ..............................
........................................................................
   1    -38.5973497 -0.385973E+02  0.478E-02    2.68       0.0  T
   2    -38.5973686 -0.188867E-04  0.272E-02    2.68       1.0  T
   3    -38.5973729 -0.434021E-05  0.157E-02    2.68       1.4  T
   4    -38.5973732 -0.318082E-06  0.253E-03    2.68       8.8  T
   5    -38.5973733 -0.339048E-07  0.393E-04    2.68      56.9  T
   6    -38.5973733 -0.250775E-08  0.164E-04    2.68     136.0  T
   7    -38.5973733 -0.236902E-09  0.512E-05    2.68     437.0  T
     SCC iter.                  ...        0 min,  0.006 sec
     gradient                   ...        0 min,  0.022 sec
 * total energy  :   -38.2974270 Eh     change       -0.1340160E-03 Eh
   gradient norm :     0.0200494 Eh/α   predicted    -0.5056033E-03 ( 277.27%)
   displ. norm   :     0.2162688 α      lambda       -0.7465701E-03
   maximum displ.:     0.1222138 α      in ANC's #5, #3, #4, ...

........................................................................
.............................. CYCLE   26 ..............................
........................................................................
   1    -38.6027753 -0.386028E+02  0.301E-02    2.66       0.0  T
   2    -38.6027828 -0.749913E-05  0.165E-02    2.66       1.4  T
   3    -38.6027844 -0.163829E-05  0.962E-03    2.66       2.3  T
   4    -38.6027846 -0.124720E-06  0.142E-03    2.66      15.7  T
   5    -38.6027846 -0.140484E-07  0.332E-04    2.66      67.4  T
   6    -38.6027846 -0.229806E-08  0.969E-05    2.66     230.8  T
   7    -38.6027846 -0.675158E-10  0.248E-05    2.66     903.4  T
     SCC iter.                  ...        0 min,  0.006 sec
     gradient                   ...        0 min,  0.022 sec
 * total energy  :   -38.2977834 Eh     change       -0.3563189E-03 Eh
   gradient norm :     0.0070646 Eh/α   predicted    -0.3907632E-03 (   9.67%)
   displ. norm   :     0.1743547 α      lambda       -0.2894702E-03
   maximum displ.:     0.1064150 α      in ANC's #1, #6, #3, ...

........................................................................
.............................. CYCLE   27 ..............................
........................................................................
   1    -38.6036389 -0.386036E+02  0.998E-03    2.66       0.0  T
   2    -38.6036399 -0.980942E-06  0.586E-03    2.66       3.8  T
   3    -38.6036400 -0.141029E-06  0.325E-03    2.66       6.9  T
   4    -38.6036400 -0.710588E-08  0.802E-04    2.66      27.9  T
   5    -38.6036400 -0.444481E-08  0.124E-04    2.66     181.0  T
   6    -38.6036400 -0.104649E-09  0.340E-05    2.66     656.8  T
     SCC iter.                  ...        0 min,  0.005 sec
     gradient                   ...        0 min,  0.022 sec
 * total energy  :   -38.2980574 Eh     change       -0.2740111E-03 Eh
   gradient norm :     0.0056209 Eh/α   predicted    -0.1491374E-03 ( -45.57%)
   displ. norm   :     0.7365288 α      lambda       -0.1152845E-02
   maximum displ.:     0.4416345 α      in ANC's #1, #6, #3, ...

........................................................................
.............................. CYCLE   28 ..............................
........................................................................
   1    -38.6001514 -0.386002E+02  0.432E-02    2.67       0.0  T
   2    -38.6001685 -0.170921E-04  0.226E-02    2.66       1.0  T
   3    -38.6001709 -0.246605E-05  0.134E-02    2.67       1.7  T
   4    -38.6001712 -0.301764E-06  0.382E-03    2.66       5.8  T
   5    -38.6001713 -0.390581E-07  0.401E-04    2.66      55.7  T
   6    -38.6001713 -0.242418E-08  0.152E-04    2.66     146.8  T
   7    -38.6001713 -0.213561E-09  0.488E-05    2.66     458.1  T
     SCC iter.                  ...        0 min,  0.006 sec
     gradient                   ...        0 min,  0.022 sec
 * total energy  :   -38.2988231 Eh     change       -0.7657824E-03 Eh
   gradient norm :     0.0174037 Eh/α   predicted    -0.8894006E-03 (  16.14%)
   displ. norm   :     0.2335412 α      lambda       -0.6311701E-03
   maximum displ.:     0.1415761 α      in ANC's #1, #6, #2, ...

........................................................................
.............................. CYCLE   29 ..............................
........................................................................
   1    -38.6015474 -0.386015E+02  0.168E-02    2.64       0.0  T
   2    -38.6015512 -0.383746E-05  0.109E-02    2.65       2.0  T
   3    -38.6015518 -0.568325E-06  0.592E-03    2.65       3.8  T
   4    -38.6015518 -0.372833E-08  0.158E-03    2.65      14.2  T
   5    -38.6015518 -0.123235E-07  0.223E-04    2.65     100.4  T
   6    -38.6015518 -0.935060E-09  0.530E-05    2.65     421.9  T
   7    -38.6015518 -0.441958E-10  0.123E-05    2.65    1824.8  T
     SCC iter.                  ...        0 min,  0.006 sec
     gradient                   ...        0 min,  0.022 sec
 * total energy  :   -38.2993032 Eh     change       -0.4801007E-03 Eh
   gradient norm :     0.0144273 Eh/α   predicted    -0.3328036E-03 ( -30.68%)
   displ. norm   :     0.4738607 α      lambda       -0.8170193E-03
   maximum displ.:     0.2911042 α      in ANC's #1, #6, #2, ...

........................................................................
.............................. CYCLE   30 ..............................
........................................................................
   1    -38.6009345 -0.386009E+02  0.300E-02    2.67       0.0  T
   2    -38.6009519 -0.174584E-04  0.166E-02    2.65       1.3  T
   3    -38.6009553 -0.339678E-05  0.659E-03    2.66       3.4  T
   4    -38.6009554 -0.461494E-07  0.226E-03    2.65       9.9  T
   5    -38.6009554 -0.339975E-08  0.520E-04    2.65      43.0  T
   6    -38.6009554 -0.380302E-08  0.172E-04    2.65     129.9  T
   7    -38.6009554 -0.196557E-09  0.552E-05    2.65     405.0  T
     SCC iter.                  ...        0 min,  0.006 sec
     gradient                   ...        0 min,  0.022 sec
 * total energy  :   -38.2999421 Eh     change       -0.6388609E-03 Eh
   gradient norm :     0.0175285 Eh/α   predicted    -0.5002388E-03 ( -21.70%)
   displ. norm   :     0.4579689 α      lambda       -0.1374247E-02
   maximum displ.:     0.2345554 α      in ANC's #1, #7, #6, ...

........................................................................
.............................. CYCLE   31 ..............................
........................................................................
   1    -38.6048686 -0.386049E+02  0.611E-02    2.74       0.0  T
   2    -38.6049598 -0.912497E-04  0.404E-02    2.69       1.0  T
   3    -38.6049782 -0.183983E-04  0.167E-02    2.70       1.3  T
   4    -38.6049785 -0.288150E-06  0.352E-03    2.70       6.3  T
   5    -38.6049785 -0.241638E-07  0.910E-04    2.70      24.6  T
   6    -38.6049786 -0.611026E-08  0.293E-04    2.70      76.4  T
   7    -38.6049786 -0.675328E-09  0.120E-04    2.70     186.9  T
   8    -38.6049786 -0.153790E-09  0.260E-05    2.70     859.7  T
     SCC iter.                  ...        0 min,  0.007 sec
     gradient                   ...        0 min,  0.022 sec
 * total energy  :   -38.3007224 Eh     change       -0.7803339E-03 Eh
   gradient norm :     0.0154776 Eh/α   predicted    -0.8312420E-03 (   6.52%)
   displ. norm   :     0.6997247 α      lambda       -0.1562638E-02
   maximum displ.:     0.3959636 α      in ANC's #1, #6, #5, ...

........................................................................
.............................. CYCLE   32 ..............................
........................................................................
   1    -38.5917838 -0.385918E+02  0.136E-01    2.84       0.0  T
   2    -38.5922081 -0.424282E-03  0.928E-02    2.75       1.0  T
   3    -38.5922881 -0.800145E-04  0.434E-02    2.76       1.0  T
   4    -38.5922891 -0.957771E-06  0.708E-03    2.76       3.2  T
   5    -38.5922893 -0.211285E-06  0.157E-03    2.76      14.3  T
   6    -38.5922893 -0.260657E-07  0.446E-04    2.76      50.1  T
   7    -38.5922893 -0.149796E-08  0.227E-04    2.76      98.4  T
   8    -38.5922893 -0.558948E-09  0.527E-05    2.76     424.2  T
   9    -38.5922893 -0.526512E-11  0.132E-05    2.76    1700.0  T
     SCC iter.                  ...        0 min,  0.007 sec
     gradient                   ...        0 min,  0.022 sec
 * total energy  :   -38.3011661 Eh     change       -0.4436419E-03 Eh
   gradient norm :     0.0250863 Eh/α   predicted    -0.1163868E-02 ( 162.34%)
   displ. norm   :     0.2264426 α      lambda       -0.2006043E-02
   maximum displ.:     0.1216258 α      in ANC's #5, #2, #6, ...

........................................................................
.............................. CYCLE   33 ..............................
........................................................................
   1    -38.6077749 -0.386078E+02  0.648E-02    2.79       0.0  T
   2    -38.6077859 -0.109253E-04  0.373E-02    2.78       1.0  T
   3    -38.6077860 -0.151936E-06  0.162E-02    2.79       1.4  T
   4    -38.6077877 -0.167878E-05  0.231E-03    2.78       9.7  T
   5    -38.6077877 -0.161458E-07  0.249E-04    2.78      89.8  T
   6    -38.6077877 -0.466549E-09  0.103E-04    2.78     216.8  T
   7    -38.6077877 -0.682334E-10  0.382E-05    2.78     584.8  T
     SCC iter.                  ...        0 min,  0.006 sec
     gradient                   ...        0 min,  0.022 sec
 * total energy  :   -38.3012137 Eh     change       -0.4765207E-04 Eh
   gradient norm :     0.0279178 Eh/α   predicted    -0.1054450E-02 (2112.81%)
   displ. norm   :     0.1845372 α      lambda       -0.1973101E-02
   maximum displ.:     0.1198907 α      in ANC's #3, #1, #2, ...

........................................................................
.............................. CYCLE   34 ..............................
........................................................................
   1    -38.6091339 -0.386091E+02  0.532E-02    2.72       0.0  T
   2    -38.6091571 -0.231469E-04  0.333E-02    2.75       1.0  T
   3    -38.6091601 -0.304675E-05  0.180E-02    2.74       1.2  T
   4    -38.6091607 -0.583352E-06  0.264E-03    2.75       8.5  T
   5    -38.6091608 -0.307205E-07  0.476E-04    2.75      47.0  T
   6    -38.6091608 -0.292735E-08  0.152E-04    2.75     146.7  T
   7    -38.6091608 -0.181885E-09  0.643E-05    2.75     347.7  T
     SCC iter.                  ...        0 min,  0.006 sec
     gradient                   ...        0 min,  0.022 sec
 * total energy  :   -38.3019166 Eh     change       -0.7029048E-03 Eh
   gradient norm :     0.0112306 Eh/α   predicted    -0.1020152E-02 (  45.13%)
   displ. norm   :     0.3418999 α      lambda       -0.6852252E-03
   maximum displ.:     0.1652204 α      in ANC's #1, #6, #7, ...

........................................................................
.............................. CYCLE   35 ..............................
........................................................................
   1    -38.5998123 -0.385998E+02  0.100E-01    2.82       0.0  T
   2    -38.6000389 -0.226531E-03  0.688E-02    2.75       1.0  T
   3    -38.6000794 -0.404984E-04  0.329E-02    2.77       1.0  T
   4    -38.6000797 -0.377279E-06  0.520E-03    2.77       4.3  T
   5    -38.6000798 -0.118830E-06  0.115E-03    2.77      19.4  T
   6    -38.6000799 -0.148680E-07  0.307E-04    2.77      72.9  T
   7    -38.6000799 -0.104531E-08  0.148E-04    2.77     150.9  T
   8    -38.6000799 -0.195925E-09  0.331E-05    2.77     676.3  T
     SCC iter.                  ...        0 min,  0.007 sec
     gradient                   ...        0 min,  0.022 sec
 * total energy  :   -38.3022217 Eh     change       -0.3050221E-03 Eh
   gradient norm :     0.0110453 Eh/α   predicted    -0.3826629E-03 (  25.45%)
   displ. norm   :     0.0490949 α      lambda       -0.2137873E-03
   maximum displ.:     0.0288558 α      in ANC's #11, #1, #35, ...

........................................................................
.............................. CYCLE   36 ..............................
........................................................................
   1    -38.6035009 -0.386035E+02  0.139E-02    2.77       0.0  T
   2    -38.6035019 -0.965114E-06  0.687E-03    2.77       3.3  T
   3    -38.6035020 -0.132064E-06  0.419E-03    2.77       5.3  T
   4    -38.6035020 -0.440261E-07  0.547E-04    2.77      40.9  T
   5    -38.6035020 -0.307453E-08  0.970E-05    2.77     230.6  T
   6    -38.6035020 -0.487361E-10  0.260E-05    2.77     860.3  T
     SCC iter.                  ...        0 min,  0.005 sec
     gradient                   ...        0 min,  0.022 sec
 * total energy  :   -38.3023646 Eh     change       -0.1429584E-03 Eh
   gradient norm :     0.0072950 Eh/α   predicted    -0.1071535E-03 ( -25.05%)
   displ. norm   :     0.1328517 α      lambda       -0.1920155E-03
   maximum displ.:     0.0671589 α      in ANC's #7, #4, #35, ...

........................................................................
.............................. CYCLE   37 ..............................
........................................................................
   1    -38.6051227 -0.386051E+02  0.305E-02    2.79       0.0  T
   2    -38.6051441 -0.214176E-04  0.217E-02    2.77       1.0  T
   3    -38.6051481 -0.400834E-05  0.103E-02    2.77       2.2  T
   4    -38.6051481 -0.502088E-07  0.137E-03    2.77      16.3  T
   5    -38.6051482 -0.145274E-07  0.362E-04    2.77      61.8  T
   6    -38.6051482 -0.149532E-08  0.110E-04    2.77     203.3  T
   7    -38.6051482 -0.126569E-09  0.404E-05    2.77     553.1  T
     SCC iter.                  ...        0 min,  0.006 sec
     gradient                   ...        0 min,  0.022 sec
 * total energy  :   -38.3024945 Eh     change       -0.1299070E-03 Eh
   gradient norm :     0.0052537 Eh/α   predicted    -0.9771271E-04 ( -24.78%)
   displ. norm   :     0.1438017 α      lambda       -0.1411026E-03
   maximum displ.:     0.0623160 α      in ANC's #4, #7, #6, ...

........................................................................
.............................. CYCLE   38 ..............................
........................................................................
   1    -38.6053899 -0.386054E+02  0.347E-02    2.80       0.0  T
   2    -38.6054187 -0.288526E-04  0.237E-02    2.78       1.0  T
   3    -38.6054243 -0.555734E-05  0.103E-02    2.78       2.2  T
   4    -38.6054244 -0.630244E-07  0.176E-03    2.78      12.7  T
   5    -38.6054244 -0.178998E-07  0.488E-04    2.78      45.8  T
   6    -38.6054244 -0.275124E-08  0.112E-04    2.78     199.6  T
   7    -38.6054244 -0.126498E-09  0.460E-05    2.78     486.2  T
     SCC iter.                  ...        0 min,  0.006 sec
     gradient                   ...        0 min,  0.022 sec
 * total energy  :   -38.3025847 Eh     change       -0.9017610E-04 Eh
   gradient norm :     0.0051804 Eh/α   predicted    -0.7201455E-04 ( -20.14%)
   displ. norm   :     0.1160863 α      lambda       -0.1075457E-03
   maximum displ.:     0.0826521 α      in ANC's #4, #35, #7, ...

........................................................................
.............................. CYCLE   39 ..............................
........................................................................
   1    -38.6052520 -0.386053E+02  0.169E-02    2.79       0.0  T
   2    -38.6052572 -0.515282E-05  0.941E-03    2.78       2.4  T
   3    -38.6052584 -0.122654E-05  0.316E-03    2.78       7.1  T
   4    -38.6052584 -0.321970E-08  0.851E-04    2.78      26.3  T
   5    -38.6052584 -0.232734E-08  0.197E-04    2.78     113.5  T
   6    -38.6052584 -0.367486E-09  0.583E-05    2.78     383.8  T
     SCC iter.                  ...        0 min,  0.005 sec
     gradient                   ...        0 min,  0.022 sec
 * total energy  :   -38.3026547 Eh     change       -0.6998696E-04 Eh
   gradient norm :     0.0060982 Eh/α   predicted    -0.5449895E-04 ( -22.13%)
   displ. norm   :     0.1268762 α      lambda       -0.1186715E-03
   maximum displ.:     0.0796271 α      in ANC's #4, #35, #3, ...

........................................................................
.............................. CYCLE   40 ..............................
........................................................................
   1    -38.6050747 -0.386051E+02  0.138E-02    2.79       0.0  T
   2    -38.6050772 -0.253513E-05  0.722E-03    2.78       3.1  T
   3    -38.6050778 -0.589913E-06  0.303E-03    2.79       7.4  T
   4    -38.6050778 -0.511785E-08  0.792E-04    2.79      28.2  T
   5    -38.6050778 -0.112390E-08  0.113E-04    2.79     198.5  T
   6    -38.6050778 -0.962785E-10  0.440E-05    2.79     508.0  T
     SCC iter.                  ...        0 min,  0.005 sec
     gradient                   ...        0 min,  0.022 sec
 * total energy  :   -38.3027373 Eh     change       -0.8263612E-04 Eh
   gradient norm :     0.0056607 Eh/α   predicted    -0.6029231E-04 ( -27.04%)
   displ. norm   :     0.1957724 α      lambda       -0.1412099E-03
   maximum displ.:     0.1255652 α      in ANC's #4, #3, #2, ...

........................................................................
.............................. CYCLE   41 ..............................
........................................................................
   1    -38.6035934 -0.386036E+02  0.114E-02    2.80       0.0  T
   2    -38.6035948 -0.138101E-05  0.550E-03    2.79       4.1  T
   3    -38.6035950 -0.255631E-06  0.311E-03    2.79       7.2  T
   4    -38.6035950 -0.165949E-07  0.672E-04    2.79      33.3  T
   5    -38.6035950 -0.398124E-09  0.110E-04    2.79     203.3  T
   6    -38.6035950 -0.153179E-09  0.494E-05    2.79     452.3  T
     SCC iter.                  ...        0 min,  0.005 sec
     gradient                   ...        0 min,  0.022 sec
 * total energy  :   -38.3028197 Eh     change       -0.8241554E-04 Eh
   gradient norm :     0.0065158 Eh/α   predicted    -0.7331270E-04 ( -11.05%)
   displ. norm   :     0.1708764 α      lambda       -0.1360554E-03
   maximum displ.:     0.0849789 α      in ANC's #2, #7, #1, ...

........................................................................
.............................. CYCLE   42 ..............................
........................................................................
   1    -38.6054769 -0.386055E+02  0.358E-02    2.76       0.0  T
   2    -38.6055050 -0.281875E-04  0.265E-02    2.79       1.0  T
   3    -38.6055102 -0.519149E-05  0.134E-02    2.78       1.7  T
   4    -38.6055103 -0.727790E-07  0.157E-03    2.78      14.3  T
   5    -38.6055103 -0.158011E-07  0.386E-04    2.78      57.9  T
   6    -38.6055103 -0.185874E-08  0.110E-04    2.78     203.3  T
   7    -38.6055103 -0.147601E-09  0.461E-05    2.78     485.5  T
     SCC iter.                  ...        0 min,  0.006 sec
     gradient                   ...        0 min,  0.022 sec
 * total energy  :   -38.3028636 Eh     change       -0.4390025E-04 Eh
   gradient norm :     0.0058785 Eh/α   predicted    -0.7001470E-04 (  59.49%)
   displ. norm   :     0.0735507 α      lambda       -0.8123523E-04
   maximum displ.:     0.0350704 α      in ANC's #4, #3, #6, ...
 * RMSD in coord.:     0.8810539 α      energy gain  -0.6811880E-02 Eh

generating ANC from model Hessian ...
Using Lindh-Hessian (1995)
 Shifting diagonal of input Hessian by   8.664047426112712E-003
 Lowest  eigenvalues of input Hessian
    0.000000    0.000000    0.000000    0.000000    0.000000    0.000000
    0.010000    0.010827    0.011946    0.013146    0.013930    0.014301
    0.018710    0.026307    0.030447    0.034720    0.040917    0.050384
 Highest eigenvalues
    1.451881    1.557105    1.731237    1.896414    1.956672    2.107849
 

........................................................................
.............................. CYCLE   43 ..............................
........................................................................
   1    -38.6044647 -0.386045E+02  0.142E-02    2.78       0.0  T
   2    -38.6044690 -0.432711E-05  0.980E-03    2.78       2.3  T
   3    -38.6044699 -0.866342E-06  0.461E-03    2.78       4.8  T
   4    -38.6044699 -0.764525E-08  0.505E-04    2.78      44.3  T
   5    -38.6044699 -0.320787E-08  0.147E-04    2.78     151.8  T
   6    -38.6044699 -0.337543E-09  0.533E-05    2.78     419.8  T
     SCC iter.                  ...        0 min,  0.005 sec
     gradient                   ...        0 min,  0.022 sec
 * total energy  :   -38.3029164 Eh     change       -0.5274513E-04 Eh
   gradient norm :     0.0045888 Eh/α   predicted     0.0000000E+00 (-100.00%)
   displ. norm   :     0.0518478 α      lambda       -0.5949510E-04
   maximum displ.:     0.0273550 α      in ANC's #4, #1, #2, ...

........................................................................
.............................. CYCLE   44 ..............................
........................................................................
   1    -38.6052691 -0.386053E+02  0.417E-03    2.78       0.0  T
   2    -38.6052693 -0.165494E-06  0.231E-03    2.78       9.7  T
   3    -38.6052693 -0.218833E-07  0.130E-03    2.78      17.2  T
   4    -38.6052693 -0.313362E-08  0.251E-04    2.78      89.0  T
   5    -38.6052693 -0.178701E-09  0.425E-05    2.78     526.4  T
   6    -38.6052693 -0.146088E-10  0.168E-05    2.78    1332.5  T
     SCC iter.                  ...        0 min,  0.005 sec
     gradient                   ...        0 min,  0.022 sec
 * total energy  :   -38.3029690 Eh     change       -0.5266117E-04 Eh
   gradient norm :     0.0021662 Eh/α   predicted    -0.3172569E-04 ( -39.76%)
   displ. norm   :     0.1829626 α      lambda       -0.1418342E-03
   maximum displ.:     0.1067234 α      in ANC's #4, #1, #2, ...

........................................................................
.............................. CYCLE   45 ..............................
........................................................................
   1    -38.6060952 -0.386061E+02  0.103E-02    2.78       0.0  T
   2    -38.6060966 -0.146595E-05  0.578E-03    2.78       3.9  T
   3    -38.6060969 -0.316341E-06  0.279E-03    2.78       8.0  T
   4    -38.6060969 -0.511092E-08  0.594E-04    2.78      37.6  T
   5    -38.6060969 -0.549086E-09  0.110E-04    2.78     202.8  T
   6    -38.6060969 -0.117332E-09  0.484E-05    2.78     461.6  T
     SCC iter.                  ...        0 min,  0.005 sec
     gradient                   ...        0 min,  0.022 sec
 * total energy  :   -38.3030719 Eh     change       -0.1028209E-03 Eh
   gradient norm :     0.0036211 Eh/α   predicted    -0.7329419E-04 ( -28.72%)
   displ. norm   :     0.2403006 α      lambda       -0.1204007E-03
   maximum displ.:     0.1506862 α      in ANC's #4, #1, #6, ...

........................................................................
.............................. CYCLE   46 ..............................
........................................................................
   1    -38.6054210 -0.386054E+02  0.124E-02    2.78       0.0  T
   2    -38.6054233 -0.230808E-05  0.700E-03    2.79       3.2  T
   3    -38.6054238 -0.518437E-06  0.299E-03    2.78       7.5  T
   4    -38.6054238 -0.479999E-08  0.669E-04    2.79      33.4  T
   5    -38.6054238 -0.107678E-08  0.176E-04    2.79     127.4  T
   6    -38.6054238 -0.363094E-09  0.539E-05    2.78     414.6  T
     SCC iter.                  ...        0 min,  0.005 sec
     gradient                   ...        0 min,  0.022 sec
 * total energy  :   -38.3031516 Eh     change       -0.7977990E-04 Eh
   gradient norm :     0.0067731 Eh/α   predicted    -0.6369388E-04 ( -20.16%)
   displ. norm   :     0.1377896 α      lambda       -0.7880697E-04
   maximum displ.:     0.0887669 α      in ANC's #4, #1, #6, ...

........................................................................
.............................. CYCLE   47 ..............................
........................................................................
   1    -38.6051379 -0.386051E+02  0.674E-03    2.78       0.0  T
   2    -38.6051391 -0.125315E-05  0.494E-03    2.79       4.5  T
   3    -38.6051394 -0.237163E-06  0.215E-03    2.79      10.4  T
   4    -38.6051394 -0.561742E-08  0.437E-04    2.79      51.1  T
   5    -38.6051394 -0.535572E-09  0.134E-04    2.79     166.8  T
   6    -38.6051394 -0.182645E-09  0.306E-05    2.79     729.7  T
     SCC iter.                  ...        0 min,  0.005 sec
     gradient                   ...        0 min,  0.022 sec
 * total energy  :   -38.3032147 Eh     change       -0.6304811E-04 Eh
   gradient norm :     0.0057589 Eh/α   predicted    -0.4016022E-04 ( -36.30%)
   displ. norm   :     0.1683869 α      lambda       -0.1180419E-03
   maximum displ.:     0.1146218 α      in ANC's #4, #1, #6, ...

........................................................................
.............................. CYCLE   48 ..............................
........................................................................
   1    -38.6053845 -0.386054E+02  0.122E-02    2.78       0.0  T
   2    -38.6053887 -0.415446E-05  0.941E-03    2.79       2.4  T
   3    -38.6053894 -0.711614E-06  0.452E-03    2.79       4.9  T
   4    -38.6053894 -0.203760E-07  0.102E-03    2.79      21.9  T
   5    -38.6053894 -0.199766E-08  0.126E-04    2.79     177.2  T
   6    -38.6053894 -0.919300E-10  0.387E-05    2.79     577.6  T
     SCC iter.                  ...        0 min,  0.003 sec
     gradient                   ...        0 min,  0.012 sec
 * total energy  :   -38.3032866 Eh     change       -0.7193297E-04 Eh
   gradient norm :     0.0030181 Eh/α   predicted    -0.6069455E-04 ( -15.62%)
   displ. norm   :     0.1257756 α      lambda       -0.3362294E-04
   maximum displ.:     0.0903763 α      in ANC's #4, #1, #6, ...

........................................................................
.............................. CYCLE   49 ..............................
........................................................................
   1    -38.6050679 -0.386051E+02  0.872E-03    2.78       0.0  T
   2    -38.6050699 -0.201157E-05  0.639E-03    2.79       3.5  T
   3    -38.6050703 -0.343571E-06  0.304E-03    2.79       7.3  T
   4    -38.6050703 -0.723895E-08  0.575E-04    2.79      38.9  T
   5    -38.6050703 -0.934513E-09  0.842E-05    2.79     265.5  T
   6    -38.6050703 -0.630607E-10  0.256E-05    2.79     873.0  T
     SCC iter.                  ...        0 min,  0.003 sec
     gradient                   ...        0 min,  0.012 sec
 * total energy  :   -38.3033092 Eh     change       -0.2253408E-04 Eh
   gradient norm :     0.0038574 Eh/α   predicted    -0.1711720E-04 ( -24.04%)
   displ. norm   :     0.1250882 α      lambda       -0.5867636E-04
   maximum displ.:     0.0964224 α      in ANC's #4, #1, #6, ...

........................................................................
.............................. CYCLE   50 ..............................
........................................................................
   1    -38.6062264 -0.386062E+02  0.148E-02    2.78       0.0  T
   2    -38.6062312 -0.479794E-05  0.100E-02    2.78       2.2  T
   3    -38.6062320 -0.866731E-06  0.458E-03    2.78       4.9  T
   4    -38.6062321 -0.825191E-08  0.109E-03    2.78      20.6  T
   5    -38.6062321 -0.435558E-08  0.224E-04    2.78      99.6  T
   6    -38.6062321 -0.302812E-09  0.750E-05    2.78     298.3  T
   7    -38.6062321 -0.523741E-10  0.162E-05    2.78    1384.2  T
     SCC iter.                  ...        0 min,  0.004 sec
     gradient                   ...        0 min,  0.013 sec
 * total energy  :   -38.3033427 Eh     change       -0.3350043E-04 Eh
   gradient norm :     0.0035930 Eh/α   predicted    -0.2979807E-04 ( -11.05%)
   displ. norm   :     0.1372547 α      lambda       -0.3065879E-04
   maximum displ.:     0.1024532 α      in ANC's #4, #1, #6, ...

........................................................................
.............................. CYCLE   51 ..............................
........................................................................
   1    -38.6058800 -0.386059E+02  0.914E-03    2.78       0.0  T
   2    -38.6058816 -0.164227E-05  0.610E-03    2.78       3.7  T
   3    -38.6058819 -0.270860E-06  0.304E-03    2.78       7.4  T
   4    -38.6058819 -0.964114E-09  0.471E-04    2.78      47.5  T
   5    -38.6058819 -0.111763E-08  0.776E-05    2.78     288.0  T
   6    -38.6058819 -0.756017E-10  0.271E-05    2.78     824.3  T
     SCC iter.                  ...        0 min,  0.005 sec
     gradient                   ...        0 min,  0.021 sec
 * total energy  :   -38.3033619 Eh     change       -0.1924955E-04 Eh
   gradient norm :     0.0037045 Eh/α   predicted    -0.1561857E-04 ( -18.86%)
   displ. norm   :     0.0753628 α      lambda       -0.3412642E-04
   maximum displ.:     0.0556264 α      in ANC's #4, #1, #6, ...

........................................................................
.............................. CYCLE   52 ..............................
........................................................................
   1    -38.6065912 -0.386066E+02  0.493E-03    2.78       0.0  T
   2    -38.6065914 -0.162639E-06  0.272E-03    2.78       8.2  T
   3    -38.6065914 -0.925718E-08  0.145E-03    2.78      15.4  T
   4    -38.6065914 -0.513109E-08  0.229E-04    2.78      97.4  T
   5    -38.6065914 -0.506859E-09  0.447E-05    2.78     500.4  T
   6    -38.6065914 -0.172378E-10  0.187E-05    2.78    1193.2  T
     SCC iter.                  ...        0 min,  0.005 sec
     gradient                   ...        0 min,  0.021 sec
 * total energy  :   -38.3033847 Eh     change       -0.2278030E-04 Eh
   gradient norm :     0.0022561 Eh/α   predicted    -0.1716692E-04 ( -24.64%)
   displ. norm   :     0.0821877 α      lambda       -0.1761347E-04
   maximum displ.:     0.0583036 α      in ANC's #4, #1, #6, ...

........................................................................
.............................. CYCLE   53 ..............................
........................................................................
   1    -38.6066741 -0.386067E+02  0.228E-03    2.78       0.0  T
   2    -38.6066742 -0.455920E-07  0.134E-03    2.78      16.6  T
   3    -38.6066742 -0.598765E-08  0.720E-04    2.78      31.1  T
   4    -38.6066742 -0.730864E-09  0.148E-04    2.78     151.2  T
   5    -38.6066742 -0.972236E-10  0.239E-05    2.78     937.0  T
     SCC iter.                  ...        0 min,  0.004 sec
     gradient                   ...        0 min,  0.022 sec
 * total energy  :   -38.3033981 Eh     change       -0.1344181E-04 Eh
   gradient norm :     0.0021002 Eh/α   predicted    -0.8866635E-05 ( -34.04%)
   displ. norm   :     0.0894785 α      lambda       -0.2122987E-04
   maximum displ.:     0.0564113 α      in ANC's #4, #3, #6, ...

........................................................................
.............................. CYCLE   54 ..............................
........................................................................
   1    -38.6068761 -0.386069E+02  0.461E-03    2.79       0.0  T
   2    -38.6068764 -0.350679E-06  0.292E-03    2.79       7.7  T
   3    -38.6068765 -0.599731E-07  0.148E-03    2.79      15.1  T
   4    -38.6068765  0.701270E-09  0.329E-04    2.79      67.9  T
   5    -38.6068765 -0.100650E-08  0.432E-05    2.79     517.5  T
   6    -38.6068765 -0.190710E-10  0.184E-05    2.79    1217.4  T
     SCC iter.                  ...        0 min,  0.006 sec
     gradient                   ...        0 min,  0.012 sec
 * total energy  :   -38.3034114 Eh     change       -0.1327291E-04 Eh
   gradient norm :     0.0017050 Eh/α   predicted    -0.1070074E-04 ( -19.38%)
   displ. norm   :     0.1482307 α      lambda       -0.9499094E-05
   maximum displ.:     0.0990949 α      in ANC's #4, #1, #3, ...

........................................................................
.............................. CYCLE   55 ..............................
........................................................................
   1    -38.6058496 -0.386058E+02  0.515E-03    2.79       0.0  T
   2    -38.6058497 -0.111681E-06  0.284E-03    2.79       7.9  T
   3    -38.6058497 -0.918506E-08  0.147E-03    2.79      15.2  T
   4    -38.6058497 -0.878641E-08  0.243E-04    2.79      92.1  T
   5    -38.6058497 -0.316106E-09  0.448E-05    2.79     498.8  T
   6    -38.6058497 -0.155040E-10  0.123E-05    2.79    1821.1  T
     SCC iter.                  ...        0 min,  0.003 sec
     gradient                   ...        0 min,  0.012 sec
 * total energy  :   -38.3034089 Eh     change        0.2535559E-05 Eh
   gradient norm :     0.0028434 Eh/α   predicted    -0.4800175E-05 (-289.31%)
   displ. norm   :     0.0387806 α      lambda       -0.2214076E-04
   maximum displ.:     0.0294877 α      in ANC's #4, #1, #6, ...

........................................................................
.............................. CYCLE   56 ..............................
........................................................................
   1    -38.6065812 -0.386066E+02  0.750E-03    2.79       0.0  T
   2    -38.6065820 -0.821700E-06  0.483E-03    2.79       4.6  T
   3    -38.6065821 -0.133100E-06  0.248E-03    2.79       9.0  T
   4    -38.6065821 -0.855223E-09  0.362E-04    2.79      61.8  T
   5    -38.6065821 -0.583363E-09  0.597E-05    2.79     374.3  T
   6    -38.6065821 -0.364153E-10  0.122E-05    2.79    1825.9  T
     SCC iter.                  ...        0 min,  0.003 sec
     gradient                   ...        0 min,  0.012 sec
 * total energy  :   -38.3034202 Eh     change       -0.1127955E-04 Eh
   gradient norm :     0.0011264 Eh/α   predicted    -0.1108910E-04 (  -1.69%)
   displ. norm   :     0.0288950 α      lambda       -0.3097098E-05
   maximum displ.:     0.0165202 α      in ANC's #4, #3, #1, ...

........................................................................
.............................. CYCLE   57 ..............................
........................................................................
   1    -38.6068352 -0.386068E+02  0.308E-03    2.79       0.0  T
   2    -38.6068353 -0.164514E-06  0.175E-03    2.79      12.7  T
   3    -38.6068354 -0.378565E-07  0.651E-04    2.79      34.3  T
   4    -38.6068354 -0.327276E-10  0.183E-04    2.79     122.0  T
   5    -38.6068354 -0.130967E-09  0.354E-05    2.79     630.8  T
     SCC iter.                  ...        0 min,  0.003 sec
     gradient                   ...        0 min,  0.011 sec
 * total energy  :   -38.3034227 Eh     change       -0.2538731E-05 Eh
   gradient norm :     0.0004244 Eh/α   predicted    -0.1549684E-05 ( -38.96%)
   displ. norm   :     0.0202079 α      lambda       -0.1407910E-05
   maximum displ.:     0.0105575 α      in ANC's #5, #2, #3, ...

   *** GEOMETRY OPTIMIZATION CONVERGED AFTER 57 ITERATIONS ***

------------------------------------------------------------------------
 total energy gain   :        -0.0284009 Eh      -17.8219 kcal/mol
 total RMSD          :         1.7343402 a0        0.9178 Å
 total power (kW/mol):        -1.3081867 (step)  -35.5843 (real)
------------------------------------------------------------------------

 ANCopt (total)                0 d,  0 h,  0 min,  2.096 sec
 optimizer setup                ...        0 min,  0.001 sec (  0.033%)
 model hessian                  ...        0 min,  0.012 sec (  0.574%)
 ANC generation                 ...        0 min,  0.002 sec (  0.089%)
 coordinate transformation      ...        0 min,  0.001 sec (  0.036%)
 single point calculation       ...        0 min,  2.060 sec ( 98.321%)
 optimization log               ...        0 min,  0.008 sec (  0.361%)
 hessian update                 ...        0 min,  0.001 sec (  0.038%)
 rational function              ...        0 min,  0.007 sec (  0.350%)

================
 final structure:
================
20
 xtb: 6.5.1 (579679a)
C           -1.44066806089563        2.14906708279952       -0.28740415712375
O           -1.37780354883821        0.95163338904817       -1.05530094453378
C           -1.02725332708652       -0.21527668493524       -0.35047515823771
O           -2.06162326612223       -0.71042359011516        0.49686580614811
C           -3.00539154119245       -1.51931924691327       -0.18030038783428
C            0.28100375669211       -0.43454428616608        0.04565213421216
N            0.75542786763825       -1.42565946450554        0.82602114081479
N            2.13475947471282       -1.36734133497437        0.72125002784302
C            2.42925784557418       -0.40332928536836       -0.07448176521310
C            3.78297655343636        0.04394630967435       -0.50010865658481
O            1.32395893526551        0.25042871593852       -0.55760883597218
H           -1.75900995781834        2.95093985830607       -0.95723484266507
H           -2.16653416412226        2.06102975339119        0.53190059801784
H           -0.45912509033301        2.40494422106797        0.13438854041799
H           -3.71451873514429       -1.89517166656128        0.56079186207401
H           -3.55473383428429       -0.94275089006293       -0.93670835154647
H           -2.52029048247863       -2.37058797623786       -0.67818287953175
H            3.89748979564102       -0.04763382155785       -1.58140469115658
H            4.53668483704686       -0.56919848584880       -0.01023878440867
H            3.94539194230628        1.08924540302065       -0.23319765471969
 
 Bond Distances (Angstroems)
 ---------------------------
C1-O2=1.4239         C1-H12=1.0923        C1-H13=1.0981        C1-H14=1.0985        O2-C1=1.4239         O2-C3=1.4076         
C3-O2=1.4076         C3-O4=1.4259         C3-C6=1.3844         O4-C3=1.4259         O4-C5=1.4155         C5-O4=1.4155         
C5-H15=1.0924        C5-H16=1.0983        C5-H17=1.0990        C6-C3=1.3844         C6-N7=1.3477         C6-O11=1.3860        
N7-C6=1.3477         N7-N8=1.3845         N8-N7=1.3845         N8-C9=1.2842         C9-N8=1.2842         C9-C10=1.4879        
C9-O11=1.3720        C10-C9=1.4879        C10-H18=1.0912       C10-H19=1.0881       C10-H20=1.0910       O11-C6=1.3860        
O11-C9=1.3720        H12-C1=1.0923        H13-C1=1.0981        H14-C1=1.0985        H15-C5=1.0924        H16-C5=1.0983        
H17-C5=1.0990        H18-C10=1.0912       H19-C10=1.0881       H20-C10=1.0910       
 C  H  Rav=1.0943 sigma=0.0039  Rmin=1.0881  Rmax=1.0990     9
 C  C  Rav=1.4361 sigma=0.0517  Rmin=1.3844  Rmax=1.4879     2
 N  C  Rav=1.3160 sigma=0.0317  Rmin=1.2842  Rmax=1.3477     2
 N  N  Rav=1.3845 sigma=0.0000  Rmin=1.3845  Rmax=1.3845     1
 O  C  Rav=1.4051 sigma=0.0198  Rmin=1.3720  Rmax=1.4259     6
 
 selected bond angles (degree)
 --------------------
H12-C1-O2=107.43               H13-C1-O2=111.35               H13-C1-H12=108.89              H14-C1-O2=111.32               
H14-C1-H12=108.96              H14-C1-H13=108.83              C3-O2-C1=115.98                O4-C3-O2=113.88                
C6-C3-O2=120.66                C6-C3-O4=117.42                C5-O4-C3=113.44                H15-C5-O4=107.75               
H16-C5-O4=111.28               H16-C5-H15=108.85              H17-C5-O4=111.41               H17-C5-H15=109.11              
H17-C5-H16=108.38              N7-C6-C3=127.94                O11-C6-C3=120.55               O11-C6-N7=110.52               
N8-N7-C6=106.02                C9-N8-N7=107.88                C10-C9-N8=127.70               O11-C9-N8=113.02               
O11-C9-C10=119.27              H18-C10-C9=110.72              H19-C10-C9=109.39              H19-C10-H18=109.03             
H20-C10-C9=110.70              H20-C10-H18=107.89             H20-C10-H19=109.06             
 
 selected dihedral angles (degree)
 ---------------------------------
C3-O2-C1-H12=182.15           C3-O2-C1-H13=301.30           C3-O2-C1-H14= 62.94           O4-C3-O2-C1= 73.18            
C6-C3-O2-C1=285.20            C5-O4-C3-O2= 83.64            C5-O4-C3-C6=232.72            H15-C5-O4-C3=176.61           
H16-C5-O4-C3=295.88           H17-C5-O4-C3= 56.96           N7-C6-C3-O2=173.26            N7-C6-C3-O4= 26.37            
O11-C6-C3-O2=340.77           O11-C6-C3-O4=193.88           N8-N7-C6-C3=168.75            N8-N7-C6-O11=  0.23           
C9-N8-N7-C6=359.81            C10-C9-N8-N7=180.22           O11-C9-N8-N7=  0.08           H18-C10-C9-N8=119.00          
H18-C10-C9-O11=299.15         H19-C10-C9-N8=358.81          H19-C10-C9-O11=178.96         H20-C10-C9-N8=238.60          
H20-C10-C9-O11= 58.75         
           -------------------------------------------------
          |                Final Singlepoint                |
           -------------------------------------------------

          ...................................................
          :                      SETUP                      :
          :.................................................:
          :  # basis functions                  62          :
          :  # atomic orbitals                  62          :
          :  # shells                           40          :
          :  # electrons                        62          :
          :  # halogen bonds                     0          :
          :  max. iterations                   250          :
          :  Hamiltonian                  GFN1-xTB          :
          :  restarted?                      false          :
          :  GBSA solvation                   true          :
          :  PC potential                    false          :
          :  electronic temp.          300.0000000     K    :
          :  accuracy                    1.0000000          :
          :  -> integral cutoff          0.2500000E+02      :
          :  -> integral neglect         0.1000000E-07      :
          :  -> SCF convergence          0.1000000E-05 Eh   :
          :  -> wf. convergence          0.2000000E-04 e    :
          :  Broyden damping             0.4000000          :
          ...................................................

 iter      E             dE          RMSdq      gap      omega  full diag
   1    -38.6068354 -0.386068E+02  0.975E-06    2.79       0.0  T
   2    -38.6068354 -0.831335E-12  0.420E-06    2.79    5323.9  T
   3    -38.6068354 -0.639488E-13  0.237E-06    2.79    9440.7  T

   *** convergence criteria satisfied after 3 iterations ***

         #    Occupation            Energy/Eh            Energy/eV
      -------------------------------------------------------------
         1        2.0000           -0.7737047             -21.0536
       ...           ...                  ...                  ...
        25        2.0000           -0.4214342             -11.4678
        26        2.0000           -0.4211435             -11.4599
        27        2.0000           -0.4184611             -11.3869
        28        2.0000           -0.3976544             -10.8207
        29        2.0000           -0.3877509             -10.5512
        30        2.0000           -0.3716115             -10.1121
        31        2.0000           -0.2901007              -7.8940 (HOMO)
        32                         -0.1875983              -5.1048 (LUMO)
        33                         -0.1503193              -4.0904
        34                         -0.1167381              -3.1766
        35                         -0.1066855              -2.9031
        36                         -0.1045068              -2.8438
       ...                                ...                  ...
        62                          0.6466757              17.5969
      -------------------------------------------------------------
                  HL-Gap            0.1025024 Eh            2.7892 eV
             Fermi-level           -0.2388495 Eh           -6.4994 eV

 SCC (total)                   0 d,  0 h,  0 min,  0.020 sec
 SCC setup                      ...        0 min,  0.000 sec (  2.423%)
 Dispersion                     ...        0 min,  0.000 sec (  0.294%)
 classical contributions        ...        0 min,  0.000 sec (  0.117%)
 integral evaluation            ...        0 min,  0.005 sec ( 27.378%)
 iterations                     ...        0 min,  0.002 sec (  9.033%)
 molecular gradient             ...        0 min,  0.012 sec ( 59.746%)
 printout                       ...        0 min,  0.000 sec (  0.850%)

         :::::::::::::::::::::::::::::::::::::::::::::::::::::
         ::                     SUMMARY                     ::
         :::::::::::::::::::::::::::::::::::::::::::::::::::::
         :: total energy             -38.303422692425 Eh    ::
         :: total w/o Gsasa/hb       -38.294873263932 Eh    ::
         :: gradient norm              0.000428386741 Eh/a0 ::
         :: HOMO-LUMO gap              2.789231841581 eV    ::
         ::.................................................::
         :: SCC energy               -38.606835359896 Eh    ::
         :: -> electrostatic           0.256090528850 Eh    ::
         :: -> Gsolv                  -0.102242375097 Eh    ::
         ::    -> Gelec               -0.093692946604 Eh    ::
         ::    -> Gsasa               -0.015451395507 Eh    ::
         ::    -> Ghb                 -0.000722311991 Eh    ::
         ::    -> Gshift               0.007624279005 Eh    ::
         :: repulsion energy           0.311500479035 Eh    ::
         :: dispersion energy         -0.008087811565 Eh    ::
         :: halogen bond corr.         0.000000000000 Eh    ::
         :: add. restraining           0.000000000000 Eh    ::
         :: total charge              -1.000000000000 e     ::
         :::::::::::::::::::::::::::::::::::::::::::::::::::::

           -------------------------------------------------
          |                Property Printout                |
           -------------------------------------------------

    * Orbital Energies and Occupations

         #    Occupation            Energy/Eh            Energy/eV
      -------------------------------------------------------------
         1        2.0000           -0.7737047             -21.0536
       ...           ...                  ...                  ...
        19        2.0000           -0.5100196             -13.8783
        20        2.0000           -0.5066829             -13.7875
        21        2.0000           -0.4932665             -13.4225
        22        2.0000           -0.4753058             -12.9337
        23        2.0000           -0.4697829             -12.7834
        24        2.0000           -0.4609397             -12.5428
        25        2.0000           -0.4214342             -11.4678
        26        2.0000           -0.4211435             -11.4599
        27        2.0000           -0.4184611             -11.3869
        28        2.0000           -0.3976544             -10.8207
        29        2.0000           -0.3877509             -10.5512
        30        2.0000           -0.3716115             -10.1121
        31        2.0000           -0.2901007              -7.8940 (HOMO)
        32                         -0.1875983              -5.1048 (LUMO)
        33                         -0.1503193              -4.0904
        34                         -0.1167381              -3.1766
        35                         -0.1066855              -2.9031
        36                         -0.1045068              -2.8438
        37                         -0.0501789              -1.3654
        38                         -0.0492663              -1.3406
        39                         -0.0489387              -1.3317
        40                         -0.0474662              -1.2916
        41                         -0.0448012              -1.2191
        42                         -0.0409296              -1.1138
       ...                                ...                  ...
        62                          0.6466757              17.5969
      -------------------------------------------------------------
                  HL-Gap            0.1025024 Eh            2.7892 eV
             Fermi-level           -0.2388495 Eh           -6.4994 eV

  Mulliken/CM5 charges         n(s)   n(p)   n(d)
     1C     0.17075  0.05171   0.970  2.859  0.000
     2O    -0.50122 -0.58099   1.698  4.804  0.000
     3C     0.20777  0.25448   0.956  2.836  0.000
     4O    -0.50261 -0.58230   1.704  4.799  0.000
     5C     0.17463  0.05601   0.968  2.857  0.000
     6C     0.30031  0.40946   1.010  2.690  0.000
     7N    -0.44715 -0.54085   1.586  3.861  0.000
     8N    -0.33456 -0.44354   1.577  3.758  0.000
     9C     0.32651  0.43573   0.984  2.689  0.000
    10C    -0.10940 -0.24646   1.007  3.103  0.000
    11O    -0.43619 -0.48593   1.713  4.723  0.000
    12H     0.01033  0.06987   0.990  0.000  0.000
    13H     0.00653  0.06661   0.993  0.000  0.000
    14H     0.00532  0.06551   0.995  0.000  0.000
    15H     0.00988  0.06943   0.990  0.000  0.000
    16H     0.00392  0.06355   0.996  0.000  0.000
    17H    -0.00362  0.05514   1.004  0.000  0.000
    18H     0.04104  0.09506   0.959  0.000  0.000
    19H     0.03627  0.09194   0.964  0.000  0.000
    20H     0.04149  0.09559   0.959  0.000  0.000

Wiberg/Mayer (AO) data.
largest (>0.10) Wiberg bond orders for each atom

 ---------------------------------------------------------------------------
     #   Z sym  total        # sym  WBO       # sym  WBO       # sym  WBO
 ---------------------------------------------------------------------------
     1   6 C    3.937 --    12 H    0.986    13 H    0.983    14 H    0.982
                             2 O    0.945
     2   8 O    1.992 --     1 C    0.945     3 C    0.926
     3   6 C    3.582 --     6 C    1.422     2 O    0.926     4 O    0.900
                             7 N    0.154
     4   8 O    1.991 --     5 C    0.959     3 C    0.900
     5   6 C    3.935 --    15 H    0.985    16 H    0.982    17 H    0.981
                             4 O    0.959
     6   6 C    3.862 --     3 C    1.422     7 N    1.329    11 O    0.969
     7   7 N    2.817 --     6 C    1.329     8 N    1.145     3 C    0.154
                             9 C    0.105
     8   7 N    2.985 --     9 C    1.679     7 N    1.145
     9   6 C    3.887 --     8 N    1.679    10 C    1.018    11 O    1.004
                             7 N    0.105
    10   6 C    3.996 --     9 C    1.018    19 H    0.987    20 H    0.975
                            18 H    0.975
    11   8 O    2.190 --     9 C    1.004     6 C    0.969
    12   1 H    1.022 --     1 C    0.986
    13   1 H    1.019 --     1 C    0.983
    14   1 H    1.020 --     1 C    0.982
    15   1 H    1.023 --     5 C    0.985
    16   1 H    1.024 --     5 C    0.982
    17   1 H    1.027 --     5 C    0.981
    18   1 H    1.007 --    10 C    0.975
    19   1 H    1.007 --    10 C    0.987
    20   1 H    1.006 --    10 C    0.975
 ---------------------------------------------------------------------------

Topologies differ in total number of bonds
Writing topology from bond orders to xtbtopo.mol

 dipole moment from electron density (au)
     X       Y       Z   
   0.0233   2.0178  -0.8205  total (Debye):    5.537

           -------------------------------------------------
          |                Geometry Summary                 |
           -------------------------------------------------

      molecular mass/u    :      157.1475033
   center of mass at/Å    :        0.1086681      -0.2106954      -0.0990077
  moments of inertia/u·Å² :        0.2411524E+03   0.7113072E+03   0.8922353E+03
rotational constants/cm⁻¹ :        0.6990448E-01   0.2369951E-01   0.1889371E-01

 * 17 selected distances

     #   Z          #   Z                                           value/Å
     1   6 C        2   8 O                                       1.4238909
     4   8 O        5   6 C                                       1.4154735
     3   6 C        6   6 C                                       1.3843887
     6   6 C        7   7 N                                       1.3477254
     8   7 N        9   6 C                                       1.2842266
     9   6 C       10   6 C                                       1.4878738 (max)
     6   6 C       11   8 O                                       1.3859537
     9   6 C       11   8 O                                       1.3720413
     1   6 C       12   1 H                                       1.0922522
     1   6 C       13   1 H                                       1.0981314
     1   6 C       14   1 H                                       1.0985486
     5   6 C       15   1 H                                       1.0924030
     5   6 C       16   1 H                                       1.0983448
     5   6 C       17   1 H                                       1.0990308
    10   6 C       18   1 H                                       1.0911927
    10   6 C       19   1 H                                       1.0881155 (min)
    10   6 C       20   1 H                                       1.0909953

 * 4 distinct bonds (by element types)

   Z      Z             #   av. dist./Å        max./Å        min./Å
   1 H    6 C           9     1.0943349     1.0990308     1.0881155
   6 C    6 C           2     1.4361313     1.4878738     1.3843887
   6 C    7 N           2     1.3159760     1.3477254     1.2842266
   6 C    8 O           4     1.3993398     1.4238909     1.3720413


optimized geometry written to: xtbopt.xyz


           -------------------------------------------------
          | TOTAL ENERGY              -38.303422692425 Eh   |
          | GRADIENT NORM               0.000428386741 Eh/α |
          | HOMO-LUMO GAP               2.789231841581 eV   |
           -------------------------------------------------

------------------------------------------------------------------------
 * finished run on 2023/06/20 at 14:53:00.873     
------------------------------------------------------------------------
 total:
 * wall-time:     0 d,  0 h,  0 min,  2.207 sec
 *  cpu-time:     0 d,  0 h,  0 min,  2.172 sec
 * ratio c/w:     0.984 speedup
 SCF:
 * wall-time:     0 d,  0 h,  0 min,  0.044 sec
 *  cpu-time:     0 d,  0 h,  0 min,  0.043 sec
 * ratio c/w:     0.983 speedup
 ANC optimizer:
 * wall-time:     0 d,  0 h,  0 min,  2.119 sec
 *  cpu-time:     0 d,  0 h,  0 min,  2.109 sec
 * ratio c/w:     0.995 speedup

