42
 energy: -83.649913333184 gnorm: 0.000647914165 xtb: 6.5.1 (579679a)
C            7.11571319302564        0.64826982000376       -0.49076237848425
O            5.86746302917740        0.75288386098593        0.17338632344635
C            4.78936661980940        0.28985545681107       -0.52059544432132
O            4.94051531086624       -0.19370241200413       -1.63941181874507
C            3.51788898391009        0.42553596210143        0.16534899190244
N            2.45031420789334       -0.04774209382497       -0.58529234647645
C            1.25582382980762        0.01708591461620       -0.12052172282811
C            0.07122517613482       -0.53763880748652       -0.91453494527864
C            0.25192526690807       -2.06285893902221       -0.95217527064981
C            0.16141287734222        0.01974462585829       -2.34699303799442
N           -1.14964231617085       -0.07453157353023       -0.24975809869757
C           -2.38119672217034       -0.98766667317987       -0.13592001682609
C           -3.14150241027491       -0.94477826478160       -1.50503465823152
O           -2.16607540397669       -2.17755102715647        0.33384580055868
C           -3.24360866924962       -0.13684604911728        0.87069994609364
N           -2.82507115877086        0.43436257179598        1.95647682356921
N           -3.93703241644819        0.93846847392918        2.60380594889719
C           -4.95096006920734        0.63235136177580        1.86846893357900
C           -6.37787738051401        0.95362952625542        2.11627262299025
O           -4.59083926298577       -0.04860288891082        0.76198165057059
N            0.99108262435705        0.53344797902784        1.12427591982238
C            1.93496856163967        1.03284756303769        1.96922242706005
O            1.60670424666157        1.49336611042135        3.06669713508670
C            3.35891136103625        0.97631657173186        1.46334928822426
O            4.27055718872543        1.40939856236227        2.20072693200501
H            7.35381463678442       -0.39702556554837       -0.71377368909033
H            7.10601076002077        1.21235057779028       -1.42909459780007
H            7.87115496017456        1.06144109154970        0.17672045338320
H           -0.52589798243442       -2.53648285257827       -1.54776353263561
H            0.22798886199165       -2.48238361777705        0.05335431303614
H            1.22226195026265       -2.28332627922615       -1.40169652677083
H           -0.60561510104132       -0.42319065805904       -2.97919505690394
H            0.02780044110501        1.10125927824559       -2.34238327224546
H            1.14168695967425       -0.20684000453596       -2.76808660395503
H           -1.45955717566362        0.77550507367227       -0.70938529977479
H           -2.56770508599963       -1.48739218237771       -2.25349776242059
H           -4.10301065797838       -1.43996282759932       -1.37833304788686
H           -3.30588073075372        0.07690757950208       -1.84153183197902
H           -6.76446149981683        1.58805926220355        1.31911205789813
H           -6.97358178265301        0.04163021256732        2.13944553708588
H           -6.47454586304700        1.47301915463912        3.06655231569226
H            0.00946964184131        0.58078612582968        1.39599653908846
