42
 energy: -83.652366811361 gnorm: 0.000368007278 xtb: 6.5.1 (579679a)
C           -6.78596080331281       -0.94125044246839       -1.34566392970784
O           -5.53450451317133       -1.19148630096927       -0.70572042717101
C           -4.62857002054370       -0.18554578916941       -0.77797731226176
O           -4.89345456861779        0.85365658078593       -1.34867953626411
C           -3.33993748382249       -0.48380255303503       -0.12312628741602
N           -2.43991286219486        0.54228431363559       -0.22125115602329
C           -1.24999585143248        0.36166827848840        0.31089128656569
C           -0.26817070767195        1.53106634811337        0.24902317017072
C           -0.70567131132416        2.53915623318948       -0.82034608523088
C           -0.26455706070901        2.18725887907134        1.64502151197619
N            1.04322559780437        0.98289585705392       -0.07821986312254
C            2.19658328821827        1.75594321334750       -0.06560263451108
O            2.16013107284244        3.00748068445446       -0.01977595796795
C            3.40212896357061        1.01453921889060       -0.17278446897868
N            4.63027018590996        1.50226857140296       -0.22880609883122
N            5.51477032621299        0.54980331184868       -0.33974699717819
C            4.78513848370487       -0.72829464019378       -0.36065983524433
C            5.23104134580858       -1.59912135593303        0.82735985025748
C            5.05005512648616       -1.45552725401727       -1.69159929723775
O            3.40877280070692       -0.39662631793716       -0.24513667718028
N           -0.81894460161306       -0.72377883856958        0.94673271655346
C           -1.64885762292919       -1.78793600104858        1.10802723776963
O           -1.29710026080449       -2.81971372432846        1.70662475706575
C           -2.99893505372226       -1.64602797907648        0.53052366090573
O           -3.81266509312754       -2.72048161226088        0.70002538645843
H           -7.40441983100412       -1.82192475990871       -1.18984800168862
H           -7.26648196360394       -0.06278723432362       -0.90732900139794
H           -6.63635585379172       -0.77227829820891       -2.41533461280385
H           -1.72427530984303        2.86884766766169       -0.61750195521027
H           -0.04789043173900        3.40708991904551       -0.82512857124232
H           -0.68214699243955        2.06915431234256       -1.80403454129159
H           -1.27122554898541        2.52361332839924        1.89219983917548
H            0.40790277434271        3.04395332380502        1.66869100333540
H            0.05508367832614        1.45954796933922        2.39139781586013
H            1.15748473095348        0.00430168812358        0.16828199270458
H            6.29896452386205       -1.79368768669146        0.75409670492767
H            5.03049005837757       -1.07023918842822        1.75795135392350
H            4.69225773957551       -2.54525298506725        0.83033907119340
H            4.71441078644722       -0.83078338329480       -2.51783699337699
H            6.11666063078924       -1.64096318690971       -1.79938886136977
H            4.51463833035561       -2.40311109295312       -1.72207805803738
H           -4.68997769789131       -2.58391207420555        0.31464980190256
