42
 energy: -83.571280989048 gnorm: 0.000418042755 xtb: 6.5.1 (579679a)
C            7.13522482826093        0.87448039498770       -1.05959614217812
O            5.85013697660427        1.19568324072126       -0.54303591706882
C            4.89200162021498        0.21573981821801       -0.69643101729335
O            5.18364351497374       -0.84279008786955       -1.24826004630624
C            3.58284773751084        0.56426350760365       -0.16022330240824
N            2.65072843301864       -0.43917346117686       -0.29031417650365
C            1.43738218089095       -0.21129284574518        0.16351154540312
C            0.41914359478290       -1.35227643090054        0.06327191957894
C            0.31078177346307       -1.96728909095820        1.47653408974180
C            0.90061875396589       -2.40364579745963       -0.94486453533432
N           -0.84739230520919       -0.76863702090744       -0.38196901609148
C           -2.04824203838979       -1.55701540094433       -0.27315406778834
O           -2.00336800938956       -2.83472760949772       -0.31157922582895
C           -3.21153644138135       -0.82461115106191       -0.22029794590214
N           -4.53037113292912       -1.30147735386835       -0.14682388277317
N           -5.26140942051125       -0.20077410631109       -0.06952881516292
C           -6.69591740106609       -0.31839221617496        0.01681399006804
C           -4.56691663746409        0.92064123876555       -0.07400432932028
C           -5.08400672617079        2.31134307913853       -0.05074923902851
O           -3.23301801925479        0.63663558903600       -0.18314589005609
N            1.00034689308365        0.89946255284845        0.75389984070175
C            1.85377528365517        1.95030019142855        0.92787602251631
O            1.48279803288135        3.01051617521482        1.48018263830698
C            3.21685659238521        1.76240977096989        0.43748145692550
O            4.05524139302140        2.83330779654388        0.61362876658615
H            7.08703321459194        0.70761301477125       -2.14046697644111
H            7.78701013142721        1.72008844403424       -0.84742809992338
H            7.53131470753979       -0.02626081230868       -0.57987432347792
H            1.29427676998190       -2.30611276761366        1.80442488621335
H           -0.05043145771804       -1.21419650445662        2.17826281544271
H           -0.37140668301519       -2.81712885338541        1.48269592224203
H            0.94526316363836       -1.96424060404240       -1.94277563613067
H            0.22480143471190       -3.25796054629829       -0.96647135694498
H            1.89825997406638       -2.74998531532267       -0.67268593214104
H           -0.97404906781050        0.14984053130319        0.04683407211632
H           -6.94970891355651       -1.37493022998405       -0.02762113997033
H           -7.16128024670659        0.21024588124308       -0.81402467391020
H           -7.04875371929030        0.10817737633092        0.95500258260309
H           -4.25888574723346        2.99864052174717        0.12810112745636
H           -5.55891250401500        2.57762347389944       -0.99880163368896
H           -5.82784766353147        2.43593810618013        0.73678257137031
H            4.94396712996483        2.64996750130744        0.27613207440579
