42
 energy: -82.946629167864 gnorm: 0.000402351319 xtb: 6.5.1 (579679a)
C            2.97734639688295       -0.14028952298494        4.36612445431644
O            3.12808399511426        0.19254560182262        2.98443260330279
C            2.04793046174698        0.06308935191902        2.21806363819596
O            0.97498054158287       -0.31300798404423        2.65334487644486
C            2.27127433226542        0.42450203965354        0.79600773680797
N            1.16625583549430        0.31387655663510        0.01186770387571
C            1.26950701269106        0.62781752919533       -1.27012843523022
C            0.01384349943524        0.49618863793857       -2.11863712629077
C            0.20689628528169       -0.61742767248837       -3.15399362896396
C           -0.29461594287837        1.83476975868156       -2.79524845309994
N           -1.07171011481382        0.12635524033663       -1.19717349395544
C           -2.32635216823483       -0.01541077223944       -1.55177705778050
O           -2.85120100496365        0.17890439189518       -2.62248538724072
C           -3.25125182288554       -0.49249210146059       -0.32226590757733
C           -4.64789124497005       -0.79523929812676       -0.84225849029032
N           -3.18418491716339        0.53092545378584        0.65239122171942
N           -2.56261867357357        0.08731008621498        1.68599653929206
C           -2.25626868181048       -1.20841088272899        1.46944651329464
C           -1.54232981078051       -2.08913948307152        2.39235463180917
O           -2.65404448439368       -1.60945493458743        0.29503216644120
N            2.34757180438861        1.04752591308414       -1.90793193951067
C            3.50335680754525        1.18507003294929       -1.20115478953646
O            4.57443018163540        1.57054854005590       -1.68422852446615
C            3.45227872310068        0.85354316798339        0.23364907003409
O            4.60164772064186        1.00965979254252        0.89623722026296
H            2.18418529262730        0.46243364751120        4.81486100445073
H            3.93119480065636        0.07148714150477        4.84531607298536
H            2.72738211209074       -1.19825244232307        4.47155621725367
H            1.08495854227984       -0.39035110548385       -3.75736952903004
H           -0.66603626834101       -0.68933082823477       -3.80070701209799
H            0.35714501518073       -1.57124353358567       -2.65107183496911
H           -1.14020954044327        1.73747680831335       -3.47344153373161
H            0.58257127104474        2.14842978566457       -3.36018466401170
H           -0.52317578138726        2.59033667786180       -2.04492178162965
H           -0.75857336443180       -0.07974665040779       -0.25049948880768
H           -5.26987047287292       -1.13726335149184       -0.01920328104374
H           -4.58500946520812       -1.56772910376932       -1.60492153860586
H           -5.06450945692863        0.11108868192143       -1.27514009568965
H           -1.69698359211378       -3.13135079643521        2.12606229433597
H           -0.47293918583332       -1.85900008031886        2.32823371500079
H           -1.85276349119042       -1.89236549734546        3.41682338592173
H            5.26969985353726        1.31754420366587        0.24694092781763
