      -----------------------------------------------------------      
     |                   =====================                   |     
     |                           x T B                           |     
     |                   =====================                   |     
     |                         S. Grimme                         |     
     |          Mulliken Center for Theoretical Chemistry        |     
     |                    University of Bonn                     |     
      -----------------------------------------------------------      

   * xtb version 6.5.1 (579679a) compiled by 'ehlert@majestix' on 2022-07-11

   xtb is free software: you can redistribute it and/or modify it under
   the terms of the GNU Lesser General Public License as published by
   the Free Software Foundation, either version 3 of the License, or
   (at your option) any later version.
   
   xtb is distributed in the hope that it will be useful,
   but WITHOUT ANY WARRANTY; without even the implied warranty of
   MERCHANTABILITY or FITNESS FOR A PARTICULAR PURPOSE.  See the
   GNU Lesser General Public License for more details.
   
   Cite this work as:
   * C. Bannwarth, E. Caldeweyher, S. Ehlert, A. Hansen, P. Pracht,
     J. Seibert, S. Spicher, S. Grimme, WIREs Comput. Mol. Sci., 2020, 11,
     e01493. DOI: 10.1002/wcms.1493
   
   for GFN2-xTB:
   * C. Bannwarth, S. Ehlert and S. Grimme., J. Chem. Theory Comput., 2019,
     15, 1652-1671. DOI: 10.1021/acs.jctc.8b01176
   for GFN1-xTB:
   * S. Grimme, C. Bannwarth, P. Shushkov, J. Chem. Theory Comput., 2017,
     13, 1989-2009. DOI: 10.1021/acs.jctc.7b00118
   for GFN0-xTB:
   * P. Pracht, E. Caldeweyher, S. Ehlert, S. Grimme, ChemRxiv, 2019, preprint.
     DOI: 10.26434/chemrxiv.8326202.v1
   for GFN-FF:
   * S. Spicher and S. Grimme, Angew. Chem. Int. Ed., 2020, 59, 15665-15673.
     DOI: 10.1002/anie.202004239
   
   for ALPB and GBSA implicit solvation:
   * S. Ehlert, M. Stahn, S. Spicher, S. Grimme, J. Chem. Theory Comput.,
     2021, 17, 4250-4261. DOI: 10.1021/acs.jctc.1c00471
   
   for DFT-D4:
   * E. Caldeweyher, C. Bannwarth and S. Grimme, J. Chem. Phys., 2017,
     147, 034112. DOI: 10.1063/1.4993215
   * E. Caldeweyher, S. Ehlert, A. Hansen, H. Neugebauer, S. Spicher,
     C. Bannwarth and S. Grimme, J. Chem. Phys., 2019, 150, 154122.
     DOI: 10.1063/1.5090222
   * E. Caldeweyher, J.-M. Mewes, S. Ehlert and S. Grimme, Phys. Chem. Chem. Phys.
     2020, 22, 8499-8512. DOI: 10.1039/D0CP00502A
   
   for sTDA-xTB:
   * S. Grimme and C. Bannwarth, J. Chem. Phys., 2016, 145, 054103.
     DOI: 10.1063/1.4959605
   
   in the mass-spec context:
   * V. Asgeirsson, C. Bauer and S. Grimme, Chem. Sci., 2017, 8, 4879.
     DOI: 10.1039/c7sc00601b
   * J. Koopman and S. Grimme, ACS Omega 2019, 4, 12, 15120-15133.
     DOI: 10.1021/acsomega.9b02011
   
   for metadynamics refer to:
   * S. Grimme, J. Chem. Theory Comput., 2019, 155, 2847-2862
     DOI: 10.1021/acs.jctc.9b00143
   
   for SPH calculations refer to:
   * S. Spicher and S. Grimme, J. Chem. Theory Comput., 2021, 17, 1701-1714
     DOI: 10.1021/acs.jctc.0c01306
   
   with help from (in alphabetical order)
   P. Atkinson, C. Bannwarth, F. Bohle, G. Brandenburg, E. Caldeweyher
   M. Checinski, S. Dohm, S. Ehlert, S. Ehrlich, I. Gerasimov, C. Hölzer
   A. Katbashev, J. Koopman, C. Lavigne, S. Lehtola, F. März, M. Müller,
   F. Musil, H. Neugebauer, J. Pisarek, C. Plett, P. Pracht, F. Pultar,
   J. Seibert, P. Shushkov, S. Spicher, M. Stahn, M. Steiner, T. Strunk,
   J. Stückrath, T. Rose, and J. Unsleber
   
 * started run on 2023/06/20 at 15:10:29.258     

           -------------------------------------------------
          |                Calculation Setup                |
           -------------------------------------------------

          program call               : /lustre/hpc/kemi/ree/PhD/git/ReactivityQM/dep/xtb-6.5.1/bin/xtb --gfn 1 /lustre/hpc/kemi/ree/PhD/git/ReactivityQM/calculations/R02/reac01prodE10/conf14/R02_reac01prodE10_conf14_gfn1.xyz --opt --vfukui --chrg -1 --uhf 0 --alpb DMSO
          hostname                   : node315
          coordinate file            : /lustre/hpc/kemi/ree/PhD/git/ReactivityQM/calculations/R02/reac01prodE10/conf14/R02_reac01prodE10_conf14_gfn1.xyz
          omp threads                :                     1

   ID    Z sym.   atoms
    1    6 C      1, 3, 5, 7-10, 12, 14, 17-19, 22, 24
    2    8 O      2, 4, 13, 20, 23, 25
    3    7 N      6, 11, 15, 16, 21
    4    1 H      26-43

           -------------------------------------------------
          |                 G F N 1 - x T B                 |
           -------------------------------------------------

        Reference                      10.1021/acs.jctc.7b00118
      * Hamiltonian:
        H0-scaling (s, p, d)           1.850000    2.250000    2.000000
        zeta-weighting                 0.000000
      * Dispersion:
        s8                             2.400000
        a1                             0.630000
        a2                             5.000000
        s9                             0.000000
      * Repulsion:
        kExp                           1.500000
        rExp                           1.000000
      * Coulomb:
        alpha                          2.000000
        third order                    atomic
        anisotropic                    false
      * Halogen bond correction:
        rad-scale                      1.300000
        damping                        0.440000

      * Solvation model:               ALPB
        Solvent                        DMSO
        Parameter file                 internal GFN1-xTB/ALPB
        Dielectric constant                4.6680E+01
        Reference state                gsolv [1 M gas/solution]
        Free energy shift                  7.6243E-03 Eh       4.7843E+00 kcal/mol
        Temperature                        2.9815E+02 K
        Density                            1.1000E+00 kg/L
        Solvent mass                       7.8130E+01 g/mol
        Interaction kernel             P16
        Born radius scaling (c1)           1.7672E+00
        Born radii integrator          GBOBC
        Born offset                        0.0000E+00 a0       0.0000E+00 AA
        H-bond correction              true
        Ion screening                  false
        Surface tension                    1.0000E-05 Eh       1.5569E+01 dyn/cm
        Grid points                               230 per atom

          ...................................................
          :                      SETUP                      :
          :.................................................:
          :  # basis functions                 136          :
          :  # atomic orbitals                 136          :
          :  # shells                           86          :
          :  # electrons                       136          :
          :  # halogen bonds                     0          :
          :  max. iterations                   250          :
          :  Hamiltonian                  GFN1-xTB          :
          :  restarted?                      false          :
          :  GBSA solvation                   true          :
          :  PC potential                    false          :
          :  electronic temp.          300.0000000     K    :
          :  accuracy                    1.0000000          :
          :  -> integral cutoff          0.2500000E+02      :
          :  -> integral neglect         0.1000000E-07      :
          :  -> SCF convergence          0.1000000E-05 Eh   :
          :  -> wf. convergence          0.2000000E-04 e    :
          :  Broyden damping             0.4000000          :
          ...................................................

 iter      E             dE          RMSdq      gap      omega  full diag
   1    -84.2593365 -0.842593E+02  0.863E+00    0.00       0.0  T
   2    -84.3954711 -0.136135E+00  0.533E+00    0.50       1.0  T
   3    -84.0581425  0.337329E+00  0.309E+00    1.50       1.0  T
   4    -84.3678385 -0.309696E+00  0.163E+00    0.81       1.0  T
   5    -84.3410047  0.268338E-01  0.129E+00    0.99       1.0  T
   6    -84.4546751 -0.113670E+00  0.103E+00    0.40       1.0  T
   7    -84.5291417 -0.744666E-01  0.483E-01    0.02       1.0  T
   8    -84.5115210  0.176208E-01  0.596E-01    0.13       1.0  T
   9    -84.5179612 -0.644025E-02  0.547E-01    0.11       1.0  T
  10    -84.5231374 -0.517616E-02  0.456E-01    0.03       1.0  T
  11    -84.5502431 -0.271057E-01  0.159E-01    0.05       1.0  T
  12    -84.5527987 -0.255565E-02  0.747E-02    0.02       1.0  T
  13    -84.5532766 -0.477851E-03  0.505E-02    0.03       1.0  T
  14    -84.5536342 -0.357577E-03  0.138E-02    0.03       1.1  T
  15    -84.5535913  0.428940E-04  0.216E-02    0.04       1.0  T
  16    -84.5536596 -0.683384E-04  0.414E-03    0.03       3.7  T
  17    -84.5536599 -0.313252E-06  0.353E-03    0.03       4.3  T
  18    -84.5536618 -0.190415E-05  0.265E-04    0.03      57.5  T
  19    -84.5536618 -0.448101E-08  0.125E-04    0.03     121.9  T
  20    -84.5536618 -0.137936E-08  0.874E-05    0.03     174.5  T

   *** convergence criteria satisfied after 20 iterations ***

         #    Occupation            Energy/Eh            Energy/eV
      -------------------------------------------------------------
         1        2.0000           -0.8313034             -22.6209
       ...           ...                  ...                  ...
        62        2.0000           -0.4216352             -11.4733
        63        2.0000           -0.4139604             -11.2644
        64        2.0000           -0.4038464             -10.9892
        65        2.0000           -0.4007385             -10.9046
        66        2.0000           -0.3920350             -10.6678
        67        2.0000           -0.3800767             -10.3424
        68        1.3089           -0.2795232              -7.6062 (HOMO)
        69        0.6910           -0.2783097              -7.5732 (LUMO)
        70        0.0001           -0.2693961              -7.3306
        71                         -0.2401550              -6.5350
        72                         -0.1923790              -5.2349
        73                         -0.1527312              -4.1560
       ...                                ...                  ...
       136                          0.7382509              20.0888
      -------------------------------------------------------------
                  HL-Gap            0.0012135 Eh            0.0330 eV
             Fermi-level           -0.2789165 Eh           -7.5897 eV

 SCC (total)                   0 d,  0 h,  0 min,  0.189 sec
 SCC setup                      ...        0 min,  0.002 sec (  1.137%)
 Dispersion                     ...        0 min,  0.000 sec (  0.230%)
 classical contributions        ...        0 min,  0.000 sec (  0.073%)
 integral evaluation            ...        0 min,  0.034 sec ( 17.792%)
 iterations                     ...        0 min,  0.069 sec ( 36.362%)
 molecular gradient             ...        0 min,  0.083 sec ( 43.845%)
 printout                       ...        0 min,  0.001 sec (  0.532%)

         :::::::::::::::::::::::::::::::::::::::::::::::::::::
         ::                     SUMMARY                     ::
         :::::::::::::::::::::::::::::::::::::::::::::::::::::
         :: total energy             -83.802384441985 Eh    ::
         :: total w/o Gsasa/hb       -83.779324873082 Eh    ::
         :: gradient norm              0.144476286366 Eh/a0 ::
         :: HOMO-LUMO gap              0.033022041066 eV    ::
         ::.................................................::
         :: SCC energy               -84.553661836112 Eh    ::
         :: -> electrostatic           0.471366452998 Eh    ::
         :: -> Gsolv                  -0.125704661536 Eh    ::
         ::    -> Gelec               -0.102645092633 Eh    ::
         ::    -> Gsasa               -0.025050029891 Eh    ::
         ::    -> Ghb                 -0.005633818017 Eh    ::
         ::    -> Gshift               0.007624279005 Eh    ::
         :: repulsion energy           0.776786216379 Eh    ::
         :: dispersion energy         -0.025508822252 Eh    ::
         :: halogen bond corr.         0.000000000000 Eh    ::
         :: add. restraining           0.000000000000 Eh    ::
         :: total charge              -1.000000000000 e     ::
         :::::::::::::::::::::::::::::::::::::::::::::::::::::

      ----------------------------------------------------------- 
     |                   =====================                   |
     |                        A N C O P T                        |
     |                   =====================                   |
     |               Approximate Normal Coordinate               |
     |                Rational Function Optimizer                |
      ----------------------------------------------------------- 

          ...................................................
          :                      SETUP                      :
          :.................................................:
          :   optimization level            normal          :
          :   max. optcycles                   200          :
          :   ANC micro-cycles                  20          :
          :   degrees of freedom               123          :
          :.................................................:
          :   RF solver                   davidson          :
          :   write xtbopt.log                true          :
          :   linear?                        false          :
          :   energy convergence         0.5000000E-05 Eh   :
          :   grad. convergence          0.1000000E-02 Eh/α :
          :   maximium RF displ.         1.0000000          :
          :   Hlow (freq-cutoff)         0.1000000E-01      :
          :   Hmax (freq-cutoff)         5.0000000          :
          :   S6 in model hess.         20.0000000          :
          ...................................................

generating ANC from model Hessian ...
Using Lindh-Hessian (1995)
 Shifting diagonal of input Hessian by   9.839016358572712E-003
 Lowest  eigenvalues of input Hessian
    0.000000    0.000000    0.000000    0.000000    0.000000    0.000000
    0.010000    0.010069    0.010349    0.010721    0.011822    0.011884
    0.012673    0.014360    0.014984    0.015469    0.016286    0.016886
 Highest eigenvalues
    1.991529    2.011622    2.187005    2.246603    2.264103    2.414054
 

........................................................................
.............................. CYCLE    1 ..............................
........................................................................
   1    -84.5536618 -0.845537E+02  0.303E-05    0.03       0.0  T
   2    -84.5536618  0.545200E-07  0.590E-04    0.03      25.8  T
   3    -84.5536618 -0.546481E-07  0.102E-05    0.03    1492.9  T
   4    -84.5536618 -0.608225E-11  0.643E-06    0.03    2370.7  T
     SCC iter.                  ...        0 min,  0.015 sec
     gradient                   ...        0 min,  0.081 sec
 * total energy  :   -83.8023844 Eh     change       -0.1053394E-08 Eh
   gradient norm :     0.1444780 Eh/α   predicted     0.0000000E+00 (-100.00%)
   displ. norm   :     0.2856024 α      lambda       -0.1990953E-01
   maximum displ.:     0.1161002 α      in ANC's #25, #32, #21, ...

........................................................................
.............................. CYCLE    2 ..............................
........................................................................
   1    -84.5529548 -0.845530E+02  0.301E-01    0.06       0.0  T
   2    -84.3620733  0.190881E+00  0.118E+00    0.48       1.0  T
   3    -84.5290894 -0.167016E+00  0.545E-01    0.10       1.0  T
   4    -84.5407672 -0.116778E-01  0.368E-01    0.02       1.0  T
   5    -84.5412887 -0.521436E-03  0.369E-01    0.10       1.0  T
   6    -84.5619305 -0.206418E-01  0.309E-02    0.04       1.0  T
   7    -84.5619798 -0.493505E-04  0.236E-02    0.04       1.0  T
   8    -84.5620618 -0.820177E-04  0.525E-03    0.03       2.9  T
   9    -84.5620616  0.268491E-06  0.482E-03    0.03       3.2  T
  10    -84.5620649 -0.329932E-05  0.109E-03    0.03      14.0  T
  11    -84.5620649 -0.484849E-07  0.931E-04    0.03      16.4  T
  12    -84.5620650 -0.986555E-07  0.493E-04    0.03      31.0  T
  13    -84.5620651 -0.368727E-07  0.754E-05    0.03     202.4  T
  14    -84.5620651 -0.862855E-09  0.102E-05    0.03    1489.0  T
     SCC iter.                  ...        0 min,  0.049 sec
     gradient                   ...        0 min,  0.082 sec
 * total energy  :   -83.8171082 Eh     change       -0.1472371E-01 Eh
   gradient norm :     0.0753566 Eh/α   predicted    -0.1077302E-01 ( -26.83%)
   displ. norm   :     0.3049553 α      lambda       -0.1027726E-01
   maximum displ.:     0.1241097 α      in ANC's #32, #25, #21, ...

........................................................................
.............................. CYCLE    3 ..............................
........................................................................
   1    -84.5578029 -0.845578E+02  0.367E-01    0.08       0.0  T
   2    -84.3626512  0.195152E+00  0.125E+00    0.75       1.0  T
   3    -84.5598462 -0.197195E+00  0.328E-01    0.01       1.0  T
   4    -84.5694064 -0.956021E-02  0.165E-01    0.06       1.0  T
   5    -84.5282662  0.411402E-01  0.540E-01    0.04       1.0  T
   6    -84.5727823 -0.445161E-01  0.782E-02    0.04       1.0  T
   7    -84.5732589 -0.476639E-03  0.555E-02    0.04       1.0  T
   8    -84.5737384 -0.479503E-03  0.642E-03    0.03       2.4  T
   9    -84.5737418 -0.339374E-05  0.438E-03    0.03       3.5  T
  10    -84.5737448 -0.295713E-05  0.279E-04    0.03      54.6  T
  11    -84.5737448  0.287602E-07  0.504E-04    0.03      30.3  T
  12    -84.5737448 -0.393961E-07  0.637E-06    0.03    2395.2  T
  13    -84.5737448  0.199975E-09  0.362E-05    0.03     421.7  T
     SCC iter.                  ...        0 min,  0.045 sec
     gradient                   ...        0 min,  0.082 sec
 * total energy  :   -83.8229551 Eh     change       -0.5846994E-02 Eh
   gradient norm :     0.0220058 Eh/α   predicted    -0.5618008E-02 (  -3.92%)
   displ. norm   :     0.1645058 α      lambda       -0.1070567E-02
   maximum displ.:     0.0548311 α      in ANC's #22, #18, #25, ...

........................................................................
.............................. CYCLE    4 ..............................
........................................................................
   1    -84.5731745 -0.845732E+02  0.156E-01    0.05       0.0  T
   2    -84.3806896  0.192485E+00  0.115E+00    0.35       1.0  T
   3    -84.5751527 -0.194463E+00  0.113E-01    0.02       1.0  T
   4    -84.5758086 -0.655853E-03  0.716E-02    0.02       1.0  T
   5    -84.5756216  0.186965E-03  0.775E-02    0.04       1.0  T
   6    -84.5762359 -0.614285E-03  0.467E-02    0.03       1.0  T
   7    -84.5765665 -0.330653E-03  0.662E-04    0.03      23.0  T
   8    -84.5765665  0.531050E-07  0.745E-04    0.03      20.5  T
   9    -84.5765665 -0.526027E-07  0.459E-04    0.03      33.2  T
  10    -84.5765666 -0.295055E-07  0.114E-04    0.03     133.6  T
  11    -84.5765666 -0.177755E-08  0.360E-05    0.03     424.1  T
     SCC iter.                  ...        0 min,  0.038 sec
     gradient                   ...        0 min,  0.082 sec
 * total energy  :   -83.8237452 Eh     change       -0.7900552E-03 Eh
   gradient norm :     0.0157113 Eh/α   predicted    -0.5499104E-03 ( -30.40%)
   displ. norm   :     0.1958432 α      lambda       -0.7650448E-03
   maximum displ.:     0.0708282 α      in ANC's #16, #18, #5, ...

........................................................................
.............................. CYCLE    5 ..............................
........................................................................
   1    -84.5732002 -0.845732E+02  0.201E-01    0.06       0.0  T
   2    -84.3750564  0.198144E+00  0.120E+00    0.47       1.0  T
   3    -84.5669221 -0.191866E+00  0.291E-01    0.01       1.0  T
   4    -84.5783607 -0.114386E-01  0.656E-02    0.04       1.0  T
   5    -84.5716427  0.671801E-02  0.220E-01    0.01       1.0  T
   6    -84.5790106 -0.736794E-02  0.148E-02    0.04       1.0  T
   7    -84.5789839  0.266772E-04  0.202E-02    0.03       1.0  T
   8    -84.5790447 -0.607905E-04  0.208E-03    0.03       7.3  T
   9    -84.5790454 -0.652835E-06  0.110E-04    0.03     138.5  T
  10    -84.5790454  0.139191E-07  0.311E-04    0.03      49.0  T
  11    -84.5790454 -0.140215E-07  0.707E-05    0.03     215.7  T
     SCC iter.                  ...        0 min,  0.038 sec
     gradient                   ...        0 min,  0.082 sec
 * total energy  :   -83.8242069 Eh     change       -0.4617006E-03 Eh
   gradient norm :     0.0090141 Eh/α   predicted    -0.3971987E-03 ( -13.97%)
   displ. norm   :     0.0914423 α      lambda       -0.1564977E-03
   maximum displ.:     0.0388734 α      in ANC's #5, #16, #15, ...

........................................................................
.............................. CYCLE    6 ..............................
........................................................................
   1    -84.5785959 -0.845786E+02  0.994E-02    0.05       0.0  T
   2    -84.3912756  0.187320E+00  0.112E+00    0.22       1.0  T
   3    -84.5795743 -0.188299E+00  0.641E-02    0.03       1.0  T
   4    -84.5798485 -0.274198E-03  0.395E-02    0.03       1.0  T
   5    -84.5800323 -0.183864E-03  0.180E-02    0.04       1.0  T
   6    -84.5800503 -0.180213E-04  0.150E-02    0.03       1.0  T
   7    -84.5800800 -0.296616E-04  0.501E-03    0.03       3.0  T
   8    -84.5800838 -0.378454E-05  0.334E-04    0.03      45.6  T
   9    -84.5800838 -0.154362E-07  0.106E-04    0.03     144.3  T
  10    -84.5800838 -0.160085E-08  0.173E-05    0.03     881.2  T
     SCC iter.                  ...        0 min,  0.035 sec
     gradient                   ...        0 min,  0.083 sec
 * total energy  :   -83.8243248 Eh     change       -0.1179403E-03 Eh
   gradient norm :     0.0058548 Eh/α   predicted    -0.7890430E-04 ( -33.10%)
   displ. norm   :     0.1473851 α      lambda       -0.1669142E-03
   maximum displ.:     0.0672390 α      in ANC's #5, #15, #16, ...

........................................................................
.............................. CYCLE    7 ..............................
........................................................................
   1    -84.5776724 -0.845777E+02  0.132E-01    0.05       0.0  T
   2    -84.3801100  0.197562E+00  0.116E+00    0.32       1.0  T
   3    -84.5769845 -0.196875E+00  0.151E-01    0.02       1.0  T
   4    -84.5803453 -0.336082E-02  0.777E-03    0.03       2.0  T
   5    -84.5803513 -0.597658E-05  0.335E-03    0.04       4.5  T
   6    -84.5803187  0.325592E-04  0.149E-02    0.03       1.0  T
   7    -84.5803349 -0.162029E-04  0.105E-02    0.04       1.4  T
   8    -84.5803520 -0.170938E-04  0.768E-04    0.04      19.9  T
   9    -84.5803521 -0.913102E-07  0.229E-05    0.04     667.1  T
  10    -84.5803521  0.256244E-08  0.131E-04    0.04     116.6  T
     SCC iter.                  ...        0 min,  0.035 sec
     gradient                   ...        0 min,  0.082 sec
 * total energy  :   -83.8244399 Eh     change       -0.1150059E-03 Eh
   gradient norm :     0.0045925 Eh/α   predicted    -0.8527089E-04 ( -25.86%)
   displ. norm   :     0.1334729 α      lambda       -0.9191129E-04
   maximum displ.:     0.0609588 α      in ANC's #5, #15, #16, ...

........................................................................
.............................. CYCLE    8 ..............................
........................................................................
   1    -84.5788521 -0.845789E+02  0.858E-02    0.05       0.0  T
   2    -84.3943927  0.184459E+00  0.111E+00    0.20       1.0  T
   3    -84.5795757 -0.185183E+00  0.537E-02    0.03       1.0  T
   4    -84.5800027 -0.426993E-03  0.705E-03    0.04       2.2  T
   5    -84.5800056 -0.288827E-05  0.431E-03    0.04       3.5  T
   6    -84.5799970  0.864708E-05  0.878E-03    0.04       1.7  T
   7    -84.5800086 -0.115740E-04  0.604E-04    0.04      25.2  T
   8    -84.5800086 -0.504003E-07  0.542E-05    0.04     281.3  T
   9    -84.5800086 -0.160554E-09  0.370E-05    0.04     412.1  T
     SCC iter.                  ...        0 min,  0.032 sec
     gradient                   ...        0 min,  0.082 sec
 * total energy  :   -83.8245052 Eh     change       -0.6533221E-04 Eh
   gradient norm :     0.0044081 Eh/α   predicted    -0.4682772E-04 ( -28.32%)
   displ. norm   :     0.1299515 α      lambda       -0.6577528E-04
   maximum displ.:     0.0579313 α      in ANC's #5, #15, #1, ...

........................................................................
.............................. CYCLE    9 ..............................
........................................................................
   1    -84.5793348 -0.845793E+02  0.423E-02    0.04       0.0  T
   2    -84.4776467  0.101688E+00  0.811E-01    0.08       1.0  T
   3    -84.5795991 -0.101952E+00  0.118E-02    0.04       1.3  T
   4    -84.5796106 -0.114913E-04  0.298E-03    0.04       5.1  T
   5    -84.5796109 -0.281426E-06  0.158E-03    0.04       9.7  T
   6    -84.5796112 -0.274152E-06  0.409E-04    0.04      37.3  T
   7    -84.5796112 -0.164162E-07  0.518E-05    0.04     294.6  T
   8    -84.5796112  0.442327E-09  0.673E-05    0.04     226.6  T
     SCC iter.                  ...        0 min,  0.028 sec
     gradient                   ...        0 min,  0.082 sec
 * total energy  :   -83.8245514 Eh     change       -0.4626397E-04 Eh
   gradient norm :     0.0038060 Eh/α   predicted    -0.3347457E-04 ( -27.64%)
   displ. norm   :     0.1076310 α      lambda       -0.4368710E-04
   maximum displ.:     0.0456176 α      in ANC's #5, #1, #4, ...

........................................................................
.............................. CYCLE   10 ..............................
........................................................................
   1    -84.5795281 -0.845795E+02  0.167E-02    0.04       0.0  T
   2    -84.5758274  0.370073E-02  0.157E-01    0.06       1.0  T
   3    -84.5791659 -0.333856E-02  0.504E-02    0.03       1.0  T
   4    -84.5795385 -0.372546E-03  0.984E-03    0.04       1.5  T
   5    -84.5795524 -0.138947E-04  0.185E-03    0.04       8.2  T
   6    -84.5795526 -0.202360E-06  0.109E-03    0.04      14.0  T
   7    -84.5795527 -0.170187E-06  0.791E-05    0.04     192.8  T
   8    -84.5795527 -0.675797E-09  0.211E-05    0.04     721.7  T
     SCC iter.                  ...        0 min,  0.028 sec
     gradient                   ...        0 min,  0.082 sec
 * total energy  :   -83.8245826 Eh     change       -0.3112633E-04 Eh
   gradient norm :     0.0028611 Eh/α   predicted    -0.2210077E-04 ( -29.00%)
   displ. norm   :     0.0984624 α      lambda       -0.3037521E-04
   maximum displ.:     0.0418882 α      in ANC's #1, #4, #5, ...

........................................................................
.............................. CYCLE   11 ..............................
........................................................................
   1    -84.5794398 -0.845794E+02  0.390E-02    0.03       0.0  T
   2    -84.5466870  0.327528E-01  0.468E-01    0.14       1.0  T
   3    -84.5796329 -0.329460E-01  0.176E-02    0.04       1.0  T
   4    -84.5796239  0.902103E-05  0.165E-02    0.04       1.0  T
   5    -84.5796609 -0.369951E-04  0.502E-03    0.04       3.0  T
   6    -84.5796617 -0.754302E-06  0.473E-03    0.04       3.2  T
   7    -84.5796650 -0.332973E-05  0.102E-04    0.04     149.0  T
   8    -84.5796650 -0.126508E-08  0.299E-05    0.04     509.3  T
   9    -84.5796650  0.272607E-09  0.489E-05    0.04     312.1  T
     SCC iter.                  ...        0 min,  0.031 sec
     gradient                   ...        0 min,  0.082 sec
 * total energy  :   -83.8246044 Eh     change       -0.2183005E-04 Eh
   gradient norm :     0.0022690 Eh/α   predicted    -0.1533868E-04 ( -29.74%)
   displ. norm   :     0.0906634 α      lambda       -0.2235420E-04
   maximum displ.:     0.0434330 α      in ANC's #4, #1, #3, ...

........................................................................
.............................. CYCLE   12 ..............................
........................................................................
   1    -84.5795595 -0.845796E+02  0.525E-02    0.03       0.0  T
   2    -84.5369297  0.426298E-01  0.537E-01    0.18       1.0  T
   3    -84.5796172 -0.426875E-01  0.496E-02    0.04       1.0  T
   4    -84.5799598 -0.342570E-03  0.133E-02    0.03       1.2  T
   5    -84.5799787 -0.189573E-04  0.773E-03    0.04       2.0  T
   6    -84.5799831 -0.437165E-05  0.532E-03    0.04       2.9  T
   7    -84.5799874 -0.431474E-05  0.115E-03    0.04      13.3  T
   8    -84.5799876 -0.198982E-06  0.566E-05    0.04     269.3  T
   9    -84.5799876  0.370250E-09  0.735E-05    0.04     207.4  T
     SCC iter.                  ...        0 min,  0.032 sec
     gradient                   ...        0 min,  0.082 sec
 * total energy  :   -83.8246214 Eh     change       -0.1698901E-04 Eh
   gradient norm :     0.0023096 Eh/α   predicted    -0.1127239E-04 ( -33.65%)
   displ. norm   :     0.1094541 α      lambda       -0.2280996E-04
   maximum displ.:     0.0547752 α      in ANC's #1, #4, #3, ...

........................................................................
.............................. CYCLE   13 ..............................
........................................................................
   1    -84.5797091 -0.845797E+02  0.551E-02    0.03       0.0  T
   2    -84.5354892  0.442199E-01  0.547E-01    0.18       1.0  T
   3    -84.5796550 -0.441658E-01  0.587E-02    0.04       1.0  T
   4    -84.5799403 -0.285256E-03  0.395E-02    0.03       1.0  T
   5    -84.5801795 -0.239210E-03  0.624E-03    0.04       2.4  T
   6    -84.5801811 -0.161323E-05  0.556E-03    0.04       2.7  T
   7    -84.5801856 -0.454442E-05  0.738E-04    0.04      20.7  T
   8    -84.5801857 -0.882209E-07  0.922E-05    0.04     165.3  T
   9    -84.5801857 -0.110772E-08  0.280E-05    0.04     544.3  T
     SCC iter.                  ...        0 min,  0.032 sec
     gradient                   ...        0 min,  0.082 sec
 * total energy  :   -83.8246392 Eh     change       -0.1778577E-04 Eh
   gradient norm :     0.0022819 Eh/α   predicted    -0.1154432E-04 ( -35.09%)
   displ. norm   :     0.1280576 α      lambda       -0.2414316E-04
   maximum displ.:     0.0688349 α      in ANC's #1, #4, #3, ...

........................................................................
.............................. CYCLE   14 ..............................
........................................................................
   1    -84.5800869 -0.845801E+02  0.527E-02    0.03       0.0  T
   2    -84.5367242  0.433626E-01  0.541E-01    0.18       1.0  T
   3    -84.5800582 -0.433339E-01  0.549E-02    0.04       1.0  T
   4    -84.5804747 -0.416561E-03  0.176E-02    0.03       1.0  T
   5    -84.5805215 -0.468049E-04  0.390E-03    0.04       3.9  T
   6    -84.5805091  0.124095E-04  0.983E-03    0.04       1.6  T
   7    -84.5805239 -0.147370E-04  0.825E-04    0.04      18.5  T
   8    -84.5805240 -0.106319E-06  0.327E-05    0.04     466.4  T
   9    -84.5805240 -0.107192E-09  0.103E-05    0.04    1477.0  T
     SCC iter.                  ...        0 min,  0.032 sec
     gradient                   ...        0 min,  0.082 sec
 * total energy  :   -83.8246581 Eh     change       -0.1895233E-04 Eh
   gradient norm :     0.0023530 Eh/α   predicted    -0.1227428E-04 ( -35.24%)
   displ. norm   :     0.1455137 α      lambda       -0.2505847E-04
   maximum displ.:     0.0824060 α      in ANC's #1, #4, #3, ...

........................................................................
.............................. CYCLE   15 ..............................
........................................................................
   1    -84.5803282 -0.845803E+02  0.265E-02    0.03       0.0  T
   2    -84.5584709  0.218573E-01  0.379E-01    0.10       1.0  T
   3    -84.5804137 -0.219428E-01  0.130E-02    0.04       1.2  T
   4    -84.5804341 -0.204010E-04  0.214E-03    0.04       7.1  T
   5    -84.5804346 -0.508492E-06  0.719E-04    0.04      21.2  T
   6    -84.5804343  0.323849E-06  0.156E-03    0.04       9.8  T
   7    -84.5804347 -0.371248E-06  0.158E-04    0.04      96.7  T
   8    -84.5804347 -0.343306E-08  0.492E-05    0.04     310.1  T
     SCC iter.                  ...        0 min,  0.028 sec
     gradient                   ...        0 min,  0.082 sec
 * total energy  :   -83.8246776 Eh     change       -0.1951747E-04 Eh
   gradient norm :     0.0023663 Eh/α   predicted    -0.1279559E-04 ( -34.44%)
   displ. norm   :     0.1506545 α      lambda       -0.2485357E-04
   maximum displ.:     0.0906061 α      in ANC's #1, #4, #3, ...

........................................................................
.............................. CYCLE   16 ..............................
........................................................................
   1    -84.5805530 -0.845806E+02  0.722E-03    0.04       0.0  T
   2    -84.5796394  0.913631E-03  0.769E-02    0.05       1.0  T
   3    -84.5805379 -0.898530E-03  0.128E-02    0.03       1.2  T
   4    -84.5805579 -0.199843E-04  0.104E-03    0.04      14.7  T
   5    -84.5805579  0.306963E-08  0.612E-04    0.04      24.9  T
   6    -84.5805579 -0.351334E-08  0.202E-04    0.04      75.7  T
   7    -84.5805579 -0.532295E-08  0.387E-05    0.04     394.4  T
   8    -84.5805579 -0.112209E-09  0.935E-06    0.04    1630.4  T
     SCC iter.                  ...        0 min,  0.028 sec
     gradient                   ...        0 min,  0.082 sec
 * total energy  :   -83.8246971 Eh     change       -0.1949225E-04 Eh
   gradient norm :     0.0023642 Eh/α   predicted    -0.1271029E-04 ( -34.79%)
   displ. norm   :     0.1382919 α      lambda       -0.2253469E-04
   maximum displ.:     0.0879325 α      in ANC's #1, #4, #3, ...

........................................................................
.............................. CYCLE   17 ..............................
........................................................................
   1    -84.5801638 -0.845802E+02  0.273E-02    0.04       0.0  T
   2    -84.5306812  0.494826E-01  0.566E-01    0.04       1.0  T
   3    -84.5802733 -0.495921E-01  0.603E-03    0.04       2.5  T
   4    -84.5802739 -0.591802E-06  0.480E-03    0.04       3.2  T
   5    -84.5802762 -0.228836E-05  0.265E-03    0.04       5.8  T
   6    -84.5802771 -0.949615E-06  0.520E-04    0.04      29.3  T
   7    -84.5802771 -0.357648E-07  0.870E-05    0.04     175.2  T
   8    -84.5802771 -0.633435E-09  0.494E-05    0.04     308.9  T
     SCC iter.                  ...        0 min,  0.028 sec
     gradient                   ...        0 min,  0.082 sec
 * total energy  :   -83.8247151 Eh     change       -0.1798459E-04 Eh
   gradient norm :     0.0022733 Eh/α   predicted    -0.1148458E-04 ( -36.14%)
   displ. norm   :     0.1081158 α      lambda       -0.1956686E-04
   maximum displ.:     0.0746859 α      in ANC's #1, #4, #3, ...

........................................................................
.............................. CYCLE   18 ..............................
........................................................................
   1    -84.5801113 -0.845801E+02  0.365E-02    0.04       0.0  T
   2    -84.4968176  0.832937E-01  0.734E-01    0.07       1.0  T
   3    -84.5803190 -0.835013E-01  0.120E-03    0.04      12.7  T
   4    -84.5803186  0.380053E-06  0.207E-03    0.04       7.4  T
   5    -84.5803184  0.198389E-06  0.212E-03    0.04       7.2  T
   6    -84.5803190 -0.612296E-06  0.529E-04    0.04      28.8  T
   7    -84.5803190 -0.371401E-07  0.890E-05    0.04     171.3  T
   8    -84.5803190 -0.510681E-09  0.616E-05    0.04     247.7  T
     SCC iter.                  ...        0 min,  0.028 sec
     gradient                   ...        0 min,  0.082 sec
 * total energy  :   -83.8247310 Eh     change       -0.1586561E-04 Eh
   gradient norm :     0.0018838 Eh/α   predicted    -0.9899707E-05 ( -37.60%)
   displ. norm   :     0.1384330 α      lambda       -0.1771568E-04
   maximum displ.:     0.1031995 α      in ANC's #1, #4, #14, ...

........................................................................
.............................. CYCLE   19 ..............................
........................................................................
   1    -84.5795944 -0.845796E+02  0.550E-02    0.04       0.0  T
   2    -84.4406581  0.138936E+00  0.951E-01    0.11       1.0  T
   3    -84.5800458 -0.139388E+00  0.119E-02    0.04       1.3  T
   4    -84.5800640 -0.181266E-04  0.392E-03    0.04       3.9  T
   5    -84.5800646 -0.623807E-06  0.155E-03    0.04       9.9  T
   6    -84.5800648 -0.246148E-06  0.679E-04    0.04      22.5  T
   7    -84.5800649 -0.598349E-07  0.125E-04    0.04     122.4  T
   8    -84.5800649 -0.196668E-08  0.362E-05    0.04     421.8  T
     SCC iter.                  ...        0 min,  0.028 sec
     gradient                   ...        0 min,  0.081 sec
 * total energy  :   -83.8247507 Eh     change       -0.1966852E-04 Eh
   gradient norm :     0.0019265 Eh/α   predicted    -0.8935039E-05 ( -54.57%)
   displ. norm   :     0.0956711 α      lambda       -0.1221676E-04
   maximum displ.:     0.0748085 α      in ANC's #1, #14, #15, ...

........................................................................
.............................. CYCLE   20 ..............................
........................................................................
   1    -84.5802510 -0.845803E+02  0.128E-02    0.04       0.0  T
   2    -84.5705693  0.968172E-02  0.250E-01    0.01       1.0  T
   3    -84.5802727 -0.970340E-02  0.605E-03    0.04       2.5  T
   4    -84.5802742 -0.152931E-05  0.200E-03    0.04       7.6  T
   5    -84.5802746 -0.412213E-06  0.105E-03    0.04      14.6  T
   6    -84.5802748 -0.137252E-06  0.137E-04    0.04     111.5  T
   7    -84.5802748 -0.157436E-08  0.232E-05    0.04     656.9  T
     SCC iter.                  ...        0 min,  0.024 sec
     gradient                   ...        0 min,  0.083 sec
 * total energy  :   -83.8247662 Eh     change       -0.1550613E-04 Eh
   gradient norm :     0.0018904 Eh/α   predicted    -0.6133626E-05 ( -60.44%)
   displ. norm   :     0.1099332 α      lambda       -0.1633951E-04
   maximum displ.:     0.0885256 α      in ANC's #1, #14, #13, ...
 * RMSD in coord.:     0.3001093 α      energy gain  -0.2238172E-01 Eh

generating ANC from model Hessian ...
Using Lindh-Hessian (1995)
 Shifting diagonal of input Hessian by   9.823664120691853E-003
 Lowest  eigenvalues of input Hessian
    0.000000    0.000000    0.000000    0.000000    0.000000    0.000000
    0.010000    0.010178    0.010345    0.010786    0.011810    0.012167
    0.012688    0.014354    0.015188    0.015538    0.016316    0.017389
 Highest eigenvalues
    2.098906    2.180118    2.189205    2.247620    2.260682    2.369741
 

........................................................................
.............................. CYCLE   21 ..............................
........................................................................
   1    -84.5801198 -0.845801E+02  0.869E-03    0.04       0.0  T
   2    -84.5773411  0.277869E-02  0.135E-01    0.06       1.0  T
   3    -84.5801197 -0.277857E-02  0.830E-03    0.04       1.8  T
   4    -84.5801283 -0.858802E-05  0.270E-03    0.04       5.7  T
   5    -84.5801288 -0.569625E-06  0.171E-03    0.04       8.9  T
   6    -84.5801292 -0.365764E-06  0.255E-04    0.04      59.8  T
   7    -84.5801292 -0.929916E-08  0.560E-05    0.04     272.1  T
   8    -84.5801292 -0.357716E-09  0.133E-05    0.04    1148.0  T
     SCC iter.                  ...        0 min,  0.027 sec
     gradient                   ...        0 min,  0.082 sec
 * total energy  :   -83.8247856 Eh     change       -0.1941700E-04 Eh
   gradient norm :     0.0017062 Eh/α   predicted     0.0000000E+00 (-100.00%)
   displ. norm   :     0.0271088 α      lambda       -0.3193678E-05
   maximum displ.:     0.0200603 α      in ANC's #1, #4, #16, ...

........................................................................
.............................. CYCLE   22 ..............................
........................................................................
   1    -84.5803970 -0.845804E+02  0.179E-02    0.03       0.0  T
   2    -84.5676779  0.127191E-01  0.288E-01    0.08       1.0  T
   3    -84.5804433 -0.127654E-01  0.503E-03    0.04       3.0  T
   4    -84.5804462 -0.295216E-05  0.101E-03    0.04      15.1  T
   5    -84.5804463 -0.631168E-07  0.427E-04    0.04      35.7  T
   6    -84.5804463 -0.791665E-08  0.290E-04    0.04      52.7  T
   7    -84.5804463 -0.123888E-07  0.122E-05    0.04    1254.9  T
   8    -84.5804463  0.106581E-11  0.608E-06    0.04    2506.2  T
     SCC iter.                  ...        0 min,  0.028 sec
     gradient                   ...        0 min,  0.082 sec
 * total energy  :   -83.8247937 Eh     change       -0.8074849E-05 Eh
   gradient norm :     0.0007821 Eh/α   predicted    -0.3231075E-05 ( -59.99%)
   displ. norm   :     0.0742448 α      lambda       -0.1193663E-04
   maximum displ.:     0.0514892 α      in ANC's #1, #4, #16, ...

........................................................................
.............................. CYCLE   23 ..............................
........................................................................
   1    -84.5802790 -0.845803E+02  0.403E-02    0.03       0.0  T
   2    -84.5451799  0.350990E-01  0.483E-01    0.14       1.0  T
   3    -84.5804233 -0.352434E-01  0.264E-02    0.04       1.0  T
   4    -84.5805294 -0.106051E-03  0.236E-03    0.04       6.5  T
   5    -84.5805290  0.367794E-06  0.252E-03    0.04       6.1  T
   6    -84.5805285  0.537528E-06  0.311E-03    0.04       4.9  T
   7    -84.5805299 -0.145287E-05  0.554E-04    0.04      27.5  T
   8    -84.5805300 -0.462909E-07  0.849E-05    0.04     179.5  T
   9    -84.5805300 -0.105157E-08  0.167E-05    0.04     913.4  T
     SCC iter.                  ...        0 min,  0.024 sec
     gradient                   ...        0 min,  0.051 sec
 * total energy  :   -83.8248068 Eh     change       -0.1311083E-04 Eh
   gradient norm :     0.0010780 Eh/α   predicted    -0.5983418E-05 ( -54.36%)
   displ. norm   :     0.0771937 α      lambda       -0.7707684E-05
   maximum displ.:     0.0542261 α      in ANC's #1, #4, #16, ...

........................................................................
.............................. CYCLE   24 ..............................
........................................................................
   1    -84.5804600 -0.845805E+02  0.207E-02    0.03       0.0  T
   2    -84.5645256  0.159344E-01  0.323E-01    0.09       1.0  T
   3    -84.5805176 -0.159920E-01  0.778E-03    0.04       2.0  T
   4    -84.5805260 -0.836882E-05  0.955E-04    0.04      16.0  T
   5    -84.5805260 -0.133498E-07  0.570E-04    0.04      26.7  T
   6    -84.5805260 -0.130049E-07  0.444E-04    0.04      34.3  T
   7    -84.5805261 -0.296820E-07  0.139E-05    0.04    1097.9  T
   8    -84.5805261  0.166551E-10  0.125E-05    0.04    1220.9  T
     SCC iter.                  ...        0 min,  0.027 sec
     gradient                   ...        0 min,  0.082 sec
 * total energy  :   -83.8248162 Eh     change       -0.9415960E-05 Eh
   gradient norm :     0.0016294 Eh/α   predicted    -0.3880555E-05 ( -58.79%)
   displ. norm   :     0.0836228 α      lambda       -0.7819235E-05
   maximum displ.:     0.0585619 α      in ANC's #1, #4, #2, ...

........................................................................
.............................. CYCLE   25 ..............................
........................................................................
   1    -84.5804848 -0.845805E+02  0.299E-03    0.04       0.0  T
   2    -84.5799873  0.497539E-03  0.568E-02    0.04       1.0  T
   3    -84.5804861 -0.498776E-03  0.102E-03    0.04      15.0  T
   4    -84.5804862 -0.131871E-06  0.357E-04    0.04      42.7  T
   5    -84.5804862 -0.105864E-07  0.151E-04    0.04     101.0  T
   6    -84.5804862 -0.150395E-08  0.371E-05    0.04     411.1  T
     SCC iter.                  ...        0 min,  0.021 sec
     gradient                   ...        0 min,  0.059 sec
 * total energy  :   -83.8248263 Eh     change       -0.1009852E-04 Eh
   gradient norm :     0.0014446 Eh/α   predicted    -0.3927634E-05 ( -61.11%)
   displ. norm   :     0.1028713 α      lambda       -0.9375305E-05
   maximum displ.:     0.0725138 α      in ANC's #1, #4, #2, ...

........................................................................
.............................. CYCLE   26 ..............................
........................................................................
   1    -84.5803305 -0.845803E+02  0.158E-02    0.04       0.0  T
   2    -84.5633428  0.169877E-01  0.331E-01    0.02       1.0  T
   3    -84.5803683 -0.170255E-01  0.298E-03    0.04       5.1  T
   4    -84.5803685 -0.145099E-06  0.169E-03    0.04       9.0  T
   5    -84.5803688 -0.358664E-06  0.282E-04    0.04      54.1  T
   6    -84.5803688  0.597018E-08  0.264E-04    0.04      57.8  T
   7    -84.5803688 -0.996320E-08  0.390E-05    0.04     391.4  T
   8    -84.5803688 -0.187853E-09  0.799E-06    0.04    1908.0  T
     SCC iter.                  ...        0 min,  0.027 sec
     gradient                   ...        0 min,  0.077 sec
 * total energy  :   -83.8248380 Eh     change       -0.1167872E-04 Eh
   gradient norm :     0.0007956 Eh/α   predicted    -0.4715489E-05 ( -59.62%)
   displ. norm   :     0.1077637 α      lambda       -0.8295596E-05
   maximum displ.:     0.0782615 α      in ANC's #1, #2, #4, ...

........................................................................
.............................. CYCLE   27 ..............................
........................................................................
   1    -84.5802041 -0.845802E+02  0.256E-02    0.04       0.0  T
   2    -84.5354448  0.447593E-01  0.538E-01    0.04       1.0  T
   3    -84.5803047 -0.448599E-01  0.430E-03    0.04       3.5  T
   4    -84.5803055 -0.816846E-06  0.215E-03    0.04       7.1  T
   5    -84.5803059 -0.432587E-06  0.606E-04    0.04      25.2  T
   6    -84.5803059 -0.902222E-08  0.451E-04    0.04      33.8  T
   7    -84.5803060 -0.290131E-07  0.308E-05    0.04     494.6  T
   8    -84.5803060 -0.709548E-10  0.813E-06    0.04    1875.5  T
     SCC iter.                  ...        0 min,  0.028 sec
     gradient                   ...        0 min,  0.077 sec
 * total energy  :   -83.8248479 Eh     change       -0.9962043E-05 Eh
   gradient norm :     0.0005952 Eh/α   predicted    -0.4171277E-05 ( -58.13%)
   displ. norm   :     0.0926350 α      lambda       -0.6128901E-05
   maximum displ.:     0.0690854 α      in ANC's #1, #2, #9, ...

........................................................................
.............................. CYCLE   28 ..............................
........................................................................
   1    -84.5801936 -0.845802E+02  0.243E-02    0.04       0.0  T
   2    -84.5390347  0.411589E-01  0.516E-01    0.03       1.0  T
   3    -84.5802854 -0.412507E-01  0.330E-03    0.04       4.6  T
   4    -84.5802862 -0.748900E-06  0.178E-03    0.04       8.5  T
   5    -84.5802863 -0.152393E-06  0.851E-04    0.04      17.9  T
   6    -84.5802864 -0.547835E-07  0.520E-04    0.04      29.3  T
   7    -84.5802864 -0.392821E-07  0.242E-05    0.04     630.9  T
   8    -84.5802864 -0.959233E-11  0.132E-05    0.04    1158.6  T
     SCC iter.                  ...        0 min,  0.028 sec
     gradient                   ...        0 min,  0.078 sec
 * total energy  :   -83.8248558 Eh     change       -0.7843427E-05 Eh
   gradient norm :     0.0008349 Eh/α   predicted    -0.3076604E-05 ( -60.77%)
   displ. norm   :     0.0843826 α      lambda       -0.5654910E-05
   maximum displ.:     0.0645140 α      in ANC's #1, #2, #16, ...

........................................................................
.............................. CYCLE   29 ..............................
........................................................................
   1    -84.5802784 -0.845803E+02  0.171E-02    0.04       0.0  T
   2    -84.5594729  0.208055E-01  0.367E-01    0.02       1.0  T
   3    -84.5803240 -0.208512E-01  0.235E-03    0.04       6.5  T
   4    -84.5803247 -0.678355E-06  0.950E-04    0.04      16.1  T
   5    -84.5803246  0.819445E-07  0.986E-04    0.04      15.5  T
   6    -84.5803247 -0.992823E-07  0.498E-04    0.04      30.6  T
   7    -84.5803248 -0.360997E-07  0.219E-05    0.04     697.5  T
   8    -84.5803248 -0.525802E-11  0.134E-05    0.04    1140.2  T
     SCC iter.                  ...        0 min,  0.028 sec
     gradient                   ...        0 min,  0.078 sec
 * total energy  :   -83.8248634 Eh     change       -0.7605277E-05 Eh
   gradient norm :     0.0008958 Eh/α   predicted    -0.2837265E-05 ( -62.69%)
   displ. norm   :     0.0884270 α      lambda       -0.6288885E-05
   maximum displ.:     0.0681151 α      in ANC's #1, #2, #16, ...

........................................................................
.............................. CYCLE   30 ..............................
........................................................................
   1    -84.5803800 -0.845804E+02  0.101E-02    0.04       0.0  T
   2    -84.5735415  0.683850E-02  0.210E-01    0.02       1.0  T
   3    -84.5803956 -0.685411E-02  0.157E-03    0.04       9.7  T
   4    -84.5803953  0.279024E-06  0.191E-03    0.04       8.0  T
   5    -84.5803957 -0.435582E-06  0.766E-04    0.04      19.9  T
   6    -84.5803958 -0.546464E-07  0.412E-04    0.04      37.0  T
   7    -84.5803958 -0.248529E-07  0.326E-05    0.04     467.3  T
   8    -84.5803958 -0.968043E-10  0.131E-05    0.04    1166.5  T
     SCC iter.                  ...        0 min,  0.028 sec
     gradient                   ...        0 min,  0.080 sec
 * total energy  :   -83.8248720 Eh     change       -0.8605486E-05 Eh
   gradient norm :     0.0007438 Eh/α   predicted    -0.3155860E-05 ( -63.33%)
   displ. norm   :     0.1021790 α      lambda       -0.7375515E-05
   maximum displ.:     0.0790770 α      in ANC's #1, #16, #2, ...

........................................................................
.............................. CYCLE   31 ..............................
........................................................................
   1    -84.5804238 -0.845804E+02  0.239E-03    0.04       0.0  T
   2    -84.5803862  0.375786E-04  0.160E-02    0.04       1.0  T
   3    -84.5804089 -0.226565E-04  0.996E-03    0.04       1.5  T
   4    -84.5804237 -0.148406E-04  0.184E-03    0.04       8.3  T
   5    -84.5804242 -0.478781E-06  0.346E-04    0.04      44.0  T
   6    -84.5804242 -0.891411E-08  0.202E-04    0.04      75.5  T
   7    -84.5804242 -0.486747E-08  0.817E-05    0.04     186.7  T
   8    -84.5804242 -0.911157E-09  0.155E-05    0.04     985.3  T
     SCC iter.                  ...        0 min,  0.028 sec
     gradient                   ...        0 min,  0.082 sec
 * total energy  :   -83.8248818 Eh     change       -0.9817434E-05 Eh
   gradient norm :     0.0005578 Eh/α   predicted    -0.3705269E-05 ( -62.26%)
   displ. norm   :     0.1102140 α      lambda       -0.7670162E-05
   maximum displ.:     0.0857842 α      in ANC's #1, #16, #2, ...

........................................................................
.............................. CYCLE   32 ..............................
........................................................................
   1    -84.5805006 -0.845805E+02  0.686E-03    0.04       0.0  T
   2    -84.5783366  0.216393E-02  0.118E-01    0.05       1.0  T
   3    -84.5805069 -0.217028E-02  0.285E-03    0.04       5.4  T
   4    -84.5805073 -0.400669E-06  0.695E-04    0.04      22.0  T
   5    -84.5805074 -0.552153E-07  0.264E-04    0.04      57.7  T
   6    -84.5805074 -0.609094E-08  0.886E-05    0.04     172.2  T
   7    -84.5805074 -0.730466E-09  0.329E-05    0.04     463.6  T
     SCC iter.                  ...        0 min,  0.025 sec
     gradient                   ...        0 min,  0.076 sec
 * total energy  :   -83.8248921 Eh     change       -0.1029987E-04 Eh
   gradient norm :     0.0004872 Eh/α   predicted    -0.3856793E-05 ( -62.55%)
   displ. norm   :     0.1216403 α      lambda       -0.8103960E-05
   maximum displ.:     0.0946828 α      in ANC's #1, #16, #4, ...

........................................................................
.............................. CYCLE   33 ..............................
........................................................................
   1    -84.5804855 -0.845805E+02  0.124E-02    0.04       0.0  T
   2    -84.5734309  0.705462E-02  0.214E-01    0.07       1.0  T
   3    -84.5805073 -0.707640E-02  0.421E-03    0.04       3.6  T
   4    -84.5805095 -0.225254E-05  0.676E-04    0.04      22.6  T
   5    -84.5805095 -0.257009E-07  0.186E-04    0.04      81.8  T
   6    -84.5805095  0.775854E-08  0.236E-04    0.04      64.7  T
   7    -84.5805095 -0.808846E-08  0.218E-05    0.04     700.9  T
     SCC iter.                  ...        0 min,  0.025 sec
     gradient                   ...        0 min,  0.077 sec
 * total energy  :   -83.8249030 Eh     change       -0.1088779E-04 Eh
   gradient norm :     0.0005863 Eh/α   predicted    -0.4079841E-05 ( -62.53%)
   displ. norm   :     0.1285239 α      lambda       -0.8196450E-05
   maximum displ.:     0.0999971 α      in ANC's #1, #4, #16, ...

........................................................................
.............................. CYCLE   34 ..............................
........................................................................
   1    -84.5805289 -0.845805E+02  0.116E-02    0.04       0.0  T
   2    -84.5742122  0.631674E-02  0.203E-01    0.07       1.0  T
   3    -84.5805476 -0.633538E-02  0.398E-03    0.04       3.8  T
   4    -84.5805498 -0.227704E-05  0.796E-04    0.04      19.2  T
   5    -84.5805499 -0.265239E-07  0.298E-04    0.04      51.1  T
   6    -84.5805499  0.976296E-08  0.331E-04    0.04      46.1  T
   7    -84.5805499 -0.160799E-07  0.265E-05    0.04     575.0  T
   8    -84.5805499 -0.593445E-10  0.386E-06    0.04    3950.3  T
     SCC iter.                  ...        0 min,  0.028 sec
     gradient                   ...        0 min,  0.078 sec
 * total energy  :   -83.8249139 Eh     change       -0.1087674E-04 Eh
   gradient norm :     0.0005912 Eh/α   predicted    -0.4130068E-05 ( -62.03%)
   displ. norm   :     0.1317717 α      lambda       -0.7725887E-05
   maximum displ.:     0.1024813 α      in ANC's #1, #4, #16, ...

........................................................................
.............................. CYCLE   35 ..............................
........................................................................
   1    -84.5805039 -0.845805E+02  0.113E-02    0.04       0.0  T
   2    -84.5744115  0.609235E-02  0.199E-01    0.07       1.0  T
   3    -84.5805214 -0.610993E-02  0.400E-03    0.04       3.8  T
   4    -84.5805238 -0.239994E-05  0.348E-04    0.04      43.9  T
   5    -84.5805238  0.740221E-07  0.745E-04    0.04      20.5  T
   6    -84.5805238 -0.528066E-07  0.408E-04    0.04      37.3  T
   7    -84.5805238 -0.242621E-07  0.466E-05    0.04     327.0  T
   8    -84.5805238 -0.271854E-09  0.508E-06    0.04    3003.3  T
     SCC iter.                  ...        0 min,  0.028 sec
     gradient                   ...        0 min,  0.079 sec
 * total energy  :   -83.8249239 Eh     change       -0.1008661E-04 Eh
   gradient norm :     0.0005508 Eh/α   predicted    -0.3894021E-05 ( -61.39%)
   displ. norm   :     0.1196568 α      lambda       -0.6408523E-05
   maximum displ.:     0.0935921 α      in ANC's #1, #4, #18, ...

........................................................................
.............................. CYCLE   36 ..............................
........................................................................
   1    -84.5805410 -0.845805E+02  0.602E-03    0.04       0.0  T
   2    -84.5786478  0.189316E-02  0.111E-01    0.05       1.0  T
   3    -84.5805464 -0.189855E-02  0.140E-03    0.04      10.9  T
   4    -84.5805462  0.148058E-06  0.152E-03    0.04      10.1  T
   5    -84.5805465 -0.322160E-06  0.308E-04    0.04      49.5  T
   6    -84.5805465 -0.943302E-09  0.234E-04    0.04      65.3  T
   7    -84.5805465 -0.795561E-08  0.275E-05    0.04     555.1  T
   8    -84.5805465 -0.677289E-10  0.948E-06    0.04    1609.1  T
     SCC iter.                  ...        0 min,  0.021 sec
     gradient                   ...        0 min,  0.071 sec
 * total energy  :   -83.8249321 Eh     change       -0.8194469E-05 Eh
   gradient norm :     0.0004079 Eh/α   predicted    -0.3225867E-05 ( -60.63%)
   displ. norm   :     0.0984548 α      lambda       -0.4575445E-05
   maximum displ.:     0.0781518 α      in ANC's #1, #4, #18, ...

........................................................................
.............................. CYCLE   37 ..............................
........................................................................
   1    -84.5805112 -0.845805E+02  0.248E-03    0.04       0.0  T
   2    -84.5802322  0.279026E-03  0.427E-02    0.04       1.0  T
   3    -84.5805119 -0.279727E-03  0.122E-03    0.04      12.5  T
   4    -84.5805119  0.446820E-07  0.107E-03    0.04      14.2  T
   5    -84.5805121 -0.164099E-06  0.151E-04    0.04     100.9  T
   6    -84.5805121  0.911626E-10  0.115E-04    0.04     132.2  T
     SCC iter.                  ...        0 min,  0.021 sec
     gradient                   ...        0 min,  0.077 sec
 * total energy  :   -83.8249380 Eh     change       -0.5811664E-05 Eh
   gradient norm :     0.0003385 Eh/α   predicted    -0.2301373E-05 ( -60.40%)
   displ. norm   :     0.0733817 α      lambda       -0.3198938E-05
   maximum displ.:     0.0599744 α      in ANC's #1, #18, #5, ...

........................................................................
.............................. CYCLE   38 ..............................
........................................................................
   1    -84.5806041 -0.845806E+02  0.413E-03    0.04       0.0  T
   2    -84.5795573  0.104679E-02  0.823E-02    0.03       1.0  T
   3    -84.5806066 -0.104929E-02  0.121E-03    0.04      12.6  T
   4    -84.5806067 -0.128036E-06  0.296E-04    0.04      51.6  T
   5    -84.5806067  0.327782E-08  0.240E-04    0.04      63.5  T
   6    -84.5806067 -0.645164E-08  0.630E-05    0.04     242.2  T
   7    -84.5806067 -0.486651E-09  0.182E-05    0.04     839.5  T
     SCC iter.                  ...        0 min,  0.024 sec
     gradient                   ...        0 min,  0.077 sec
 * total energy  :   -83.8249420 Eh     change       -0.4071391E-05 Eh
   gradient norm :     0.0002477 Eh/α   predicted    -0.1604231E-05 ( -60.60%)
   displ. norm   :     0.0622041 α      lambda       -0.2605733E-05
   maximum displ.:     0.0512641 α      in ANC's #1, #5, #16, ...

   *** GEOMETRY OPTIMIZATION CONVERGED AFTER 38 ITERATIONS ***

------------------------------------------------------------------------
 total energy gain   :        -0.0225576 Eh      -14.1551 kcal/mol
 total RMSD          :         0.4678076 a0        0.2476 Å
 total power (kW/mol):        -1.5585505 (step)  -10.6341 (real)
------------------------------------------------------------------------

 ANCopt (total)                0 d,  0 h,  0 min,  5.569 sec
 optimizer setup                ...        0 min,  0.001 sec (  0.014%)
 model hessian                  ...        0 min,  0.053 sec (  0.948%)
 ANC generation                 ...        0 min,  0.005 sec (  0.089%)
 coordinate transformation      ...        0 min,  0.001 sec (  0.023%)
 single point calculation       ...        0 min,  5.490 sec ( 98.582%)
 optimization log               ...        0 min,  0.010 sec (  0.177%)
 hessian update                 ...        0 min,  0.001 sec (  0.020%)
 rational function              ...        0 min,  0.005 sec (  0.083%)

================
 final structure:
================
43
 xtb: 6.5.1 (579679a)
C            6.90508325925600        1.28622060206282       -1.17218416845284
O            5.70425075054546        1.47140016566047       -0.43049362367205
C            4.74001958897165        0.50151739338622       -0.63096637874402
O            4.95770948566973       -0.43137650724087       -1.40466602463564
C            3.52974719504594        0.69871066178696        0.12594196638598
N            2.58085578674441       -0.29216252420327       -0.08980995277780
C            1.45451790920571       -0.24828861979883        0.52710265634834
C            0.44122695295629       -1.36630460895923        0.35158705227842
C            0.71650053115738       -2.38867082744305        1.46860910627318
C            0.61320954708677       -2.00891405636960       -1.03278231744902
N           -0.88926092558291       -0.77502116396665        0.51504512452928
C           -2.03769191711784       -1.60971650685939        0.30628420729550
O           -1.99374477499060       -2.85896738717571        0.44420820458136
C           -3.17159767618267       -0.85879353877325        0.00474483035997
N           -3.25981786741850        0.50909531178260       -0.16987157467072
N           -4.54878836323489        0.71140716848430       -0.45212531957374
C           -5.02166189496784        2.05428133686600       -0.69401818909211
C           -5.25571865585762       -0.39451627715310       -0.46486596617752
C           -6.70376475941078       -0.54677722442152       -0.73742540489715
O           -4.46131872072400       -1.44311051623453       -0.18859832471875
N            1.14346882408413        0.73802389438929        1.42208631551379
C            2.00207141147695        1.80818162996679        1.71735853683336
O            1.62840862520427        2.67179335913507        2.52652643171993
C            3.24545604992779        1.74974312669957        1.02141153219260
O            4.11403267447963        2.77435244830740        1.29382440732546
H            6.69595164365515        1.27151718334296       -2.24659668459120
H            7.56012613177030        2.12311193560921       -0.93651183864941
H            7.39072979218477        0.34588873109005       -0.89192262352829
H            1.76119702785443       -2.69719369928589        1.42760064854682
H            0.08459062148470       -3.26724442173591        1.35445834169785
H            0.51881034184697       -1.93494367680607        2.43949811458658
H            0.38766267201644       -1.28086224200802       -1.81158216780506
H           -0.05464817907953       -2.86244211814053       -1.13829918226735
H            1.64362722349123       -2.34293122710409       -1.15395469283370
H           -0.97929423024667        0.08673854944362       -0.01374358998517
H           -4.16426621241042        2.72255431220844       -0.67160911043646
H           -5.50807214050166        2.09944098621585       -1.66691754947863
H           -5.73533406897846        2.33481879701976        0.07958703086928
H           -7.28864491847008        0.09062973712053       -0.07400503595914
H           -6.98983129123417       -1.58483407759323       -0.58304276238548
H           -6.93677624607216       -0.26272510944427       -1.76467382027240
H            0.24296353479461        0.73028673391202        1.87689801340201
H            4.93801426156884        2.67608226622591        0.78970878231580
 
 Bond Distances (Angstroems)
 ---------------------------
C1-O2=1.4235         C1-H26=1.0947        C1-H27=1.0886        C1-H28=1.0948        O2-C1=1.4235         O2-C3=1.3822         
C3-O2=1.3822         C3-O4=1.2314         C3-C5=1.4410         O4-C3=1.2314         C5-C3=1.4410         C5-N6=1.3888         
C5-C24=1.4097        N6-C5=1.3888         N6-C7=1.2850         C7-N6=1.2850         C7-C8=1.5191         C7-N21=1.3677        
C8-C7=1.5191         C8-C9=1.5391         C8-C10=1.5359        C8-N11=1.4651        C9-C8=1.5391         C9-H29=1.0901        
C9-H30=1.0882        C9-H31=1.0898        C10-C8=1.5359        C10-H32=1.0897       C10-H33=1.0889       C10-H34=1.0900       
N11-C8=1.4651        N11-C12=1.4350       N11-H35=1.0151       C12-N11=1.4350       C12-O13=1.2576       C12-C14=1.3930       
O13-C12=1.2576       C14-C12=1.3930       C14-N15=1.3818       C14-O20=1.4291       N15-C14=1.3818       N15-N16=1.3349       
N16-N15=1.3349       N16-C17=1.4441       N16-C18=1.3126       C17-N16=1.4441       C17-H36=1.0873       C17-H37=1.0887       
C17-H38=1.0893       C18-N16=1.3126       C18-C19=1.4813       C18-O20=1.3442       C19-C18=1.4813       C19-H39=1.0902       
C19-H40=1.0878       C19-H41=1.0910       O20-C14=1.4291       O20-C18=1.3442       N21-C7=1.3677        N21-C22=1.4034       
N21-H42=1.0089       C22-N21=1.4034       C22-O23=1.2410       C22-C24=1.4261       O23-C22=1.2410       C24-C5=1.4097        
C24-C22=1.4261       C24-O25=1.3706       O25-C24=1.3706       O25-H43=0.9709       H26-C1=1.0947        H27-C1=1.0886        
H28-C1=1.0948        H29-C9=1.0901        H30-C9=1.0882        H31-C9=1.0898        H32-C10=1.0897       H33-C10=1.0889       
H34-C10=1.0900       H35-N11=1.0151       H36-C17=1.0873       H37-C17=1.0887       H38-C17=1.0893       H39-C19=1.0902       
H40-C19=1.0878       H41-C19=1.0910       H42-N21=1.0089       H43-O25=0.9709       
 C  H  Rav=1.0899 sigma=0.0021  Rmin=1.0873  Rmax=1.0948    15
 C  C  Rav=1.4682 sigma=0.0547  Rmin=1.3930  Rmax=1.5391     8
 N  H  Rav=1.0120 sigma=0.0031  Rmin=1.0089  Rmax=1.0151     2
 N  C  Rav=1.3871 sigma=0.0561  Rmin=1.2850  Rmax=1.4651     9
 N  N  Rav=1.3349 sigma=0.0000  Rmin=1.3349  Rmax=1.3349     1
 O  H  Rav=0.9709 sigma=0.0000  Rmin=0.9709  Rmax=0.9709     1
 O  C  Rav=1.3350 sigma=0.0757  Rmin=1.2314  Rmax=1.4291     8
 
 selected bond angles (degree)
 --------------------
H26-C1-O2=110.61               H27-C1-O2=107.15               H27-C1-H26=109.74              H28-C1-O2=110.64               
H28-C1-H26=108.93              H28-C1-H27=109.75              C3-O2-C1=114.94                O4-C3-O2=119.96                
C5-C3-O2=114.44                C5-C3-O4=125.60                N6-C5-C3=113.24                C24-C5-C3=127.23               
C24-C5-N6=119.53               C7-N6-C5=120.00                C8-C7-N6=120.27                N21-C7-N6=122.56               
N21-C7-C8=117.04               C9-C8-C7=106.60                C10-C8-C7=109.72               C10-C8-C9=110.87               
N11-C8-C7=107.21               N11-C8-C9=110.46               N11-C8-C10=111.78              H29-C9-C8=109.40               
H30-C9-C8=110.87               H30-C9-H29=108.91              H31-C9-C8=109.73               H31-C9-H29=108.98              
H31-C9-H30=108.92              H32-C10-C8=109.97              H33-C10-C8=110.28              H33-C10-H32=109.12             
H34-C10-C8=109.53              H34-C10-H32=108.72             H34-C10-H33=109.20             
 
 selected dihedral angles (degree)
 ---------------------------------
C3-O2-C1-H26= 59.29           C3-O2-C1-H27=178.87           C3-O2-C1-H28=298.49           O4-C3-O2-C1=  0.03            
C5-C3-O2-C1=179.94            N6-C5-C3-O2=180.25            N6-C5-C3-O4=  0.16            C24-C5-C3-O2=359.95           
C24-C5-C3-O4=179.85           C7-N6-C5-C3=179.57            C7-N6-C5-C24=359.85           C8-C7-N6-C5=183.20            
N21-C7-N6-C5=358.98           C9-C8-C7-N6= 91.73            C9-C8-C7-N21=275.72           C10-C8-C7-N6=331.61           
C10-C8-C7-N21=155.61          N11-C8-C7-N6=210.03           N11-C8-C7-N21= 34.03          H29-C9-C8-C7=305.24           
H29-C9-C8-C10= 64.61          H29-C9-C8-N11=189.09          H30-C9-C8-C7=185.11           H30-C9-C8-C10=304.48          
H30-C9-C8-N11= 68.96          H31-C9-C8-C7= 64.75           H31-C9-C8-C10=184.12          H31-C9-C8-N11=308.60          
H32-C10-C8-C7=295.89          H32-C10-C8-C9=178.40          H32-C10-C8-N11= 54.68         H33-C10-C8-C7=175.51          
H33-C10-C8-C9= 58.03          H33-C10-C8-N11=294.30         H34-C10-C8-C7= 55.31          H34-C10-C8-C9=297.82          
H34-C10-C8-N11=174.10         
           -------------------------------------------------
          |                Final Singlepoint                |
           -------------------------------------------------

          ...................................................
          :                      SETUP                      :
          :.................................................:
          :  # basis functions                 136          :
          :  # atomic orbitals                 136          :
          :  # shells                           86          :
          :  # electrons                       136          :
          :  # halogen bonds                     0          :
          :  max. iterations                   250          :
          :  Hamiltonian                  GFN1-xTB          :
          :  restarted?                      false          :
          :  GBSA solvation                   true          :
          :  PC potential                    false          :
          :  electronic temp.          300.0000000     K    :
          :  accuracy                    1.0000000          :
          :  -> integral cutoff          0.2500000E+02      :
          :  -> integral neglect         0.1000000E-07      :
          :  -> SCF convergence          0.1000000E-05 Eh   :
          :  -> wf. convergence          0.2000000E-04 e    :
          :  Broyden damping             0.4000000          :
          ...................................................

 iter      E             dE          RMSdq      gap      omega  full diag
   1    -84.5806067 -0.845806E+02  0.446E-06    0.04       0.0  T
   2    -84.5806067  0.867288E-09  0.750E-05    0.04     203.4  T
   3    -84.5806067 -0.868482E-09  0.275E-06    0.04    5542.3  T

   *** convergence criteria satisfied after 3 iterations ***

         #    Occupation            Energy/Eh            Energy/eV
      -------------------------------------------------------------
         1        2.0000           -0.8399583             -22.8564
       ...           ...                  ...                  ...
        62        2.0000           -0.4203813             -11.4392
        63        2.0000           -0.4140178             -11.2660
        64        2.0000           -0.4064523             -11.0601
        65        2.0000           -0.4042349             -10.9998
        66        2.0000           -0.3891327             -10.5888
        67        2.0000           -0.3837778             -10.4431
        68        1.3509           -0.2907049              -7.9105 (HOMO)
        69        0.6491           -0.2893122              -7.8726 (LUMO)
        70                         -0.2615875              -7.1182
        71                         -0.2356184              -6.4115
        72                         -0.1946616              -5.2970
        73                         -0.1535889              -4.1794
       ...                                ...                  ...
       136                          0.6958222              18.9343
      -------------------------------------------------------------
                  HL-Gap            0.0013927 Eh            0.0379 eV
             Fermi-level           -0.2900086 Eh           -7.8915 eV

 SCC (total)                   0 d,  0 h,  0 min,  0.123 sec
 SCC setup                      ...        0 min,  0.002 sec (  1.500%)
 Dispersion                     ...        0 min,  0.000 sec (  0.276%)
 classical contributions        ...        0 min,  0.000 sec (  0.092%)
 integral evaluation            ...        0 min,  0.032 sec ( 26.098%)
 iterations                     ...        0 min,  0.011 sec (  8.787%)
 molecular gradient             ...        0 min,  0.077 sec ( 62.569%)
 printout                       ...        0 min,  0.001 sec (  0.648%)

         :::::::::::::::::::::::::::::::::::::::::::::::::::::
         ::                     SUMMARY                     ::
         :::::::::::::::::::::::::::::::::::::::::::::::::::::
         :: total energy             -83.824942022444 Eh    ::
         :: total w/o Gsasa/hb       -83.801557390295 Eh    ::
         :: gradient norm              0.000248709289 Eh/a0 ::
         :: HOMO-LUMO gap              0.037897106630 eV    ::
         ::.................................................::
         :: SCC energy               -84.580606704529 Eh    ::
         :: -> electrostatic           0.484348290561 Eh    ::
         :: -> Gsolv                  -0.129001729678 Eh    ::
         ::    -> Gelec               -0.105617097530 Eh    ::
         ::    -> Gsasa               -0.025025101668 Eh    ::
         ::    -> Ghb                 -0.005983809486 Eh    ::
         ::    -> Gshift               0.007624279005 Eh    ::
         :: repulsion energy           0.781239841325 Eh    ::
         :: dispersion energy         -0.025575159240 Eh    ::
         :: halogen bond corr.         0.000000000000 Eh    ::
         :: add. restraining           0.000000000000 Eh    ::
         :: total charge              -1.000000000000 e     ::
         :::::::::::::::::::::::::::::::::::::::::::::::::::::

           -------------------------------------------------
          |                Property Printout                |
           -------------------------------------------------

    * Orbital Energies and Occupations

         #    Occupation            Energy/Eh            Energy/eV
      -------------------------------------------------------------
         1        2.0000           -0.8399583             -22.8564
       ...           ...                  ...                  ...
        56        2.0000           -0.4711939             -12.8218
        57        2.0000           -0.4650850             -12.6556
        58        2.0000           -0.4645631             -12.6414
        59        2.0000           -0.4470041             -12.1636
        60        2.0000           -0.4371084             -11.8943
        61        2.0000           -0.4367307             -11.8840
        62        2.0000           -0.4203813             -11.4392
        63        2.0000           -0.4140178             -11.2660
        64        2.0000           -0.4064523             -11.0601
        65        2.0000           -0.4042349             -10.9998
        66        2.0000           -0.3891327             -10.5888
        67        2.0000           -0.3837778             -10.4431
        68        1.3509           -0.2907049              -7.9105 (HOMO)
        69        0.6491           -0.2893122              -7.8726 (LUMO)
        70                         -0.2615875              -7.1182
        71                         -0.2356184              -6.4115
        72                         -0.1946616              -5.2970
        73                         -0.1535889              -4.1794
        74                         -0.1468172              -3.9951
        75                         -0.1390514              -3.7838
        76                         -0.1203172              -3.2740
        77                         -0.1120120              -3.0480
        78                         -0.1021138              -2.7787
        79                         -0.0984992              -2.6803
       ...                                ...                  ...
       136                          0.6958222              18.9343
      -------------------------------------------------------------
                  HL-Gap            0.0013927 Eh            0.0379 eV
             Fermi-level           -0.2900086 Eh           -7.8915 eV

  Mulliken/CM5 charges         n(s)   n(p)   n(d)
     1C     0.17456  0.05460   0.972  2.854  0.000
     2O    -0.46414 -0.56210   1.700  4.764  0.000
     3C     0.51580  0.57738   0.970  2.515  0.000
     4O    -0.62890 -0.67213   1.737  4.892  0.000
     5C     0.01874  0.09172   1.040  2.941  0.000
     6N    -0.39863 -0.58245   1.532  3.866  0.000
     7C     0.26523  0.41684   1.018  2.717  0.000
     8C     0.15775  0.19759   1.061  2.781  0.000
     9C    -0.08959 -0.22854   1.014  3.075  0.000
    10C    -0.09506 -0.23376   1.013  3.082  0.000
    11N    -0.42400 -0.76160   1.468  3.956  0.000
    12C     0.37405  0.46539   0.968  2.658  0.000
    13O    -0.68335 -0.72778   1.746  4.938  0.000
    14C     0.21768  0.32294   0.999  2.783  0.000
    15N    -0.37458 -0.47915   1.576  3.798  0.000
    16N     0.00982 -0.19180   1.419  3.571  0.000
    17C     0.02878 -0.05242   0.992  2.979  0.000
    18C     0.32704  0.42925   0.984  2.689  0.000
    19C    -0.11127 -0.24946   1.012  3.099  0.000
    20O    -0.40137 -0.44905   1.703  4.698  0.000
    21N    -0.32941 -0.67079   1.436  3.893  0.000
    22C     0.41332  0.51061   0.978  2.608  0.000
    23O    -0.65490 -0.69155   1.739  4.916  0.000
    24C     0.16208  0.19434   1.022  2.816  0.000
    25O    -0.54899 -0.74035   1.698  4.851  0.000
    26H     0.03579  0.09766   0.964  0.000  0.000
    27H     0.03549  0.09575   0.965  0.000  0.000
    28H     0.03516  0.09674   0.965  0.000  0.000
    29H     0.02114  0.07663   0.979  0.000  0.000
    30H     0.04730  0.10836   0.953  0.000  0.000
    31H     0.02455  0.08243   0.975  0.000  0.000
    32H     0.02472  0.08177   0.975  0.000  0.000
    33H     0.04025  0.09936   0.960  0.000  0.000
    34H     0.02769  0.08610   0.972  0.000  0.000
    35H     0.20523  0.41161   0.795  0.000  0.000
    36H     0.07617  0.14361   0.924  0.000  0.000
    37H     0.06447  0.12763   0.936  0.000  0.000
    38H     0.06548  0.12850   0.935  0.000  0.000
    39H     0.06621  0.12076   0.934  0.000  0.000
    40H     0.07767  0.13343   0.922  0.000  0.000
    41H     0.06884  0.12299   0.931  0.000  0.000
    42H     0.24835  0.45483   0.752  0.000  0.000
    43H     0.37481  0.56411   0.625  0.000  0.000

Wiberg/Mayer (AO) data.
largest (>0.10) Wiberg bond orders for each atom

 ---------------------------------------------------------------------------
     #   Z sym  total        # sym  WBO       # sym  WBO       # sym  WBO
 ---------------------------------------------------------------------------
     1   6 C    3.893 --    27 H    0.987    28 H    0.981    26 H    0.981
                             2 O    0.918
     2   8 O    2.113 --     3 C    0.984     1 C    0.918
     3   6 C    3.732 --     4 O    1.538     5 C    1.144     2 O    0.984
     4   8 O    1.760 --     3 C    1.538
     5   6 C    3.810 --    24 C    1.309     3 C    1.144     6 N    1.134
     6   7 N    3.000 --     7 C    1.614     5 C    1.134
     7   6 C    3.905 --     6 N    1.614    21 N    1.147     8 C    0.977
     8   6 C    3.957 --    10 C    0.988     9 C    0.979     7 C    0.977
                            11 N    0.956
     9   6 C    3.991 --    29 H    0.988    31 H    0.987     8 C    0.979
                            30 H    0.977
    10   6 C    3.993 --     8 C    0.988    32 H    0.987    34 H    0.984
                            33 H    0.983
    11   7 N    3.083 --    12 C    0.998     8 C    0.956    35 H    0.929
    12   6 C    3.803 --    13 O    1.400    14 C    1.308    11 N    0.998
    13   8 O    1.657 --    12 C    1.400
    14   6 C    3.559 --    12 C    1.308    15 N    1.186    20 O    0.884
    15   7 N    2.679 --    14 C    1.186    16 N    1.159    18 C    0.196
    16   7 N    3.639 --    18 C    1.408    15 N    1.159    17 C    0.940
    17   6 C    3.936 --    36 H    0.983    37 H    0.979    38 H    0.978
                            16 N    0.940
    18   6 C    3.792 --    16 N    1.408    20 O    1.084    19 C    1.029
                            15 N    0.196
    19   6 C    3.987 --    18 C    1.029    40 H    0.980    39 H    0.968
                            41 H    0.964
    20   8 O    2.127 --    18 C    1.084    14 C    0.884
    21   7 N    3.326 --     7 C    1.147    22 C    1.043    42 H    0.896
    22   6 C    3.831 --    23 O    1.486    24 C    1.197    21 N    1.043
    23   8 O    1.741 --    22 C    1.486
    24   6 C    3.719 --     5 C    1.309    22 C    1.197    25 O    1.032
    25   8 O    1.978 --    24 C    1.032    43 H    0.823
    26   1 H    1.013 --     1 C    0.981
    27   1 H    1.014 --     1 C    0.987
    28   1 H    1.013 --     1 C    0.981
    29   1 H    1.008 --     9 C    0.988
    30   1 H    1.025 --     9 C    0.977
    31   1 H    1.009 --     9 C    0.987
    32   1 H    1.007 --    10 C    0.987
    33   1 H    1.015 --    10 C    0.983
    34   1 H    1.018 --    10 C    0.984
    35   1 H    0.975 --    11 N    0.929
    36   1 H    1.005 --    17 C    0.983
    37   1 H    0.999 --    17 C    0.979
    38   1 H    0.999 --    17 C    0.978
    39   1 H    0.996 --    19 C    0.968
    40   1 H    0.997 --    19 C    0.980
    41   1 H    0.996 --    19 C    0.964
    42   1 H    0.957 --    21 N    0.896
    43   1 H    0.879 --    25 O    0.823
 ---------------------------------------------------------------------------

Topologies differ in total number of bonds
Writing topology from bond orders to xtbtopo.mol

 dipole moment from electron density (au)
     X       Y       Z   
  -5.8102   2.1221  -2.6024  total (Debye):   17.057

           -------------------------------------------------
          |                Geometry Summary                 |
           -------------------------------------------------

      molecular mass/u    :      352.3231817
   center of mass at/Å    :        0.2853650       0.0844929       0.1631673
  moments of inertia/u·Å² :        0.1104776E+04   0.5564668E+04   0.6024811E+04
rotational constants/cm⁻¹ :        0.1525887E-01   0.3029405E-02   0.2798035E-02

 * 38 selected distances

     #   Z          #   Z                                           value/Å
     1   6 C        2   8 O                                       1.4235152
     2   8 O        3   6 C                                       1.3822460
     3   6 C        4   8 O                                       1.2313778
     6   7 N        7   6 C                                       1.2849683
     8   6 C        9   6 C                                       1.5390734 (max)
     8   6 C       10   6 C                                       1.5359049
     8   6 C       11   7 N                                       1.4651051
    12   6 C       14   6 C                                       1.3930377
    14   6 C       15   7 N                                       1.3818082
    15   7 N       16   7 N                                       1.3349317
    16   7 N       17   6 C                                       1.4441028
    16   7 N       18   6 C                                       1.3126232
    18   6 C       19   6 C                                       1.4813203
    18   6 C       20   8 O                                       1.3442266
     7   6 C       21   7 N                                       1.3676842
    21   7 N       22   6 C                                       1.4034322
    22   6 C       23   8 O                                       1.2410488
     5   6 C       24   6 C                                       1.4097364
    22   6 C       24   6 C                                       1.4261006
    24   6 C       25   8 O                                       1.3705688
     1   6 C       26   1 H                                       1.0946756
     1   6 C       27   1 H                                       1.0885816
     1   6 C       28   1 H                                       1.0948166
     9   6 C       29   1 H                                       1.0900730
     9   6 C       30   1 H                                       1.0882244
     9   6 C       31   1 H                                       1.0897593
    10   6 C       32   1 H                                       1.0897065
    10   6 C       33   1 H                                       1.0888885
    10   6 C       34   1 H                                       1.0899592
    11   7 N       35   1 H                                       1.0150633
    17   6 C       36   1 H                                       1.0872987
    17   6 C       37   1 H                                       1.0886541
    17   6 C       38   1 H                                       1.0892633
    19   6 C       39   1 H                                       1.0901831
    19   6 C       40   1 H                                       1.0877639
    19   6 C       41   1 H                                       1.0909718
    21   7 N       42   1 H                                       1.0088724
    25   8 O       43   1 H                                       0.9709456 (min)

 * 7 distinct bonds (by element types)

   Z      Z             #   av. dist./Å        max./Å        min./Å
   1 H    6 C          15     1.0899213     1.0948166     1.0872987
   6 C    6 C           6     1.4641956     1.5390734     1.3930377
   1 H    7 N           2     1.0119678     1.0150633     1.0088724
   6 C    7 N           7     1.3799606     1.4651051     1.2849683
   7 N    7 N           1     1.3349317     1.3349317     1.3349317
   1 H    8 O           1     0.9709456     0.9709456     0.9709456
   6 C    8 O           6     1.3321639     1.4235152     1.2313778


optimized geometry written to: xtbopt.xyz


           -------------------------------------------------
          | TOTAL ENERGY              -83.824942022444 Eh   |
          | GRADIENT NORM               0.000248709289 Eh/α |
          | HOMO-LUMO GAP               0.037897106630 eV   |
           -------------------------------------------------

------------------------------------------------------------------------
 * finished run on 2023/06/20 at 15:10:35.236     
------------------------------------------------------------------------
 total:
 * wall-time:     0 d,  0 h,  0 min,  5.978 sec
 *  cpu-time:     0 d,  0 h,  0 min,  5.908 sec
 * ratio c/w:     0.988 speedup
 SCF:
 * wall-time:     0 d,  0 h,  0 min,  0.190 sec
 *  cpu-time:     0 d,  0 h,  0 min,  0.181 sec
 * ratio c/w:     0.954 speedup
 ANC optimizer:
 * wall-time:     0 d,  0 h,  0 min,  5.699 sec
 *  cpu-time:     0 d,  0 h,  0 min,  5.682 sec
 * ratio c/w:     0.997 speedup

