      -----------------------------------------------------------      
     |                   =====================                   |     
     |                           x T B                           |     
     |                   =====================                   |     
     |                         S. Grimme                         |     
     |          Mulliken Center for Theoretical Chemistry        |     
     |                    University of Bonn                     |     
      -----------------------------------------------------------      

   * xtb version 6.5.1 (579679a) compiled by 'ehlert@majestix' on 2022-07-11

   xtb is free software: you can redistribute it and/or modify it under
   the terms of the GNU Lesser General Public License as published by
   the Free Software Foundation, either version 3 of the License, or
   (at your option) any later version.
   
   xtb is distributed in the hope that it will be useful,
   but WITHOUT ANY WARRANTY; without even the implied warranty of
   MERCHANTABILITY or FITNESS FOR A PARTICULAR PURPOSE.  See the
   GNU Lesser General Public License for more details.
   
   Cite this work as:
   * C. Bannwarth, E. Caldeweyher, S. Ehlert, A. Hansen, P. Pracht,
     J. Seibert, S. Spicher, S. Grimme, WIREs Comput. Mol. Sci., 2020, 11,
     e01493. DOI: 10.1002/wcms.1493
   
   for GFN2-xTB:
   * C. Bannwarth, S. Ehlert and S. Grimme., J. Chem. Theory Comput., 2019,
     15, 1652-1671. DOI: 10.1021/acs.jctc.8b01176
   for GFN1-xTB:
   * S. Grimme, C. Bannwarth, P. Shushkov, J. Chem. Theory Comput., 2017,
     13, 1989-2009. DOI: 10.1021/acs.jctc.7b00118
   for GFN0-xTB:
   * P. Pracht, E. Caldeweyher, S. Ehlert, S. Grimme, ChemRxiv, 2019, preprint.
     DOI: 10.26434/chemrxiv.8326202.v1
   for GFN-FF:
   * S. Spicher and S. Grimme, Angew. Chem. Int. Ed., 2020, 59, 15665-15673.
     DOI: 10.1002/anie.202004239
   
   for ALPB and GBSA implicit solvation:
   * S. Ehlert, M. Stahn, S. Spicher, S. Grimme, J. Chem. Theory Comput.,
     2021, 17, 4250-4261. DOI: 10.1021/acs.jctc.1c00471
   
   for DFT-D4:
   * E. Caldeweyher, C. Bannwarth and S. Grimme, J. Chem. Phys., 2017,
     147, 034112. DOI: 10.1063/1.4993215
   * E. Caldeweyher, S. Ehlert, A. Hansen, H. Neugebauer, S. Spicher,
     C. Bannwarth and S. Grimme, J. Chem. Phys., 2019, 150, 154122.
     DOI: 10.1063/1.5090222
   * E. Caldeweyher, J.-M. Mewes, S. Ehlert and S. Grimme, Phys. Chem. Chem. Phys.
     2020, 22, 8499-8512. DOI: 10.1039/D0CP00502A
   
   for sTDA-xTB:
   * S. Grimme and C. Bannwarth, J. Chem. Phys., 2016, 145, 054103.
     DOI: 10.1063/1.4959605
   
   in the mass-spec context:
   * V. Asgeirsson, C. Bauer and S. Grimme, Chem. Sci., 2017, 8, 4879.
     DOI: 10.1039/c7sc00601b
   * J. Koopman and S. Grimme, ACS Omega 2019, 4, 12, 15120-15133.
     DOI: 10.1021/acsomega.9b02011
   
   for metadynamics refer to:
   * S. Grimme, J. Chem. Theory Comput., 2019, 155, 2847-2862
     DOI: 10.1021/acs.jctc.9b00143
   
   for SPH calculations refer to:
   * S. Spicher and S. Grimme, J. Chem. Theory Comput., 2021, 17, 1701-1714
     DOI: 10.1021/acs.jctc.0c01306
   
   with help from (in alphabetical order)
   P. Atkinson, C. Bannwarth, F. Bohle, G. Brandenburg, E. Caldeweyher
   M. Checinski, S. Dohm, S. Ehlert, S. Ehrlich, I. Gerasimov, C. Hölzer
   A. Katbashev, J. Koopman, C. Lavigne, S. Lehtola, F. März, M. Müller,
   F. Musil, H. Neugebauer, J. Pisarek, C. Plett, P. Pracht, F. Pultar,
   J. Seibert, P. Shushkov, S. Spicher, M. Stahn, M. Steiner, T. Strunk,
   J. Stückrath, T. Rose, and J. Unsleber
   
 * started run on 2023/06/20 at 14:58:51.293     

           -------------------------------------------------
          |                Calculation Setup                |
           -------------------------------------------------

          program call               : /lustre/hpc/kemi/ree/PhD/git/ReactivityQM/dep/xtb-6.5.1/bin/xtb --gfn 1 /lustre/hpc/kemi/ree/PhD/git/ReactivityQM/calculations/R01/reac02prodE03/conf01/R01_reac02prodE03_conf01_gfn1.xyz --opt --vfukui --chrg -1 --uhf 0 --alpb DMSO
          hostname                   : node312
          coordinate file            : /lustre/hpc/kemi/ree/PhD/git/ReactivityQM/calculations/R01/reac02prodE03/conf01/R01_reac02prodE03_conf01_gfn1.xyz
          omp threads                :                     1

   ID    Z sym.   atoms
    1    6 C      1, 3, 5, 6, 8-11, 14, 16
    2    8 O      2, 4, 15, 17
    3    7 N      7, 12, 13
    4    1 H      18-33

           -------------------------------------------------
          |                 G F N 1 - x T B                 |
           -------------------------------------------------

        Reference                      10.1021/acs.jctc.7b00118
      * Hamiltonian:
        H0-scaling (s, p, d)           1.850000    2.250000    2.000000
        zeta-weighting                 0.000000
      * Dispersion:
        s8                             2.400000
        a1                             0.630000
        a2                             5.000000
        s9                             0.000000
      * Repulsion:
        kExp                           1.500000
        rExp                           1.000000
      * Coulomb:
        alpha                          2.000000
        third order                    atomic
        anisotropic                    false
      * Halogen bond correction:
        rad-scale                      1.300000
        damping                        0.440000

      * Solvation model:               ALPB
        Solvent                        DMSO
        Parameter file                 internal GFN1-xTB/ALPB
        Dielectric constant                4.6680E+01
        Reference state                gsolv [1 M gas/solution]
        Free energy shift                  7.6243E-03 Eh       4.7843E+00 kcal/mol
        Temperature                        2.9815E+02 K
        Density                            1.1000E+00 kg/L
        Solvent mass                       7.8130E+01 g/mol
        Interaction kernel             P16
        Born radius scaling (c1)           1.7672E+00
        Born radii integrator          GBOBC
        Born offset                        0.0000E+00 a0       0.0000E+00 AA
        H-bond correction              true
        Ion screening                  false
        Surface tension                    1.0000E-05 Eh       1.5569E+01 dyn/cm
        Grid points                               230 per atom

          ...................................................
          :                      SETUP                      :
          :.................................................:
          :  # basis functions                 100          :
          :  # atomic orbitals                 100          :
          :  # shells                           66          :
          :  # electrons                        96          :
          :  # halogen bonds                     0          :
          :  max. iterations                   250          :
          :  Hamiltonian                  GFN1-xTB          :
          :  restarted?                      false          :
          :  GBSA solvation                   true          :
          :  PC potential                    false          :
          :  electronic temp.          300.0000000     K    :
          :  accuracy                    1.0000000          :
          :  -> integral cutoff          0.2500000E+02      :
          :  -> integral neglect         0.1000000E-07      :
          :  -> SCF convergence          0.1000000E-05 Eh   :
          :  -> wf. convergence          0.2000000E-04 e    :
          :  Broyden damping             0.4000000          :
          ...................................................

 iter      E             dE          RMSdq      gap      omega  full diag
   1    -58.8722243 -0.588722E+02  0.833E+00    2.94       0.0  T
   2    -59.0496583 -0.177434E+00  0.496E+00    1.20       1.0  T
   3    -59.0418734  0.778487E-02  0.136E+00    1.15       1.0  T
   4    -59.0597742 -0.179007E-01  0.212E-01    0.76       1.0  T
   5    -59.0608394 -0.106519E-02  0.581E-02    1.01       1.0  T
   6    -59.0609393 -0.999619E-04  0.112E-02    0.99       1.6  T
   7    -59.0609422 -0.288082E-05  0.380E-03    0.98       4.6  T
   8    -59.0609424 -0.216326E-06  0.123E-03    0.98      14.2  T
   9    -59.0609424 -0.762811E-08  0.512E-04    0.98      34.0  T
  10    -59.0609424 -0.159933E-08  0.145E-04    0.98     119.9  T
  11    -59.0609424 -0.317769E-09  0.351E-05    0.98     496.0  T

   *** convergence criteria satisfied after 11 iterations ***

         #    Occupation            Energy/Eh            Energy/eV
      -------------------------------------------------------------
         1        2.0000           -0.8145375             -22.1647
       ...           ...                  ...                  ...
        42        2.0000           -0.4380438             -11.9198
        43        2.0000           -0.4335464             -11.7974
        44        2.0000           -0.3956996             -10.7675
        45        2.0000           -0.3847178             -10.4687
        46        2.0000           -0.3745798             -10.1928
        47        2.0000           -0.3613316              -9.8323
        48        2.0000           -0.2811108              -7.6494 (HOMO)
        49                         -0.2451756              -6.6716 (LUMO)
        50                         -0.2165590              -5.8929
        51                         -0.1237348              -3.3670
        52                         -0.1170859              -3.1861
        53                         -0.1164080              -3.1676
       ...                                ...                  ...
       100                          0.7126870              19.3932
      -------------------------------------------------------------
                  HL-Gap            0.0359352 Eh            0.9778 eV
             Fermi-level           -0.2631432 Eh           -7.1605 eV

 SCC (total)                   0 d,  0 h,  0 min,  0.107 sec
 SCC setup                      ...        0 min,  0.002 sec (  1.451%)
 Dispersion                     ...        0 min,  0.000 sec (  0.262%)
 classical contributions        ...        0 min,  0.000 sec (  0.085%)
 integral evaluation            ...        0 min,  0.025 sec ( 23.773%)
 iterations                     ...        0 min,  0.022 sec ( 20.672%)
 molecular gradient             ...        0 min,  0.057 sec ( 53.130%)
 printout                       ...        0 min,  0.001 sec (  0.584%)

         :::::::::::::::::::::::::::::::::::::::::::::::::::::
         ::                     SUMMARY                     ::
         :::::::::::::::::::::::::::::::::::::::::::::::::::::
         :: total energy             -58.524139761411 Eh    ::
         :: total w/o Gsasa/hb       -58.508142406123 Eh    ::
         :: gradient norm              0.150156768870 Eh/a0 ::
         :: HOMO-LUMO gap              0.977845468934 eV    ::
         ::.................................................::
         :: SCC energy               -59.060942422144 Eh    ::
         :: -> electrostatic           0.369565269621 Eh    ::
         :: -> Gsolv                  -0.106163748047 Eh    ::
         ::    -> Gelec               -0.090166392759 Eh    ::
         ::    -> Gsasa               -0.017675574777 Eh    ::
         ::    -> Ghb                 -0.005946059516 Eh    ::
         ::    -> Gshift               0.007624279005 Eh    ::
         :: repulsion energy           0.556391155387 Eh    ::
         :: dispersion energy         -0.019588494654 Eh    ::
         :: halogen bond corr.         0.000000000000 Eh    ::
         :: add. restraining           0.000000000000 Eh    ::
         :: total charge              -1.000000000000 e     ::
         :::::::::::::::::::::::::::::::::::::::::::::::::::::

      ----------------------------------------------------------- 
     |                   =====================                   |
     |                        A N C O P T                        |
     |                   =====================                   |
     |               Approximate Normal Coordinate               |
     |                Rational Function Optimizer                |
      ----------------------------------------------------------- 

          ...................................................
          :                      SETUP                      :
          :.................................................:
          :   optimization level            normal          :
          :   max. optcycles                   200          :
          :   ANC micro-cycles                  20          :
          :   degrees of freedom                93          :
          :.................................................:
          :   RF solver                   davidson          :
          :   write xtbopt.log                true          :
          :   linear?                        false          :
          :   energy convergence         0.5000000E-05 Eh   :
          :   grad. convergence          0.1000000E-02 Eh/α :
          :   maximium RF displ.         1.0000000          :
          :   Hlow (freq-cutoff)         0.1000000E-01      :
          :   Hmax (freq-cutoff)         5.0000000          :
          :   S6 in model hess.         20.0000000          :
          ...................................................

generating ANC from model Hessian ...
Using Lindh-Hessian (1995)
 Shifting diagonal of input Hessian by   9.365100217140515E-003
 Lowest  eigenvalues of input Hessian
    0.000000    0.000000    0.000000    0.000000    0.000000    0.000000
    0.010000    0.010194    0.011414    0.011706    0.013604    0.014354
    0.015101    0.016168    0.017270    0.018820    0.018863    0.019215
 Highest eigenvalues
    1.679040    1.686139    1.964544    2.087010    2.240237    2.306891
 

........................................................................
.............................. CYCLE    1 ..............................
........................................................................
   1    -59.0609424 -0.590609E+02  0.169E-05    0.98       0.0  T
   2    -59.0609424 -0.124345E-11  0.750E-06    0.98    2320.9  T
   3    -59.0609424 -0.170530E-12  0.472E-06    0.98    3690.9  T
     SCC iter.                  ...        0 min,  0.007 sec
     gradient                   ...        0 min,  0.056 sec
 * total energy  :   -58.5241398 Eh     change       -0.6345147E-11 Eh
   gradient norm :     0.1501571 Eh/α   predicted     0.0000000E+00 (-100.00%)
   displ. norm   :     0.2511809 α      lambda       -0.1844005E-01
   maximum displ.:     0.0766206 α      in ANC's #17, #25, #90, ...

........................................................................
.............................. CYCLE    2 ..............................
........................................................................
   1    -59.0727758 -0.590728E+02  0.753E-02    1.41       0.0  T
   2    -59.0729709 -0.195178E-03  0.318E-02    1.36       1.0  T
   3    -59.0729848 -0.138537E-04  0.162E-02    1.37       1.1  T
   4    -59.0729855 -0.666616E-06  0.606E-03    1.36       2.9  T
   5    -59.0729856 -0.100814E-06  0.127E-03    1.36      13.7  T
   6    -59.0729856 -0.177562E-07  0.406E-04    1.36      42.9  T
   7    -59.0729856 -0.173538E-08  0.170E-04    1.36     102.3  T
   8    -59.0729856 -0.453028E-09  0.329E-05    1.36     528.8  T
     SCC iter.                  ...        0 min,  0.015 sec
     gradient                   ...        0 min,  0.056 sec
 * total energy  :   -58.5368591 Eh     change       -0.1271936E-01 Eh
   gradient norm :     0.0658601 Eh/α   predicted    -0.9806243E-02 ( -22.90%)
   displ. norm   :     0.2447127 α      lambda       -0.6732674E-02
   maximum displ.:     0.0862401 α      in ANC's #5, #13, #19, ...

........................................................................
.............................. CYCLE    3 ..............................
........................................................................
   1    -59.0813507 -0.590814E+02  0.609E-02    1.70       0.0  T
   2    -59.0814637 -0.113066E-03  0.256E-02    1.65       1.0  T
   3    -59.0814732 -0.948214E-05  0.123E-02    1.66       1.4  T
   4    -59.0814736 -0.394621E-06  0.445E-03    1.65       3.9  T
   5    -59.0814737 -0.478043E-07  0.659E-04    1.65      26.4  T
   6    -59.0814737 -0.549337E-08  0.243E-04    1.65      71.7  T
   7    -59.0814737 -0.455302E-09  0.104E-04    1.65     167.5  T
   8    -59.0814737 -0.189196E-09  0.216E-05    1.65     807.8  T
     SCC iter.                  ...        0 min,  0.016 sec
     gradient                   ...        0 min,  0.056 sec
 * total energy  :   -58.5406113 Eh     change       -0.3752188E-02 Eh
   gradient norm :     0.0248932 Eh/α   predicted    -0.3567938E-02 (  -4.91%)
   displ. norm   :     0.1658641 α      lambda       -0.9789077E-03
   maximum displ.:     0.0733829 α      in ANC's #5, #4, #17, ...

........................................................................
.............................. CYCLE    4 ..............................
........................................................................
   1    -59.0817543 -0.590818E+02  0.214E-02    1.67       0.0  T
   2    -59.0817707 -0.163447E-04  0.932E-03    1.68       1.9  T
   3    -59.0817723 -0.163120E-05  0.426E-03    1.68       4.1  T
   4    -59.0817724 -0.512307E-07  0.198E-03    1.68       8.8  T
   5    -59.0817724 -0.271524E-08  0.328E-04    1.68      53.1  T
   6    -59.0817724 -0.231145E-08  0.723E-05    1.68     240.9  T
   7    -59.0817724 -0.571347E-10  0.282E-05    1.68     617.8  T
     SCC iter.                  ...        0 min,  0.014 sec
     gradient                   ...        0 min,  0.056 sec
 * total energy  :   -58.5412748 Eh     change       -0.6634547E-03 Eh
   gradient norm :     0.0185982 Eh/α   predicted    -0.5031819E-03 ( -24.16%)
   displ. norm   :     0.2140380 α      lambda       -0.7179739E-03
   maximum displ.:     0.1075816 α      in ANC's #4, #5, #6, ...

........................................................................
.............................. CYCLE    5 ..............................
........................................................................
   1    -59.0819270 -0.590819E+02  0.342E-02    1.69       0.0  T
   2    -59.0819675 -0.404666E-04  0.128E-02    1.69       1.4  T
   3    -59.0819721 -0.462028E-05  0.488E-03    1.69       3.6  T
   4    -59.0819722 -0.861655E-07  0.250E-03    1.69       7.0  T
   5    -59.0819722 -0.109438E-09  0.621E-04    1.69      28.0  T
   6    -59.0819722 -0.552484E-08  0.129E-04    1.69     135.1  T
   7    -59.0819722 -0.182943E-09  0.438E-05    1.69     397.3  T
     SCC iter.                  ...        0 min,  0.014 sec
     gradient                   ...        0 min,  0.057 sec
 * total energy  :   -58.5417324 Eh     change       -0.4576455E-03 Eh
   gradient norm :     0.0082151 Eh/α   predicted    -0.3754401E-03 ( -17.96%)
   displ. norm   :     0.1546558 α      lambda       -0.2284014E-03
   maximum displ.:     0.0862520 α      in ANC's #4, #5, #3, ...

........................................................................
.............................. CYCLE    6 ..............................
........................................................................
   1    -59.0828616 -0.590829E+02  0.170E-02    1.68       0.0  T
   2    -59.0828712 -0.956782E-05  0.591E-03    1.68       2.9  T
   3    -59.0828720 -0.859772E-06  0.260E-03    1.68       6.7  T
   4    -59.0828721 -0.287293E-07  0.132E-03    1.68      13.2  T
   5    -59.0828721 -0.113648E-08  0.337E-04    1.68      51.7  T
   6    -59.0828721 -0.135697E-08  0.816E-05    1.68     213.2  T
   7    -59.0828721 -0.730154E-10  0.272E-05    1.68     639.7  T
     SCC iter.                  ...        0 min,  0.014 sec
     gradient                   ...        0 min,  0.071 sec
 * total energy  :   -58.5418958 Eh     change       -0.1633816E-03 Eh
   gradient norm :     0.0051230 Eh/α   predicted    -0.1169518E-03 ( -28.42%)
   displ. norm   :     0.1966329 α      lambda       -0.1762920E-03
   maximum displ.:     0.1105731 α      in ANC's #4, #3, #1, ...

........................................................................
.............................. CYCLE    7 ..............................
........................................................................
   1    -59.0836288 -0.590836E+02  0.902E-03    1.68       0.0  T
   2    -59.0836316 -0.279818E-05  0.364E-03    1.69       4.8  T
   3    -59.0836317 -0.118959E-06  0.186E-03    1.69       9.4  T
   4    -59.0836317 -0.488613E-08  0.780E-04    1.69      22.3  T
   5    -59.0836317 -0.201005E-08  0.135E-04    1.69     129.1  T
   6    -59.0836317 -0.188294E-09  0.422E-05    1.69     412.0  T
     SCC iter.                  ...        0 min,  0.012 sec
     gradient                   ...        0 min,  0.055 sec
 * total energy  :   -58.5420285 Eh     change       -0.1327327E-03 Eh
   gradient norm :     0.0069765 Eh/α   predicted    -0.9155591E-04 ( -31.02%)
   displ. norm   :     0.2528507 α      lambda       -0.1820775E-03
   maximum displ.:     0.1359943 α      in ANC's #4, #3, #1, ...

........................................................................
.............................. CYCLE    8 ..............................
........................................................................
   1    -59.0840082 -0.590840E+02  0.649E-03    1.69       0.0  T
   2    -59.0840100 -0.180758E-05  0.365E-03    1.69       4.8  T
   3    -59.0840101 -0.161227E-06  0.178E-03    1.69       9.8  T
   4    -59.0840101 -0.866791E-09  0.736E-04    1.69      23.7  T
   5    -59.0840101 -0.356651E-08  0.121E-04    1.69     143.5  T
   6    -59.0840101 -0.164086E-09  0.388E-05    1.69     448.3  T
     SCC iter.                  ...        0 min,  0.012 sec
     gradient                   ...        0 min,  0.057 sec
 * total energy  :   -58.5421737 Eh     change       -0.1451936E-03 Eh
   gradient norm :     0.0078383 Eh/α   predicted    -0.9686629E-04 ( -33.28%)
   displ. norm   :     0.3585177 α      lambda       -0.2398547E-03
   maximum displ.:     0.1845611 α      in ANC's #4, #3, #1, ...

........................................................................
.............................. CYCLE    9 ..............................
........................................................................
   1    -59.0837125 -0.590837E+02  0.803E-03    1.70       0.0  T
   2    -59.0837151 -0.262392E-05  0.398E-03    1.71       4.4  T
   3    -59.0837154 -0.258551E-06  0.187E-03    1.71       9.3  T
   4    -59.0837154 -0.779541E-08  0.654E-04    1.71      26.6  T
   5    -59.0837154 -0.182442E-08  0.198E-04    1.71      88.0  T
   6    -59.0837154 -0.336541E-09  0.380E-05    1.71     457.9  T
     SCC iter.                  ...        0 min,  0.011 sec
     gradient                   ...        0 min,  0.055 sec
 * total energy  :   -58.5423669 Eh     change       -0.1931484E-03 Eh
   gradient norm :     0.0074067 Eh/α   predicted    -0.1353426E-03 ( -29.93%)
   displ. norm   :     0.4527457 α      lambda       -0.3013965E-03
   maximum displ.:     0.2234766 α      in ANC's #4, #3, #1, ...

........................................................................
.............................. CYCLE   10 ..............................
........................................................................
   1    -59.0827342 -0.590827E+02  0.110E-02    1.71       0.0  T
   2    -59.0827389 -0.474161E-05  0.493E-03    1.73       3.5  T
   3    -59.0827393 -0.354766E-06  0.239E-03    1.73       7.3  T
   4    -59.0827393 -0.248835E-07  0.946E-04    1.73      18.4  T
   5    -59.0827393 -0.156364E-08  0.197E-04    1.73      88.2  T
   6    -59.0827393 -0.433722E-09  0.490E-05    1.73     355.3  T
     SCC iter.                  ...        0 min,  0.012 sec
     gradient                   ...        0 min,  0.056 sec
 * total energy  :   -58.5426037 Eh     change       -0.2368837E-03 Eh
   gradient norm :     0.0073947 Eh/α   predicted    -0.1815928E-03 ( -23.34%)
   displ. norm   :     0.4409254 α      lambda       -0.3272983E-03
   maximum displ.:     0.2163783 α      in ANC's #1, #3, #4, ...

........................................................................
.............................. CYCLE   11 ..............................
........................................................................
   1    -59.0822335 -0.590822E+02  0.130E-02    1.75       0.0  T
   2    -59.0822406 -0.704051E-05  0.679E-03    1.77       2.6  T
   3    -59.0822411 -0.572435E-06  0.343E-03    1.77       5.1  T
   4    -59.0822412 -0.413154E-07  0.135E-03    1.77      12.9  T
   5    -59.0822412 -0.378593E-08  0.348E-04    1.77      50.0  T
   6    -59.0822412 -0.249834E-08  0.876E-05    1.77     198.7  T
   7    -59.0822412 -0.604956E-10  0.343E-05    1.77     506.9  T
     SCC iter.                  ...        0 min,  0.014 sec
     gradient                   ...        0 min,  0.057 sec
 * total energy  :   -58.5428476 Eh     change       -0.2438405E-03 Eh
   gradient norm :     0.0103109 Eh/α   predicted    -0.1954658E-03 ( -19.84%)
   displ. norm   :     0.3517796 α      lambda       -0.3069332E-03
   maximum displ.:     0.1902471 α      in ANC's #1, #3, #4, ...

........................................................................
.............................. CYCLE   12 ..............................
........................................................................
   1    -59.0825651 -0.590826E+02  0.122E-02    1.79       0.0  T
   2    -59.0825714 -0.635300E-05  0.651E-03    1.81       2.7  T
   3    -59.0825720 -0.610664E-06  0.321E-03    1.81       5.4  T
   4    -59.0825721 -0.402950E-07  0.122E-03    1.81      14.3  T
   5    -59.0825721 -0.190459E-08  0.302E-04    1.81      57.6  T
   6    -59.0825721 -0.175465E-08  0.656E-05    1.81     265.5  T
   7    -59.0825721 -0.350724E-10  0.256E-05    1.81     680.8  T
     SCC iter.                  ...        0 min,  0.014 sec
     gradient                   ...        0 min,  0.056 sec
 * total energy  :   -58.5430884 Eh     change       -0.2407752E-03 Eh
   gradient norm :     0.0136922 Eh/α   predicted    -0.1724596E-03 ( -28.37%)
   displ. norm   :     0.3748130 α      lambda       -0.4435091E-03
   maximum displ.:     0.2230994 α      in ANC's #1, #3, #4, ...

........................................................................
.............................. CYCLE   13 ..............................
........................................................................
   1    -59.0839086 -0.590839E+02  0.185E-02    1.83       0.0  T
   2    -59.0839240 -0.153961E-04  0.855E-03    1.86       2.0  T
   3    -59.0839256 -0.160850E-05  0.360E-03    1.86       4.8  T
   4    -59.0839257 -0.791821E-07  0.160E-03    1.87      10.9  T
   5    -59.0839257 -0.881343E-09  0.292E-04    1.87      59.6  T
   6    -59.0839257 -0.138557E-08  0.685E-05    1.86     254.3  T
   7    -59.0839257 -0.563674E-10  0.258E-05    1.86     674.0  T
     SCC iter.                  ...        0 min,  0.014 sec
     gradient                   ...        0 min,  0.057 sec
 * total energy  :   -58.5434266 Eh     change       -0.3381999E-03 Eh
   gradient norm :     0.0160516 Eh/α   predicted    -0.2529154E-03 ( -25.22%)
   displ. norm   :     0.3792996 α      lambda       -0.5345881E-03
   maximum displ.:     0.2404734 α      in ANC's #1, #7, #3, ...

........................................................................
.............................. CYCLE   14 ..............................
........................................................................
   1    -59.0842659 -0.590843E+02  0.226E-02    1.87       0.0  T
   2    -59.0842909 -0.249911E-04  0.940E-03    1.91       1.9  T
   3    -59.0842934 -0.254396E-05  0.345E-03    1.91       5.0  T
   4    -59.0842936 -0.110258E-06  0.171E-03    1.91      10.2  T
   5    -59.0842936 -0.586553E-09  0.300E-04    1.91      57.9  T
   6    -59.0842936 -0.132049E-08  0.804E-05    1.91     216.5  T
   7    -59.0842936 -0.927756E-10  0.288E-05    1.91     603.4  T
     SCC iter.                  ...        0 min,  0.014 sec
     gradient                   ...        0 min,  0.056 sec
 * total energy  :   -58.5438357 Eh     change       -0.4091730E-03 Eh
   gradient norm :     0.0141864 Eh/α   predicted    -0.3057506E-03 ( -25.28%)
   displ. norm   :     0.3563110 α      lambda       -0.6122055E-03
   maximum displ.:     0.2432714 α      in ANC's #1, #10, #7, ...

........................................................................
.............................. CYCLE   15 ..............................
........................................................................
   1    -59.0884337 -0.590884E+02  0.273E-02    1.92       0.0  T
   2    -59.0884663 -0.325850E-04  0.130E-02    1.96       1.3  T
   3    -59.0884705 -0.425091E-05  0.500E-03    1.96       3.5  T
   4    -59.0884706 -0.848045E-07  0.225E-03    1.97       7.7  T
   5    -59.0884706 -0.308908E-08  0.269E-04    1.97      64.7  T
   6    -59.0884706 -0.151419E-08  0.916E-05    1.97     190.0  T
   7    -59.0884706 -0.111775E-09  0.350E-05    1.97     498.0  T
     SCC iter.                  ...        0 min,  0.014 sec
     gradient                   ...        0 min,  0.056 sec
 * total energy  :   -58.5442612 Eh     change       -0.4254309E-03 Eh
   gradient norm :     0.0153588 Eh/α   predicted    -0.3449703E-03 ( -18.91%)
   displ. norm   :     0.7336088 α      lambda       -0.9786356E-03
   maximum displ.:     0.4623868 α      in ANC's #1, #4, #7, ...

........................................................................
.............................. CYCLE   16 ..............................
........................................................................
   1    -59.0746143 -0.590746E+02  0.543E-02    1.98       0.0  T
   2    -59.0747202 -0.105902E-03  0.249E-02    2.05       1.0  T
   3    -59.0747329 -0.127571E-04  0.117E-02    2.04       1.5  T
   4    -59.0747334 -0.431915E-06  0.445E-03    2.05       3.9  T
   5    -59.0747334 -0.143823E-07  0.906E-04    2.05      19.2  T
   6    -59.0747334 -0.175255E-07  0.177E-04    2.05      98.4  T
   7    -59.0747334 -0.394280E-09  0.564E-05    2.05     308.4  T
     SCC iter.                  ...        0 min,  0.013 sec
     gradient                   ...        0 min,  0.056 sec
 * total energy  :   -58.5445081 Eh     change       -0.2469234E-03 Eh
   gradient norm :     0.0243227 Eh/α   predicted    -0.7526665E-03 ( 204.82%)
   displ. norm   :     0.2595242 α      lambda       -0.1333276E-02
   maximum displ.:     0.1019675 α      in ANC's #3, #2, #14, ...

........................................................................
.............................. CYCLE   17 ..............................
........................................................................
   1    -59.0836555 -0.590837E+02  0.661E-02    2.04       0.0  T
   2    -59.0837525 -0.969212E-04  0.311E-02    2.02       1.0  T
   3    -59.0837649 -0.124219E-04  0.164E-02    2.02       1.1  T
   4    -59.0837652 -0.278661E-06  0.339E-03    2.01       5.1  T
   5    -59.0837652 -0.490948E-07  0.774E-04    2.02      22.5  T
   6    -59.0837652 -0.149723E-07  0.231E-04    2.02      75.3  T
   7    -59.0837652 -0.336627E-09  0.742E-05    2.02     234.6  T
   8    -59.0837652 -0.337224E-10  0.115E-05    2.02    1518.6  T
     SCC iter.                  ...        0 min,  0.017 sec
     gradient                   ...        0 min,  0.056 sec
 * total energy  :   -58.5445168 Eh     change       -0.8663160E-05 Eh
   gradient norm :     0.0295623 Eh/α   predicted    -0.7115639E-03 (8113.68%)
   displ. norm   :     0.1687472 α      lambda       -0.1494397E-02
   maximum displ.:     0.0807232 α      in ANC's #1, #32, #8, ...

........................................................................
.............................. CYCLE   18 ..............................
........................................................................
   1    -59.0900475 -0.590900E+02  0.343E-02    2.06       0.0  T
   2    -59.0900597 -0.121139E-04  0.174E-02    2.07       1.0  T
   3    -59.0900603 -0.604240E-06  0.884E-03    2.07       2.0  T
   4    -59.0900605 -0.219722E-06  0.164E-03    2.07      10.6  T
   5    -59.0900605 -0.313879E-07  0.400E-04    2.07      43.6  T
   6    -59.0900605 -0.157998E-08  0.123E-04    2.07     142.0  T
   7    -59.0900605 -0.198909E-09  0.440E-05    2.07     395.5  T
     SCC iter.                  ...        0 min,  0.013 sec
     gradient                   ...        0 min,  0.056 sec
 * total energy  :   -58.5451390 Eh     change       -0.6222193E-03 Eh
   gradient norm :     0.0117619 Eh/α   predicted    -0.7684768E-03 (  23.51%)
   displ. norm   :     0.3564736 α      lambda       -0.5016293E-03
   maximum displ.:     0.2240314 α      in ANC's #1, #4, #7, ...

........................................................................
.............................. CYCLE   19 ..............................
........................................................................
   1    -59.0841323 -0.590841E+02  0.347E-02    2.07       0.0  T
   2    -59.0841697 -0.373948E-04  0.141E-02    2.10       1.2  T
   3    -59.0841733 -0.364522E-05  0.692E-03    2.10       2.5  T
   4    -59.0841734 -0.113523E-06  0.255E-03    2.10       6.8  T
   5    -59.0841734 -0.455193E-08  0.486E-04    2.10      35.8  T
   6    -59.0841734 -0.596079E-08  0.105E-04    2.10     166.5  T
   7    -59.0841734 -0.127756E-09  0.415E-05    2.10     419.7  T
     SCC iter.                  ...        0 min,  0.013 sec
     gradient                   ...        0 min,  0.056 sec
 * total energy  :   -58.5453681 Eh     change       -0.2291303E-03 Eh
   gradient norm :     0.0146460 Eh/α   predicted    -0.2826874E-03 (  23.37%)
   displ. norm   :     0.2542661 α      lambda       -0.3355291E-03
   maximum displ.:     0.1697194 α      in ANC's #1, #5, #4, ...

........................................................................
.............................. CYCLE   20 ..............................
........................................................................
   1    -59.0820611 -0.590821E+02  0.155E-02    2.12       0.0  T
   2    -59.0820668 -0.575758E-05  0.676E-03    2.13       2.6  T
   3    -59.0820675 -0.658522E-06  0.290E-03    2.13       6.0  T
   4    -59.0820675 -0.208784E-07  0.859E-04    2.13      20.3  T
   5    -59.0820675 -0.142195E-08  0.192E-04    2.13      90.6  T
   6    -59.0820675 -0.525127E-09  0.491E-05    2.13     354.2  T
     SCC iter.                  ...        0 min,  0.011 sec
     gradient                   ...        0 min,  0.056 sec
 * total energy  :   -58.5455796 Eh     change       -0.2115045E-03 Eh
   gradient norm :     0.0110071 Eh/α   predicted    -0.1786122E-03 ( -15.55%)
   displ. norm   :     0.2720030 α      lambda       -0.4350165E-03
   maximum displ.:     0.1766226 α      in ANC's #1, #5, #4, ...
 * RMSD in coord.:     0.8393577 α      energy gain  -0.2143985E-01 Eh

generating ANC from model Hessian ...
Using Lindh-Hessian (1995)
 Shifting diagonal of input Hessian by   9.351827420119575E-003
 Lowest  eigenvalues of input Hessian
    0.000000    0.000000    0.000000    0.000000    0.000000    0.000000
    0.010000    0.010038    0.011218    0.012194    0.013262    0.014147
    0.015227    0.016662    0.017105    0.018615    0.019237    0.019451
 Highest eigenvalues
    1.670072    1.746771    1.976127    2.128109    2.245705    2.314062
 

........................................................................
.............................. CYCLE   21 ..............................
........................................................................
   1    -59.0861837 -0.590862E+02  0.222E-02    2.14       0.0  T
   2    -59.0861950 -0.113294E-04  0.100E-02    2.14       1.7  T
   3    -59.0861961 -0.108733E-05  0.536E-03    2.14       3.2  T
   4    -59.0861961 -0.212242E-07  0.112E-03    2.14      15.5  T
   5    -59.0861961 -0.457349E-08  0.175E-04    2.14      99.5  T
   6    -59.0861961 -0.590923E-09  0.536E-05    2.14     324.8  T
     SCC iter.                  ...        0 min,  0.011 sec
     gradient                   ...        0 min,  0.057 sec
 * total energy  :   -58.5458667 Eh     change       -0.2871023E-03 Eh
   gradient norm :     0.0080123 Eh/α   predicted     0.0000000E+00 (-100.00%)
   displ. norm   :     0.0599136 α      lambda       -0.1223857E-03
   maximum displ.:     0.0290151 α      in ANC's #1, #2, #4, ...

........................................................................
.............................. CYCLE   22 ..............................
........................................................................
   1    -59.0872730 -0.590873E+02  0.663E-03    2.15       0.0  T
   2    -59.0872737 -0.706975E-06  0.270E-03    2.14       6.4  T
   3    -59.0872737 -0.613637E-07  0.149E-03    2.14      11.7  T
   4    -59.0872737 -0.491129E-08  0.316E-04    2.14      55.0  T
   5    -59.0872737 -0.291493E-09  0.671E-05    2.14     259.3  T
   6    -59.0872737 -0.539231E-10  0.222E-05    2.14     782.9  T
     SCC iter.                  ...        0 min,  0.011 sec
     gradient                   ...        0 min,  0.057 sec
 * total energy  :   -58.5459734 Eh     change       -0.1066801E-03 Eh
   gradient norm :     0.0034969 Eh/α   predicted    -0.6765797E-04 ( -36.58%)
   displ. norm   :     0.1582960 α      lambda       -0.1929171E-03
   maximum displ.:     0.0801126 α      in ANC's #1, #2, #4, ...

........................................................................
.............................. CYCLE   23 ..............................
........................................................................
   1    -59.0883139 -0.590883E+02  0.111E-02    2.15       0.0  T
   2    -59.0883168 -0.290108E-05  0.448E-03    2.15       3.9  T
   3    -59.0883171 -0.298922E-06  0.214E-03    2.15       8.1  T
   4    -59.0883171 -0.795331E-08  0.569E-04    2.15      30.6  T
   5    -59.0883171 -0.776694E-09  0.101E-04    2.15     173.2  T
   6    -59.0883171 -0.189573E-09  0.380E-05    2.15     458.5  T
     SCC iter.                  ...        0 min,  0.011 sec
     gradient                   ...        0 min,  0.057 sec
 * total energy  :   -58.5461109 Eh     change       -0.1375078E-03 Eh
   gradient norm :     0.0046933 Eh/α   predicted    -0.9887846E-04 ( -28.09%)
   displ. norm   :     0.2096523 α      lambda       -0.1575152E-03
   maximum displ.:     0.1094565 α      in ANC's #1, #2, #4, ...

........................................................................
.............................. CYCLE   24 ..............................
........................................................................
   1    -59.0881788 -0.590882E+02  0.912E-03    2.16       0.0  T
   2    -59.0881810 -0.213276E-05  0.356E-03    2.15       4.9  T
   3    -59.0881812 -0.217749E-06  0.158E-03    2.15      11.0  T
   4    -59.0881812 -0.317321E-08  0.453E-04    2.15      38.4  T
   5    -59.0881812 -0.545114E-09  0.744E-05    2.15     234.0  T
   6    -59.0881812 -0.967049E-10  0.258E-05    2.15     674.3  T
     SCC iter.                  ...        0 min,  0.011 sec
     gradient                   ...        0 min,  0.057 sec
 * total energy  :   -58.5462402 Eh     change       -0.1292691E-03 Eh
   gradient norm :     0.0071474 Eh/α   predicted    -0.8223884E-04 ( -36.38%)
   displ. norm   :     0.3684091 α      lambda       -0.2509295E-03
   maximum displ.:     0.1937306 α      in ANC's #1, #2, #4, ...

........................................................................
.............................. CYCLE   25 ..............................
........................................................................
   1    -59.0863008 -0.590863E+02  0.143E-02    2.17       0.0  T
   2    -59.0863053 -0.455283E-05  0.621E-03    2.17       2.8  T
   3    -59.0863058 -0.401816E-06  0.324E-03    2.17       5.4  T
   4    -59.0863058 -0.756140E-08  0.716E-04    2.17      24.3  T
   5    -59.0863058 -0.305247E-08  0.148E-04    2.17     117.9  T
   6    -59.0863058 -0.232298E-09  0.454E-05    2.17     383.7  T
     SCC iter.                  ...        0 min,  0.011 sec
     gradient                   ...        0 min,  0.057 sec
 * total energy  :   -58.5464308 Eh     change       -0.1906018E-03 Eh
   gradient norm :     0.0085123 Eh/α   predicted    -0.1424949E-03 ( -25.24%)
   displ. norm   :     0.3299574 α      lambda       -0.2072673E-03
   maximum displ.:     0.1837803 α      in ANC's #1, #2, #4, ...

........................................................................
.............................. CYCLE   26 ..............................
........................................................................
   1    -59.0849360 -0.590849E+02  0.114E-02    2.19       0.0  T
   2    -59.0849389 -0.299402E-05  0.614E-03    2.19       2.8  T
   3    -59.0849392 -0.210112E-06  0.336E-03    2.19       5.2  T
   4    -59.0849392 -0.499887E-08  0.854E-04    2.19      20.4  T
   5    -59.0849392 -0.639410E-08  0.152E-04    2.19     114.3  T
   6    -59.0849392 -0.286548E-09  0.565E-05    2.19     308.1  T
     SCC iter.                  ...        0 min,  0.011 sec
     gradient                   ...        0 min,  0.057 sec
 * total energy  :   -58.5465819 Eh     change       -0.1510912E-03 Eh
   gradient norm :     0.0083610 Eh/α   predicted    -0.1149199E-03 ( -23.94%)
   displ. norm   :     0.2433999 α      lambda       -0.2244121E-03
   maximum displ.:     0.1495030 α      in ANC's #1, #2, #4, ...

........................................................................
.............................. CYCLE   27 ..............................
........................................................................
   1    -59.0864614 -0.590865E+02  0.953E-03    2.20       0.0  T
   2    -59.0864644 -0.305534E-05  0.566E-03    2.21       3.1  T
   3    -59.0864647 -0.278213E-06  0.292E-03    2.21       6.0  T
   4    -59.0864647 -0.822163E-08  0.918E-04    2.21      19.0  T
   5    -59.0864647 -0.376340E-08  0.166E-04    2.21     104.9  T
   6    -59.0864647 -0.274099E-09  0.568E-05    2.21     306.7  T
     SCC iter.                  ...        0 min,  0.011 sec
     gradient                   ...        0 min,  0.057 sec
 * total energy  :   -58.5467523 Eh     change       -0.1704170E-03 Eh
   gradient norm :     0.0053184 Eh/α   predicted    -0.1188692E-03 ( -30.25%)
   displ. norm   :     0.3026740 α      lambda       -0.2145651E-03
   maximum displ.:     0.1876978 α      in ANC's #1, #2, #4, ...

........................................................................
.............................. CYCLE   28 ..............................
........................................................................
   1    -59.0871473 -0.590871E+02  0.121E-02    2.22       0.0  T
   2    -59.0871541 -0.681464E-05  0.578E-03    2.24       3.0  T
   3    -59.0871547 -0.594733E-06  0.236E-03    2.24       7.4  T
   4    -59.0871547 -0.159705E-07  0.112E-03    2.24      15.5  T
   5    -59.0871547 -0.242670E-08  0.136E-04    2.24     128.2  T
   6    -59.0871547 -0.217923E-09  0.500E-05    2.24     347.9  T
     SCC iter.                  ...        0 min,  0.011 sec
     gradient                   ...        0 min,  0.057 sec
 * total energy  :   -58.5469158 Eh     change       -0.1635644E-03 Eh
   gradient norm :     0.0042451 Eh/α   predicted    -0.1171178E-03 ( -28.40%)
   displ. norm   :     0.2945003 α      lambda       -0.1700390E-03
   maximum displ.:     0.1865414 α      in ANC's #1, #2, #5, ...

........................................................................
.............................. CYCLE   29 ..............................
........................................................................
   1    -59.0874947 -0.590875E+02  0.120E-02    2.25       0.0  T
   2    -59.0875023 -0.759363E-05  0.470E-03    2.27       3.7  T
   3    -59.0875029 -0.578980E-06  0.151E-03    2.27      11.6  T
   4    -59.0875029 -0.185785E-07  0.857E-04    2.27      20.3  T
   5    -59.0875029 -0.136091E-08  0.140E-04    2.27     124.3  T
   6    -59.0875029 -0.242707E-09  0.376E-05    2.27     463.1  T
     SCC iter.                  ...        0 min,  0.011 sec
     gradient                   ...        0 min,  0.057 sec
 * total energy  :   -58.5470408 Eh     change       -0.1249362E-03 Eh
   gradient norm :     0.0041592 Eh/α   predicted    -0.9239838E-04 ( -26.04%)
   displ. norm   :     0.2645693 α      lambda       -0.1072432E-03
   maximum displ.:     0.1706651 α      in ANC's #1, #2, #5, ...

........................................................................
.............................. CYCLE   30 ..............................
........................................................................
   1    -59.0869347 -0.590869E+02  0.934E-03    2.27       0.0  T
   2    -59.0869394 -0.469561E-05  0.331E-03    2.29       5.3  T
   3    -59.0869397 -0.301066E-06  0.134E-03    2.29      13.0  T
   4    -59.0869397 -0.189686E-07  0.710E-04    2.29      24.5  T
   5    -59.0869397 -0.217881E-09  0.142E-04    2.29     122.6  T
   6    -59.0869397 -0.376104E-09  0.346E-05    2.29     502.4  T
     SCC iter.                  ...        0 min,  0.011 sec
     gradient                   ...        0 min,  0.056 sec
 * total energy  :   -58.5471235 Eh     change       -0.8272176E-04 Eh
   gradient norm :     0.0040505 Eh/α   predicted    -0.5738514E-04 ( -30.63%)
   displ. norm   :     0.2388150 α      lambda       -0.9960043E-04
   maximum displ.:     0.1613520 α      in ANC's #1, #2, #5, ...

........................................................................
.............................. CYCLE   31 ..............................
........................................................................
   1    -59.0882048 -0.590882E+02  0.100E-02    2.29       0.0  T
   2    -59.0882098 -0.500935E-05  0.451E-03    2.31       3.9  T
   3    -59.0882102 -0.436032E-06  0.186E-03    2.31       9.3  T
   4    -59.0882103 -0.194067E-07  0.899E-04    2.31      19.4  T
   5    -59.0882103 -0.398110E-09  0.160E-04    2.31     109.0  T
   6    -59.0882103 -0.448246E-09  0.386E-05    2.31     451.3  T
     SCC iter.                  ...        0 min,  0.012 sec
     gradient                   ...        0 min,  0.056 sec
 * total energy  :   -58.5471925 Eh     change       -0.6898728E-04 Eh
   gradient norm :     0.0035142 Eh/α   predicted    -0.5264168E-04 ( -23.69%)
   displ. norm   :     0.3406671 α      lambda       -0.9872798E-04
   maximum displ.:     0.2220575 α      in ANC's #1, #2, #4, ...

........................................................................
.............................. CYCLE   32 ..............................
........................................................................
   1    -59.0853037 -0.590853E+02  0.125E-02    2.31       0.0  T
   2    -59.0853081 -0.442166E-05  0.490E-03    2.33       3.6  T
   3    -59.0853084 -0.290756E-06  0.270E-03    2.33       6.5  T
   4    -59.0853085 -0.402185E-07  0.995E-04    2.33      17.5  T
   5    -59.0853085 -0.543935E-09  0.174E-04    2.33     100.0  T
   6    -59.0853085 -0.627303E-09  0.406E-05    2.33     428.7  T
     SCC iter.                  ...        0 min,  0.011 sec
     gradient                   ...        0 min,  0.057 sec
 * total energy  :   -58.5472424 Eh     change       -0.4990544E-04 Eh
   gradient norm :     0.0053343 Eh/α   predicted    -0.5510682E-04 (  10.42%)
   displ. norm   :     0.1068624 α      lambda       -0.6427404E-04
   maximum displ.:     0.0786183 α      in ANC's #1, #2, #3, ...

........................................................................
.............................. CYCLE   33 ..............................
........................................................................
   1    -59.0871080 -0.590871E+02  0.721E-03    2.33       0.0  T
   2    -59.0871091 -0.109215E-05  0.379E-03    2.33       4.6  T
   3    -59.0871092 -0.119378E-06  0.197E-03    2.33       8.8  T
   4    -59.0871092 -0.815002E-08  0.482E-04    2.33      36.1  T
   5    -59.0871092 -0.108609E-08  0.940E-05    2.33     185.2  T
   6    -59.0871092 -0.114461E-09  0.254E-05    2.33     686.1  T
     SCC iter.                  ...        0 min,  0.011 sec
     gradient                   ...        0 min,  0.057 sec
 * total energy  :   -58.5472901 Eh     change       -0.4769956E-04 Eh
   gradient norm :     0.0030706 Eh/α   predicted    -0.3250508E-04 ( -31.85%)
   displ. norm   :     0.2097860 α      lambda       -0.6241477E-04
   maximum displ.:     0.1548226 α      in ANC's #1, #2, #3, ...

........................................................................
.............................. CYCLE   34 ..............................
........................................................................
   1    -59.0881592 -0.590882E+02  0.659E-03    2.34       0.0  T
   2    -59.0881606 -0.140534E-05  0.329E-03    2.34       5.3  T
   3    -59.0881607 -0.128015E-06  0.159E-03    2.34      10.9  T
   4    -59.0881607 -0.634901E-08  0.550E-04    2.34      31.6  T
   5    -59.0881607 -0.843791E-09  0.103E-04    2.34     169.2  T
   6    -59.0881607 -0.186397E-09  0.204E-05    2.34     854.6  T
     SCC iter.                  ...        0 min,  0.011 sec
     gradient                   ...        0 min,  0.056 sec
 * total energy  :   -58.5473362 Eh     change       -0.4612368E-04 Eh
   gradient norm :     0.0028405 Eh/α   predicted    -0.3258245E-04 ( -29.36%)
   displ. norm   :     0.2016800 α      lambda       -0.4683556E-04
   maximum displ.:     0.1512637 α      in ANC's #1, #2, #3, ...

........................................................................
.............................. CYCLE   35 ..............................
........................................................................
   1    -59.0882028 -0.590882E+02  0.458E-03    2.35       0.0  T
   2    -59.0882035 -0.726547E-06  0.195E-03    2.35       8.9  T
   3    -59.0882036 -0.548871E-07  0.943E-04    2.35      18.5  T
   4    -59.0882036 -0.540357E-08  0.339E-04    2.35      51.4  T
   5    -59.0882036 -0.162238E-09  0.843E-05    2.35     206.4  T
   6    -59.0882036 -0.109097E-09  0.172E-05    2.35    1012.6  T
     SCC iter.                  ...        0 min,  0.011 sec
     gradient                   ...        0 min,  0.057 sec
 * total energy  :   -58.5473728 Eh     change       -0.3654490E-04 Eh
   gradient norm :     0.0029638 Eh/α   predicted    -0.2437058E-04 ( -33.31%)
   displ. norm   :     0.1740082 α      lambda       -0.3834139E-04
   maximum displ.:     0.1310730 α      in ANC's #1, #2, #3, ...

........................................................................
.............................. CYCLE   36 ..............................
........................................................................
   1    -59.0881979 -0.590882E+02  0.443E-03    2.36       0.0  T
   2    -59.0881987 -0.829626E-06  0.168E-03    2.37      10.4  T
   3    -59.0881988 -0.632395E-07  0.743E-04    2.36      23.4  T
   4    -59.0881988 -0.385664E-08  0.318E-04    2.36      54.7  T
   5    -59.0881988 -0.902602E-10  0.692E-05    2.36     251.5  T
   6    -59.0881988 -0.878089E-10  0.158E-05    2.36    1098.9  T
     SCC iter.                  ...        0 min,  0.011 sec
     gradient                   ...        0 min,  0.057 sec
 * total energy  :   -58.5474023 Eh     change       -0.2949600E-04 Eh
   gradient norm :     0.0028061 Eh/α   predicted    -0.1975174E-04 ( -33.04%)
   displ. norm   :     0.1667678 α      lambda       -0.3445848E-04
   maximum displ.:     0.1295473 α      in ANC's #1, #2, #3, ...

........................................................................
.............................. CYCLE   37 ..............................
........................................................................
   1    -59.0878466 -0.590878E+02  0.592E-03    2.37       0.0  T
   2    -59.0878480 -0.133299E-05  0.208E-03    2.38       8.4  T
   3    -59.0878480 -0.806176E-07  0.102E-03    2.38      17.0  T
   4    -59.0878480 -0.868700E-08  0.439E-04    2.38      39.7  T
   5    -59.0878480 -0.121901E-09  0.724E-05    2.38     240.6  T
   6    -59.0878480 -0.819966E-10  0.206E-05    2.38     844.5  T
     SCC iter.                  ...        0 min,  0.011 sec
     gradient                   ...        0 min,  0.057 sec
 * total energy  :   -58.5474276 Eh     change       -0.2533771E-04 Eh
   gradient norm :     0.0023420 Eh/α   predicted    -0.1771272E-04 ( -30.09%)
   displ. norm   :     0.1450223 α      lambda       -0.2508622E-04
   maximum displ.:     0.1128119 α      in ANC's #1, #2, #3, ...

........................................................................
.............................. CYCLE   38 ..............................
........................................................................
   1    -59.0877214 -0.590877E+02  0.618E-03    2.38       0.0  T
   2    -59.0877231 -0.171455E-05  0.188E-03    2.39       9.3  T
   3    -59.0877232 -0.102173E-06  0.912E-04    2.39      19.1  T
   4    -59.0877232 -0.953754E-08  0.443E-04    2.39      39.3  T
   5    -59.0877232 -0.116358E-09  0.764E-05    2.39     227.9  T
   6    -59.0877232 -0.135849E-09  0.196E-05    2.39     888.8  T
     SCC iter.                  ...        0 min,  0.011 sec
     gradient                   ...        0 min,  0.057 sec
 * total energy  :   -58.5474462 Eh     change       -0.1858868E-04 Eh
   gradient norm :     0.0019813 Eh/α   predicted    -0.1281007E-04 ( -31.09%)
   displ. norm   :     0.1682829 α      lambda       -0.1787649E-04
   maximum displ.:     0.1347087 α      in ANC's #1, #2, #3, ...

........................................................................
.............................. CYCLE   39 ..............................
........................................................................
   1    -59.0877366 -0.590877E+02  0.863E-03    2.39       0.0  T
   2    -59.0877400 -0.339215E-05  0.254E-03    2.41       6.8  T
   3    -59.0877401 -0.190603E-06  0.121E-03    2.41      14.4  T
   4    -59.0877402 -0.201682E-07  0.568E-04    2.41      30.6  T
   5    -59.0877402 -0.175660E-09  0.107E-04    2.41     162.3  T
   6    -59.0877402 -0.221341E-09  0.270E-05    2.41     644.2  T
     SCC iter.                  ...        0 min,  0.011 sec
     gradient                   ...        0 min,  0.057 sec
 * total energy  :   -58.5474620 Eh     change       -0.1580923E-04 Eh
   gradient norm :     0.0017300 Eh/α   predicted    -0.9054313E-05 ( -42.73%)
   displ. norm   :     0.0455367 α      lambda       -0.7779584E-05
   maximum displ.:     0.0355456 α      in ANC's #1, #4, #19, ...

........................................................................
.............................. CYCLE   40 ..............................
........................................................................
   1    -59.0877743 -0.590878E+02  0.303E-03    2.40       0.0  T
   2    -59.0877748 -0.479591E-06  0.110E-03    2.41      15.8  T
   3    -59.0877748 -0.311973E-07  0.425E-04    2.41      40.9  T
   4    -59.0877748 -0.145850E-08  0.226E-04    2.41      77.1  T
   5    -59.0877748 -0.331113E-10  0.407E-05    2.41     427.9  T
   6    -59.0877748 -0.280096E-10  0.990E-06    2.41    1758.4  T
     SCC iter.                  ...        0 min,  0.026 sec
     gradient                   ...        0 min,  0.069 sec
 * total energy  :   -58.5474710 Eh     change       -0.9035014E-05 Eh
   gradient norm :     0.0014764 Eh/α   predicted    -0.3897908E-05 ( -56.86%)
   displ. norm   :     0.0753668 α      lambda       -0.1192374E-04
   maximum displ.:     0.0442852 α      in ANC's #1, #4, #19, ...

........................................................................
.............................. CYCLE   41 ..............................
........................................................................
   1    -59.0880027 -0.590880E+02  0.410E-03    2.40       0.0  T
   2    -59.0880035 -0.737585E-06  0.182E-03    2.41       9.6  T
   3    -59.0880035 -0.634551E-07  0.796E-04    2.41      21.9  T
   4    -59.0880035 -0.208956E-08  0.365E-04    2.41      47.7  T
   5    -59.0880035 -0.172442E-09  0.638E-05    2.41     272.8  T
   6    -59.0880035 -0.877733E-10  0.184E-05    2.41     944.1  T
     SCC iter.                  ...        0 min,  0.012 sec
     gradient                   ...        0 min,  0.057 sec
 * total energy  :   -58.5474813 Eh     change       -0.1027973E-04 Eh
   gradient norm :     0.0016982 Eh/α   predicted    -0.5980005E-05 ( -41.83%)
   displ. norm   :     0.0523778 α      lambda       -0.6377065E-05
   maximum displ.:     0.0364261 α      in ANC's #1, #4, #19, ...

........................................................................
.............................. CYCLE   42 ..............................
........................................................................
   1    -59.0875814 -0.590876E+02  0.238E-03    2.40       0.0  T
   2    -59.0875815 -0.157864E-06  0.869E-04    2.41      20.0  T
   3    -59.0875816 -0.147044E-07  0.444E-04    2.41      39.2  T
   4    -59.0875816 -0.643837E-09  0.145E-04    2.41     119.7  T
   5    -59.0875816 -0.288978E-10  0.331E-05    2.41     525.6  T
     SCC iter.                  ...        0 min,  0.010 sec
     gradient                   ...        0 min,  0.057 sec
 * total energy  :   -58.5474872 Eh     change       -0.5878494E-05 Eh
   gradient norm :     0.0015728 Eh/α   predicted    -0.3196388E-05 ( -45.63%)
   displ. norm   :     0.0480630 α      lambda       -0.4984697E-05
   maximum displ.:     0.0307109 α      in ANC's #1, #5, #19, ...
 * RMSD in coord.:     0.6529386 α      energy gain  -0.1907577E-02 Eh

generating ANC from model Hessian ...
Using Lindh-Hessian (1995)
 Shifting diagonal of input Hessian by   9.335136309941663E-003
 Lowest  eigenvalues of input Hessian
    0.000000    0.000000    0.000000    0.000000    0.000000    0.000000
    0.010000    0.010049    0.011196    0.012120    0.012854    0.013737
    0.015385    0.016797    0.017421    0.018458    0.019037    0.019426
 Highest eigenvalues
    1.667322    1.741325    1.945067    2.115893    2.230311    2.294777
 

........................................................................
.............................. CYCLE   43 ..............................
........................................................................
   1    -59.0873013 -0.590873E+02  0.176E-03    2.40       0.0  T
   2    -59.0873014 -0.613949E-07  0.860E-04    2.40      20.2  T
   3    -59.0873014 -0.671716E-08  0.458E-04    2.40      38.0  T
   4    -59.0873014 -0.235396E-09  0.928E-05    2.40     187.7  T
   5    -59.0873014 -0.600480E-10  0.191E-05    2.40     913.0  T
     SCC iter.                  ...        0 min,  0.010 sec
     gradient                   ...        0 min,  0.057 sec
 * total energy  :   -58.5474923 Eh     change       -0.5151878E-05 Eh
   gradient norm :     0.0010169 Eh/α   predicted     0.0000000E+00 (-100.00%)
   displ. norm   :     0.0156369 α      lambda       -0.2946436E-05
   maximum displ.:     0.0070754 α      in ANC's #1, #3, #7, ...

........................................................................
.............................. CYCLE   44 ..............................
........................................................................
   1    -59.0874858 -0.590875E+02  0.120E-03    2.41       0.0  T
   2    -59.0874859 -0.478945E-07  0.538E-04    2.40      32.4  T
   3    -59.0874859 -0.478946E-08  0.236E-04    2.40      73.7  T
   4    -59.0874859 -0.148709E-09  0.104E-04    2.40     166.8  T
   5    -59.0874859 -0.276899E-10  0.132E-05    2.40    1318.8  T
     SCC iter.                  ...        0 min,  0.010 sec
     gradient                   ...        0 min,  0.057 sec
 * total energy  :   -58.5474955 Eh     change       -0.3126124E-05 Eh
   gradient norm :     0.0003162 Eh/α   predicted    -0.1530853E-05 ( -51.03%)
   displ. norm   :     0.0310829 α      lambda       -0.2863285E-05
   maximum displ.:     0.0158768 α      in ANC's #1, #3, #7, ...

   *** GEOMETRY OPTIMIZATION CONVERGED AFTER 44 ITERATIONS ***

------------------------------------------------------------------------
 total energy gain   :        -0.0233557 Eh      -14.6559 kcal/mol
 total RMSD          :         1.3879908 a0        0.7345 Å
 total power (kW/mol):        -1.3936452 (step)  -13.9858 (real)
------------------------------------------------------------------------

 ANCopt (total)                0 d,  0 h,  0 min,  4.385 sec
 optimizer setup                ...        0 min,  0.001 sec (  0.016%)
 model hessian                  ...        0 min,  0.084 sec (  1.916%)
 ANC generation                 ...        0 min,  0.004 sec (  0.100%)
 coordinate transformation      ...        0 min,  0.001 sec (  0.024%)
 single point calculation       ...        0 min,  4.274 sec ( 97.479%)
 optimization log               ...        0 min,  0.009 sec (  0.211%)
 hessian update                 ...        0 min,  0.001 sec (  0.021%)
 rational function              ...        0 min,  0.006 sec (  0.140%)

================
 final structure:
================
33
 xtb: 6.5.1 (579679a)
C            2.83823483935557       -0.93738172059080        2.03750317916665
O            1.88504069316721       -0.34633322119411        1.15911528130791
C            2.32198551765602       -0.06709985262552       -0.08776221093971
O            3.47496020644949       -0.29740243431897       -0.43234713244647
C            1.22731982896450        0.33836560472870       -1.06246395713880
C            1.75417063286782        1.35384928456503       -2.08350972313878
N            0.05767108073280        0.89550940428605       -0.40335959567246
C           -0.86889807521807        0.09801847818670       -0.02287896430646
C           -2.08868429042595        0.70129253721717        0.67284896442108
C           -2.45219232289808       -0.07951049652650        1.93922501968027
C           -3.26642843552410        0.70127707854237       -0.31469639655189
N           -1.81304849859933        2.08675643271165        1.04797055301554
N           -0.85663334302834       -1.24661716788376       -0.21397767585332
C            0.00229965391026       -1.87257592505250       -1.21166521984310
O           -0.32083076985911       -3.03605612538425       -1.55912931841272
C            0.98907000960449       -1.03803359252719       -1.66388654086772
O            1.93134636491902       -1.44864709050934       -2.63118743373935
H            2.34718882916419       -1.06739097811362        3.00064618295765
H            3.16872728225622       -1.90716442339058        1.65333470804634
H            3.70971200432960       -0.28575537588971        2.15079411235405
H            2.69977088546173        1.01331587680518       -2.50272332743011
H            1.02955529008573        1.47481790853048       -2.88805613716780
H            1.90525606739509        2.31790789194337       -1.59929117164873
H           -1.57928134395296       -0.18544002176154        2.58322416804346
H           -2.82645094131593       -1.07182657857515        1.69167408436813
H           -3.22871156771316        0.45408599466502        2.48677383116528
H           -3.00735881234605        1.27849112672827       -1.20242861677225
H           -3.51524242971447       -0.31585189673581       -0.61521671196142
H           -4.13821144771063        1.15601542306995        0.15455447906923
H           -1.19453877768886        2.09952785835027        1.84985275183249
H           -1.31328754672863        2.53221668083370        0.28156627217976
H           -1.68176588516075       -1.78002975790746        0.00668397281163
H            2.80925430156406       -1.51833192217879       -2.22118942652881
 
 Bond Distances (Angstroems)
 ---------------------------
C1-O2=1.4246         C1-H18=1.0889        C1-H19=1.0942        C1-H20=1.0940        O2-C1=1.4246         O2-C3=1.3504         
C3-O2=1.3504         C3-O4=1.2252         C3-C5=1.5208         O4-C3=1.2252         C5-C3=1.5208         C5-C6=1.5334         
C5-N7=1.4536         C5-C16=1.5208        C6-C5=1.5334         C6-H21=1.0890        C6-H22=1.0895        C6-H23=1.0894        
N7-C5=1.4536         N7-C8=1.2803         C8-N7=1.2803         C8-C9=1.5284         C8-N13=1.3582        C9-C8=1.5284         
C9-C10=1.5315        C9-C11=1.5370        C9-N12=1.4616        C10-C9=1.5315        C10-H24=1.0899       C10-H25=1.0891       
C10-H26=1.0897       C11-C9=1.5370        C11-H27=1.0901       C11-H28=1.0894       C11-H29=1.0895       N12-C9=1.4616        
N12-H30=1.0128       N12-H31=1.0176       N13-C8=1.3582        N13-C14=1.4577       N13-H32=1.0070       C14-N13=1.4577       
C14-O15=1.2565       C14-C16=1.3692       O15-C14=1.2565       C16-C5=1.5208        C16-C14=1.3692       C16-O17=1.4114       
O17-C16=1.4114       O17-H33=0.9714       H18-C1=1.0889        H19-C1=1.0942        H20-C1=1.0940        H21-C6=1.0890        
H22-C6=1.0895        H23-C6=1.0894        H24-C10=1.0899       H25-C10=1.0891       H26-C10=1.0897       H27-C11=1.0901       
H28-C11=1.0894       H29-C11=1.0895       H30-N12=1.0128       H31-N12=1.0176       H32-N13=1.0070       H33-O17=0.9714       
 C  H  Rav=1.0902 sigma=0.0018  Rmin=1.0889  Rmax=1.0942    12
 C  C  Rav=1.5059 sigma=0.0561  Rmin=1.3692  Rmax=1.5370     7
 N  H  Rav=1.0125 sigma=0.0043  Rmin=1.0070  Rmax=1.0176     3
 N  C  Rav=1.4023 sigma=0.0722  Rmin=1.2803  Rmax=1.4616     5
 O  H  Rav=0.9714 sigma=0.0000  Rmin=0.9714  Rmax=0.9714     1
 O  C  Rav=1.3336 sigma=0.0804  Rmin=1.2252  Rmax=1.4246     5
 
 selected bond angles (degree)
 --------------------
H18-C1-O2=107.05               H19-C1-O2=110.69               H19-C1-H18=109.93              H20-C1-O2=110.47               
H20-C1-H18=109.80              H20-C1-H19=108.88              C3-O2-C1=116.02                O4-C3-O2=121.69                
C5-C3-O2=114.46                C5-C3-O4=123.18                C6-C5-C3=110.86                N7-C5-C3=113.00                
N7-C5-C6=108.94                C16-C5-C3= 97.18               C16-C5-C6=112.95               C16-C5-N7=113.59               
H21-C6-C5=110.34               H22-C6-C5=109.68               H22-C6-H21=109.15              H23-C6-C5=109.74               
H23-C6-H21=109.11              H23-C6-H22=108.80              C8-N7-C5=118.58                C9-C8-N7=117.84                
N13-C8-N7=124.63               N13-C8-C9=117.52               C10-C9-C8=111.38               C11-C9-C8=108.61               
C11-C9-C10=110.45              N12-C9-C8=109.91               N12-C9-C10=108.41              N12-C9-C11=108.02              
H24-C10-C9=110.37              H25-C10-C9=110.99              H25-C10-H24=108.72             H26-C10-C9=109.57              
H26-C10-H24=108.75             H26-C10-H25=108.39             
 
 selected dihedral angles (degree)
 ---------------------------------
C3-O2-C1-H18=178.11           C3-O2-C1-H19=297.92           C3-O2-C1-H20= 58.60           O4-C3-O2-C1=359.23            
C5-C3-O2-C1=170.09            C6-C5-C3-O2=147.27            C6-C5-C3-O4=317.97            N7-C5-C3-O2= 24.64            
N7-C5-C3-O4=195.35            C16-C5-C3-O2=265.20           C16-C5-C3-O4= 75.90           H21-C6-C5-C3= 48.08           
H21-C6-C5-N7=173.03           H21-C6-C5-C16=300.23          H22-C6-C5-C3=168.34           H22-C6-C5-N7=293.29           
H22-C6-C5-C16= 60.50          H23-C6-C5-C3=287.81           H23-C6-C5-N7= 52.76           H23-C6-C5-C16=179.96          
C8-N7-C5-C3=271.60            C8-N7-C5-C6=147.91            C8-N7-C5-C16= 21.08           C9-C8-N7-C5=179.78            
N13-C8-N7-C5=358.59           C10-C9-C8-N7=226.69           C10-C9-C8-N13= 47.80          C11-C9-C8-N7=104.84           
C11-C9-C8-N13=285.95          N12-C9-C8-N7=346.86           N12-C9-C8-N13=167.97          H24-C10-C9-C8= 52.16          
H24-C10-C9-C11=172.94         H24-C10-C9-N12=291.12         H25-C10-C9-C8=291.56          H25-C10-C9-C11= 52.34         
H25-C10-C9-N12=170.51         H26-C10-C9-C8=171.89          H26-C10-C9-C11=292.67         H26-C10-C9-N12= 50.84         
           -------------------------------------------------
          |                Final Singlepoint                |
           -------------------------------------------------

          ...................................................
          :                      SETUP                      :
          :.................................................:
          :  # basis functions                 100          :
          :  # atomic orbitals                 100          :
          :  # shells                           66          :
          :  # electrons                        96          :
          :  # halogen bonds                     0          :
          :  max. iterations                   250          :
          :  Hamiltonian                  GFN1-xTB          :
          :  restarted?                      false          :
          :  GBSA solvation                   true          :
          :  PC potential                    false          :
          :  electronic temp.          300.0000000     K    :
          :  accuracy                    1.0000000          :
          :  -> integral cutoff          0.2500000E+02      :
          :  -> integral neglect         0.1000000E-07      :
          :  -> SCF convergence          0.1000000E-05 Eh   :
          :  -> wf. convergence          0.2000000E-04 e    :
          :  Broyden damping             0.4000000          :
          ...................................................

 iter      E             dE          RMSdq      gap      omega  full diag
   1    -59.0874859 -0.590875E+02  0.361E-06    2.40       0.0  T
   2    -59.0874859 -0.206057E-12  0.176E-06    2.40    9881.3  T
   3    -59.0874859 -0.426326E-13  0.752E-07    2.40   23139.1  T

   *** convergence criteria satisfied after 3 iterations ***

         #    Occupation            Energy/Eh            Energy/eV
      -------------------------------------------------------------
         1        2.0000           -0.8043042             -21.8862
       ...           ...                  ...                  ...
        42        2.0000           -0.4499751             -12.2444
        43        2.0000           -0.4282075             -11.6521
        44        2.0000           -0.3970017             -10.8030
        45        2.0000           -0.3890508             -10.5866
        46        2.0000           -0.3814492             -10.3798
        47        2.0000           -0.3702849             -10.0760
        48        2.0000           -0.3153871              -8.5821 (HOMO)
        49                         -0.2270090              -6.1772 (LUMO)
        50                         -0.2118080              -5.7636
        51                         -0.1274990              -3.4694
        52                         -0.1240594              -3.3758
        53                         -0.1158939              -3.1536
       ...                                ...                  ...
       100                          0.7204256              19.6038
      -------------------------------------------------------------
                  HL-Gap            0.0883781 Eh            2.4049 eV
             Fermi-level           -0.2711981 Eh           -7.3797 eV

 SCC (total)                   0 d,  0 h,  0 min,  0.091 sec
 SCC setup                      ...        0 min,  0.001 sec (  1.490%)
 Dispersion                     ...        0 min,  0.000 sec (  0.229%)
 classical contributions        ...        0 min,  0.000 sec (  0.079%)
 integral evaluation            ...        0 min,  0.026 sec ( 28.126%)
 iterations                     ...        0 min,  0.006 sec (  6.947%)
 molecular gradient             ...        0 min,  0.057 sec ( 62.473%)
 printout                       ...        0 min,  0.001 sec (  0.605%)

         :::::::::::::::::::::::::::::::::::::::::::::::::::::
         ::                     SUMMARY                     ::
         :::::::::::::::::::::::::::::::::::::::::::::::::::::
         :: total energy             -58.547495464226 Eh    ::
         :: total w/o Gsasa/hb       -58.530585234590 Eh    ::
         :: gradient norm              0.000317289350 Eh/a0 ::
         :: HOMO-LUMO gap              2.404890973987 eV    ::
         ::.................................................::
         :: SCC energy               -59.087485895920 Eh    ::
         :: -> electrostatic           0.370055860528 Eh    ::
         :: -> Gsolv                  -0.104208852155 Eh    ::
         ::    -> Gelec               -0.087298622519 Eh    ::
         ::    -> Gsasa               -0.017572220478 Eh    ::
         ::    -> Ghb                 -0.006962288163 Eh    ::
         ::    -> Gshift               0.007624279005 Eh    ::
         :: repulsion energy           0.559969441353 Eh    ::
         :: dispersion energy         -0.019979009658 Eh    ::
         :: halogen bond corr.         0.000000000000 Eh    ::
         :: add. restraining           0.000000000000 Eh    ::
         :: total charge              -1.000000000000 e     ::
         :::::::::::::::::::::::::::::::::::::::::::::::::::::

           -------------------------------------------------
          |                Property Printout                |
           -------------------------------------------------

    * Orbital Energies and Occupations

         #    Occupation            Energy/Eh            Energy/eV
      -------------------------------------------------------------
         1        2.0000           -0.8043042             -21.8862
       ...           ...                  ...                  ...
        36        2.0000           -0.4768251             -12.9751
        37        2.0000           -0.4755297             -12.9398
        38        2.0000           -0.4726956             -12.8627
        39        2.0000           -0.4699474             -12.7879
        40        2.0000           -0.4557935             -12.4028
        41        2.0000           -0.4543400             -12.3632
        42        2.0000           -0.4499751             -12.2444
        43        2.0000           -0.4282075             -11.6521
        44        2.0000           -0.3970017             -10.8030
        45        2.0000           -0.3890508             -10.5866
        46        2.0000           -0.3814492             -10.3798
        47        2.0000           -0.3702849             -10.0760
        48        2.0000           -0.3153871              -8.5821 (HOMO)
        49                         -0.2270090              -6.1772 (LUMO)
        50                         -0.2118080              -5.7636
        51                         -0.1274990              -3.4694
        52                         -0.1240594              -3.3758
        53                         -0.1158939              -3.1536
        54                         -0.1103113              -3.0017
        55                         -0.0950703              -2.5870
        56                         -0.0849495              -2.3116
        57                         -0.0712951              -1.9400
        58                         -0.0619601              -1.6860
        59                         -0.0605085              -1.6465
       ...                                ...                  ...
       100                          0.7204256              19.6038
      -------------------------------------------------------------
                  HL-Gap            0.0883781 Eh            2.4049 eV
             Fermi-level           -0.2711981 Eh           -7.3797 eV

  Mulliken/CM5 charges         n(s)   n(p)   n(d)
     1C     0.17196  0.05213   0.972  2.856  0.000
     2O    -0.43400 -0.51627   1.690  4.744  0.000
     3C     0.53478  0.59622   0.998  2.468  0.000
     4O    -0.61394 -0.66919   1.735  4.879  0.000
     5C     0.12937  0.18227   1.060  2.810  0.000
     6C    -0.08525 -0.22287   1.009  3.076  0.000
     7N    -0.47110 -0.65719   1.548  3.923  0.000
     8C     0.28526  0.43860   1.018  2.697  0.000
     9C     0.14301  0.17788   1.064  2.793  0.000
    10C    -0.10153 -0.24232   1.016  3.086  0.000
    11C    -0.09870 -0.23868   1.016  3.083  0.000
    12N    -0.51875 -0.96509   1.473  4.045  0.000
    13N    -0.37828 -0.71707   1.442  3.936  0.000
    14C     0.37518  0.46254   0.982  2.643  0.000
    15O    -0.72180 -0.75807   1.748  4.974  0.000
    16C     0.03202  0.06025   0.999  2.969  0.000
    17O    -0.59267 -0.78573   1.704  4.888  0.000
    18H     0.03579  0.09603   0.964  0.000  0.000
    19H     0.03813  0.09954   0.962  0.000  0.000
    20H     0.03701  0.09887   0.963  0.000  0.000
    21H     0.03230  0.09198   0.968  0.000  0.000
    22H     0.02284  0.07877   0.977  0.000  0.000
    23H     0.01963  0.07594   0.980  0.000  0.000
    24H     0.03366  0.08987   0.966  0.000  0.000
    25H     0.03142  0.08724   0.969  0.000  0.000
    26H     0.03388  0.08971   0.966  0.000  0.000
    27H     0.03193  0.08833   0.968  0.000  0.000
    28H     0.02843  0.08386   0.972  0.000  0.000
    29H     0.02973  0.08513   0.970  0.000  0.000
    30H     0.20312  0.39462   0.797  0.000  0.000
    31H     0.19989  0.39628   0.800  0.000  0.000
    32H     0.22344  0.42527   0.777  0.000  0.000
    33H     0.34321  0.52117   0.657  0.000  0.000

Wiberg/Mayer (AO) data.
largest (>0.10) Wiberg bond orders for each atom

 ---------------------------------------------------------------------------
     #   Z sym  total        # sym  WBO       # sym  WBO       # sym  WBO
 ---------------------------------------------------------------------------
     1   6 C    3.894 --    18 H    0.987    20 H    0.981    19 H    0.981
                             2 O    0.916
     2   8 O    2.163 --     3 C    1.066     1 C    0.916     4 O    0.108
     3   6 C    3.818 --     4 O    1.585     2 O    1.066     5 C    0.936
                            16 C    0.114
     4   8 O    1.884 --     3 C    1.585     2 O    0.108
     5   6 C    3.965 --     6 C    0.987     7 N    0.979     3 C    0.936
                            16 C    0.926
     6   6 C    3.997 --    23 H    0.988     5 C    0.987    22 H    0.987
                            21 H    0.985
     7   7 N    2.985 --     8 C    1.675     5 C    0.979    13 N    0.156
     8   6 C    3.944 --     7 N    1.675    13 N    1.185     9 C    0.961
     9   6 C    3.969 --    10 C    0.996    12 N    0.989    11 C    0.985
                             8 C    0.961
    10   6 C    3.996 --     9 C    0.996    26 H    0.986    24 H    0.986
                            25 H    0.984
    11   6 C    3.996 --    28 H    0.986    27 H    0.986    29 H    0.986
                             9 C    0.985
    12   7 N    2.951 --     9 C    0.989    30 H    0.950    31 H    0.940
    13   7 N    3.311 --     8 C    1.185    32 H    0.914    14 C    0.910
                             7 N    0.156
    14   6 C    3.916 --    16 C    1.482    15 O    1.398    13 N    0.910
    15   8 O    1.721 --    14 C    1.398    16 C    0.167
    16   6 C    3.783 --    14 C    1.482    17 O    0.950     5 C    0.926
                            15 O    0.167     3 C    0.114
    17   8 O    1.908 --    16 C    0.950    33 H    0.861
    18   1 H    1.015 --     1 C    0.987
    19   1 H    1.012 --     1 C    0.981
    20   1 H    1.013 --     1 C    0.981
    21   1 H    1.017 --     6 C    0.985
    22   1 H    1.012 --     6 C    0.987
    23   1 H    1.011 --     6 C    0.988
    24   1 H    1.004 --    10 C    0.986
    25   1 H    1.004 --    10 C    0.984
    26   1 H    1.006 --    10 C    0.986
    27   1 H    1.006 --    11 C    0.986
    28   1 H    1.005 --    11 C    0.986
    29   1 H    1.009 --    11 C    0.986
    30   1 H    0.970 --    12 N    0.950
    31   1 H    0.987 --    12 N    0.940
    32   1 H    0.966 --    13 N    0.914
    33   1 H    0.901 --    17 O    0.861
 ---------------------------------------------------------------------------

Topologies differ in total number of bonds
Writing topology from bond orders to xtbtopo.mol

 dipole moment from electron density (au)
     X       Y       Z   
  -1.2482   2.5499   3.8413  total (Debye):   12.141

           -------------------------------------------------
          |                Geometry Summary                 |
           -------------------------------------------------

      molecular mass/u    :      242.2521403
   center of mass at/Å    :        0.3119571      -0.2606522      -0.2728609
  moments of inertia/u·Å² :        0.7603609E+03   0.1340419E+04   0.1499247E+04
rotational constants/cm⁻¹ :        0.2217057E-01   0.1257639E-01   0.1124407E-01

 * 26 selected distances

     #   Z          #   Z                                           value/Å
     1   6 C        2   8 O                                       1.4245993
     2   8 O        3   6 C                                       1.3504058
     3   6 C        4   8 O                                       1.2252057
     5   6 C        6   6 C                                       1.5333994
     7   7 N        8   6 C                                       1.2803468
     9   6 C       10   6 C                                       1.5315026
     9   6 C       11   6 C                                       1.5369865 (max)
     9   6 C       12   7 N                                       1.4615751
     8   6 C       13   7 N                                       1.3582027
    14   6 C       16   6 C                                       1.3691899
     1   6 C       18   1 H                                       1.0888862
     1   6 C       19   1 H                                       1.0942072
     1   6 C       20   1 H                                       1.0940404
     6   6 C       21   1 H                                       1.0889734
     6   6 C       22   1 H                                       1.0894934
     6   6 C       23   1 H                                       1.0893593
    10   6 C       24   1 H                                       1.0899219
    10   6 C       25   1 H                                       1.0890557
    10   6 C       26   1 H                                       1.0897327
    11   6 C       27   1 H                                       1.0901201
    11   6 C       28   1 H                                       1.0893909
    11   6 C       29   1 H                                       1.0894903
    12   7 N       30   1 H                                       1.0127846
    12   7 N       31   1 H                                       1.0176304
    13   7 N       32   1 H                                       1.0070077
    17   8 O       33   1 H                                       0.9714303 (min)

 * 6 distinct bonds (by element types)

   Z      Z             #   av. dist./Å        max./Å        min./Å
   1 H    6 C          12     1.0902226     1.0942072     1.0888862
   6 C    6 C           4     1.4927696     1.5369865     1.3691899
   1 H    7 N           3     1.0124742     1.0176304     1.0070077
   6 C    7 N           3     1.3667082     1.4615751     1.2803468
   1 H    8 O           1     0.9714303     0.9714303     0.9714303
   6 C    8 O           3     1.3334036     1.4245993     1.2252057


optimized geometry written to: xtbopt.xyz


           -------------------------------------------------
          | TOTAL ENERGY              -58.547495464226 Eh   |
          | GRADIENT NORM               0.000317289350 Eh/α |
          | HOMO-LUMO GAP               2.404890973987 eV   |
           -------------------------------------------------

------------------------------------------------------------------------
 * finished run on 2023/06/20 at 14:58:55.989     
------------------------------------------------------------------------
 total:
 * wall-time:     0 d,  0 h,  0 min,  4.696 sec
 *  cpu-time:     0 d,  0 h,  0 min,  4.572 sec
 * ratio c/w:     0.974 speedup
 SCF:
 * wall-time:     0 d,  0 h,  0 min,  0.107 sec
 *  cpu-time:     0 d,  0 h,  0 min,  0.107 sec
 * ratio c/w:     0.997 speedup
 ANC optimizer:
 * wall-time:     0 d,  0 h,  0 min,  4.482 sec
 *  cpu-time:     0 d,  0 h,  0 min,  4.423 sec
 * ratio c/w:     0.987 speedup

