42
 energy: -83.645448015274 gnorm: 0.000644487295 xtb: 6.5.1 (579679a)
C            5.57794518172483        1.58198626845049       -1.60753812534795
O            4.47656257589499        0.90154758904691       -1.02893690975537
C            4.70271315158312        0.36051623493201        0.21370148466139
O            5.79539199337291        0.49828449146995        0.74734586652607
C            3.54586502361297       -0.33761709142356        0.73789883519041
N            2.42918918763085       -0.33331433545431       -0.08193821105752
C            1.34916517625751       -0.92459014908637        0.27536627567511
C            0.10326927082420       -0.90691615510392       -0.60105393562357
C            0.45459278744517       -0.16196576836322       -1.89921836132808
C           -0.27436806957161       -2.36540940653847       -0.92535089187643
N           -0.90625204885002       -0.14569243600088        0.15242240988826
C           -2.39295825673141       -0.46786976838435       -0.07388857200367
C           -2.80823590358308        0.07009844947814       -1.47944892793260
O           -2.74008223609484       -1.69626336760837        0.17918598744828
C           -3.03807954394351        0.52184234206893        0.96457274013517
N           -2.59148707497962        0.82290244210160        2.14361492053435
N           -3.55305602335064        1.60638317887467        2.75472025825481
C           -4.51662297339335        1.71966949125535        1.90522513226900
C           -5.78700722059738        2.46783868293829        2.07061279581330
O           -4.26250440242833        1.06268103025921        0.75623401871582
N            1.26121891133335       -1.58742276891395        1.48482016677246
C            2.28233016928613       -1.67806931989392        2.38803955863566
O            2.12176247855010       -2.30754882315148        3.43549844804622
C            3.56481945810701       -0.97396455055098        2.00636377165979
O            4.52462646279832       -1.00170225171210        2.80260781515712
H            5.25620762004608        1.94131422825524       -2.58436456236171
H            5.88468621343708        2.43066391990992       -0.98698401791134
H            6.43334234595826        0.90869962022936       -1.72790504767936
H            1.34732016930749       -0.59777500815367       -2.34860655036400
H           -0.35814367386850       -0.22396550592009       -2.61872817104510
H            0.65140807494886        0.88757067098411       -1.67878947865746
H           -1.10273487028627       -2.40485774753048       -1.62958428507267
H            0.58759162354043       -2.86599488481584       -1.36898111068901
H           -0.57101046953223       -2.89954079171692       -0.02412307109628
H           -0.77104216945761       -0.35584784604219        1.14514614003011
H           -3.89559259821143        0.10372495727813       -1.52707444503367
H           -2.45794779301499       -0.61187028286753       -2.25081918522131
H           -2.40905189843823        1.06803041133483       -1.65500011390491
H           -5.82850456682031        2.90048998755210        3.06710143378472
H           -5.85426887848915        3.26402295102297        1.32942469138076
H           -6.63870216709380        1.80316978068231        1.92863267102257
H            0.40764896307641       -2.07323946889226        1.71962955236117
