      -----------------------------------------------------------      
     |                   =====================                   |     
     |                           x T B                           |     
     |                   =====================                   |     
     |                         S. Grimme                         |     
     |          Mulliken Center for Theoretical Chemistry        |     
     |                    University of Bonn                     |     
      -----------------------------------------------------------      

   * xtb version 6.5.1 (579679a) compiled by 'ehlert@majestix' on 2022-07-11

   xtb is free software: you can redistribute it and/or modify it under
   the terms of the GNU Lesser General Public License as published by
   the Free Software Foundation, either version 3 of the License, or
   (at your option) any later version.
   
   xtb is distributed in the hope that it will be useful,
   but WITHOUT ANY WARRANTY; without even the implied warranty of
   MERCHANTABILITY or FITNESS FOR A PARTICULAR PURPOSE.  See the
   GNU Lesser General Public License for more details.
   
   Cite this work as:
   * C. Bannwarth, E. Caldeweyher, S. Ehlert, A. Hansen, P. Pracht,
     J. Seibert, S. Spicher, S. Grimme, WIREs Comput. Mol. Sci., 2020, 11,
     e01493. DOI: 10.1002/wcms.1493
   
   for GFN2-xTB:
   * C. Bannwarth, S. Ehlert and S. Grimme., J. Chem. Theory Comput., 2019,
     15, 1652-1671. DOI: 10.1021/acs.jctc.8b01176
   for GFN1-xTB:
   * S. Grimme, C. Bannwarth, P. Shushkov, J. Chem. Theory Comput., 2017,
     13, 1989-2009. DOI: 10.1021/acs.jctc.7b00118
   for GFN0-xTB:
   * P. Pracht, E. Caldeweyher, S. Ehlert, S. Grimme, ChemRxiv, 2019, preprint.
     DOI: 10.26434/chemrxiv.8326202.v1
   for GFN-FF:
   * S. Spicher and S. Grimme, Angew. Chem. Int. Ed., 2020, 59, 15665-15673.
     DOI: 10.1002/anie.202004239
   
   for ALPB and GBSA implicit solvation:
   * S. Ehlert, M. Stahn, S. Spicher, S. Grimme, J. Chem. Theory Comput.,
     2021, 17, 4250-4261. DOI: 10.1021/acs.jctc.1c00471
   
   for DFT-D4:
   * E. Caldeweyher, C. Bannwarth and S. Grimme, J. Chem. Phys., 2017,
     147, 034112. DOI: 10.1063/1.4993215
   * E. Caldeweyher, S. Ehlert, A. Hansen, H. Neugebauer, S. Spicher,
     C. Bannwarth and S. Grimme, J. Chem. Phys., 2019, 150, 154122.
     DOI: 10.1063/1.5090222
   * E. Caldeweyher, J.-M. Mewes, S. Ehlert and S. Grimme, Phys. Chem. Chem. Phys.
     2020, 22, 8499-8512. DOI: 10.1039/D0CP00502A
   
   for sTDA-xTB:
   * S. Grimme and C. Bannwarth, J. Chem. Phys., 2016, 145, 054103.
     DOI: 10.1063/1.4959605
   
   in the mass-spec context:
   * V. Asgeirsson, C. Bauer and S. Grimme, Chem. Sci., 2017, 8, 4879.
     DOI: 10.1039/c7sc00601b
   * J. Koopman and S. Grimme, ACS Omega 2019, 4, 12, 15120-15133.
     DOI: 10.1021/acsomega.9b02011
   
   for metadynamics refer to:
   * S. Grimme, J. Chem. Theory Comput., 2019, 155, 2847-2862
     DOI: 10.1021/acs.jctc.9b00143
   
   for SPH calculations refer to:
   * S. Spicher and S. Grimme, J. Chem. Theory Comput., 2021, 17, 1701-1714
     DOI: 10.1021/acs.jctc.0c01306
   
   with help from (in alphabetical order)
   P. Atkinson, C. Bannwarth, F. Bohle, G. Brandenburg, E. Caldeweyher
   M. Checinski, S. Dohm, S. Ehlert, S. Ehrlich, I. Gerasimov, C. Hölzer
   A. Katbashev, J. Koopman, C. Lavigne, S. Lehtola, F. März, M. Müller,
   F. Musil, H. Neugebauer, J. Pisarek, C. Plett, P. Pracht, F. Pultar,
   J. Seibert, P. Shushkov, S. Spicher, M. Stahn, M. Steiner, T. Strunk,
   J. Stückrath, T. Rose, and J. Unsleber
   
 * started run on 2023/06/20 at 18:29:29.297     

           -------------------------------------------------
          |                Calculation Setup                |
           -------------------------------------------------

          program call               : /lustre/hpc/kemi/ree/PhD/git/ReactivityQM/dep/xtb-6.5.1/bin/xtb --gfn 1 /lustre/hpc/kemi/ree/PhD/git/ReactivityQM/calculations/R02deprot/reac01prodN18/conf08/R02deprot_reac01prodN18_conf08_gfn1.xyz --opt --vfukui --chrg 0 --uhf 0 --alpb DMSO
          hostname                   : node308
          coordinate file            : /lustre/hpc/kemi/ree/PhD/git/ReactivityQM/calculations/R02deprot/reac01prodN18/conf08/R02deprot_reac01prodN18_conf08_gfn1.xyz
          omp threads                :                     1

   ID    Z sym.   atoms
    1    6 C      1, 3, 5, 7-10, 12, 13, 15, 18, 19, 22, 24
    2    8 O      2, 4, 14, 20, 23, 25
    3    7 N      6, 11, 16, 17, 21
    4    1 H      26-42

           -------------------------------------------------
          |                 G F N 1 - x T B                 |
           -------------------------------------------------

        Reference                      10.1021/acs.jctc.7b00118
      * Hamiltonian:
        H0-scaling (s, p, d)           1.850000    2.250000    2.000000
        zeta-weighting                 0.000000
      * Dispersion:
        s8                             2.400000
        a1                             0.630000
        a2                             5.000000
        s9                             0.000000
      * Repulsion:
        kExp                           1.500000
        rExp                           1.000000
      * Coulomb:
        alpha                          2.000000
        third order                    atomic
        anisotropic                    false
      * Halogen bond correction:
        rad-scale                      1.300000
        damping                        0.440000

      * Solvation model:               ALPB
        Solvent                        DMSO
        Parameter file                 internal GFN1-xTB/ALPB
        Dielectric constant                4.6680E+01
        Reference state                gsolv [1 M gas/solution]
        Free energy shift                  7.6243E-03 Eh       4.7843E+00 kcal/mol
        Temperature                        2.9815E+02 K
        Density                            1.1000E+00 kg/L
        Solvent mass                       7.8130E+01 g/mol
        Interaction kernel             P16
        Born radius scaling (c1)           1.7672E+00
        Born radii integrator          GBOBC
        Born offset                        0.0000E+00 a0       0.0000E+00 AA
        H-bond correction              true
        Ion screening                  false
        Surface tension                    1.0000E-05 Eh       1.5569E+01 dyn/cm
        Grid points                               230 per atom

          ...................................................
          :                      SETUP                      :
          :.................................................:
          :  # basis functions                 134          :
          :  # atomic orbitals                 134          :
          :  # shells                           84          :
          :  # electrons                       134          :
          :  # halogen bonds                     0          :
          :  max. iterations                   250          :
          :  Hamiltonian                  GFN1-xTB          :
          :  restarted?                      false          :
          :  GBSA solvation                   true          :
          :  PC potential                    false          :
          :  electronic temp.          300.0000000     K    :
          :  accuracy                    1.0000000          :
          :  -> integral cutoff          0.2500000E+02      :
          :  -> integral neglect         0.1000000E-07      :
          :  -> SCF convergence          0.1000000E-05 Eh   :
          :  -> wf. convergence          0.2000000E-04 e    :
          :  Broyden damping             0.4000000          :
          ...................................................

 iter      E             dE          RMSdq      gap      omega  full diag
   1    -83.3332930 -0.833333E+02  0.845E+00    2.60       0.0  T
   2    -83.6755096 -0.342217E+00  0.507E+00    0.95       1.0  T
   3    -83.6588774  0.166322E-01  0.172E+00    0.49       1.0  T
   4    -83.3428631  0.316014E+00  0.165E+00    0.10       1.0  T
   5    -83.6979790 -0.355116E+00  0.193E-01    0.55       1.0  T
   6    -83.6985569 -0.577859E-03  0.114E-01    0.57       1.0  T
   7    -83.6987664 -0.209541E-03  0.994E-02    0.55       1.0  T
   8    -83.6988745 -0.108115E-03  0.879E-02    0.51       1.0  T
   9    -83.6989489 -0.743983E-04  0.781E-02    0.47       1.0  T
  10    -83.6990321 -0.831294E-04  0.669E-02    0.42       1.0  T
  11    -83.6991289 -0.968852E-04  0.517E-02    0.36       1.0  T
  12    -83.6993225 -0.193535E-03  0.538E-03    0.22       2.9  T
  13    -83.6993256 -0.310730E-05  0.905E-04    0.23      17.0  T
  14    -83.6993256 -0.461399E-07  0.493E-04    0.23      31.3  T
  15    -83.6993255  0.887420E-07  0.103E-03    0.23      15.0  T
  16    -83.6993256 -0.999282E-07  0.320E-04    0.23      48.2  T
  17    -83.6993257 -0.105083E-07  0.146E-05    0.23    1054.1  T
  18    -83.6993257 -0.109281E-10  0.885E-06    0.23    1744.4  T

   *** convergence criteria satisfied after 18 iterations ***

         #    Occupation            Energy/Eh            Energy/eV
      -------------------------------------------------------------
         1        2.0000           -0.8946094             -24.3436
       ...           ...                  ...                  ...
        61        2.0000           -0.4750906             -12.9279
        62        2.0000           -0.4653339             -12.6624
        63        2.0000           -0.4547026             -12.3731
        64        2.0000           -0.4410914             -12.0027
        65        2.0000           -0.4188087             -11.3964
        66        2.0000           -0.3911792             -10.6445
        67        1.9781           -0.3816801             -10.3860 (HOMO)
        68        0.0219           -0.3731239             -10.1532 (LUMO)
        69                         -0.2949465              -8.0259
        70                         -0.2897066              -7.8833
        71                         -0.2531114              -6.8875
        72                         -0.2478574              -6.7445
       ...                                ...                  ...
       134                          0.7391265              20.1127
      -------------------------------------------------------------
                  HL-Gap            0.0085562 Eh            0.2328 eV
             Fermi-level           -0.3774020 Eh          -10.2696 eV

 SCC (total)                   0 d,  0 h,  0 min,  0.348 sec
 SCC setup                      ...        0 min,  0.002 sec (  0.611%)
 Dispersion                     ...        0 min,  0.000 sec (  0.117%)
 classical contributions        ...        0 min,  0.000 sec (  0.037%)
 integral evaluation            ...        0 min,  0.086 sec ( 24.591%)
 iterations                     ...        0 min,  0.142 sec ( 40.867%)
 molecular gradient             ...        0 min,  0.117 sec ( 33.496%)
 printout                       ...        0 min,  0.001 sec (  0.266%)

         :::::::::::::::::::::::::::::::::::::::::::::::::::::
         ::                     SUMMARY                     ::
         :::::::::::::::::::::::::::::::::::::::::::::::::::::
         :: total energy             -82.936791016892 Eh    ::
         :: total w/o Gsasa/hb       -82.915109076089 Eh    ::
         :: gradient norm              0.117641321296 Eh/a0 ::
         :: HOMO-LUMO gap              0.232827313746 eV    ::
         ::.................................................::
         :: SCC energy               -83.699325656056 Eh    ::
         :: -> electrostatic           0.388933284469 Eh    ::
         :: -> Gsolv                  -0.068518945827 Eh    ::
         ::    -> Gelec               -0.046837005024 Eh    ::
         ::    -> Gsasa               -0.023890568723 Eh    ::
         ::    -> Ghb                 -0.005415651085 Eh    ::
         ::    -> Gshift               0.007624279005 Eh    ::
         :: repulsion energy           0.789785260721 Eh    ::
         :: dispersion energy         -0.027250621557 Eh    ::
         :: halogen bond corr.         0.000000000000 Eh    ::
         :: add. restraining           0.000000000000 Eh    ::
         :: total charge              -0.000000000000 e     ::
         :::::::::::::::::::::::::::::::::::::::::::::::::::::

      ----------------------------------------------------------- 
     |                   =====================                   |
     |                        A N C O P T                        |
     |                   =====================                   |
     |               Approximate Normal Coordinate               |
     |                Rational Function Optimizer                |
      ----------------------------------------------------------- 

          ...................................................
          :                      SETUP                      :
          :.................................................:
          :   optimization level            normal          :
          :   max. optcycles                   200          :
          :   ANC micro-cycles                  20          :
          :   degrees of freedom               120          :
          :.................................................:
          :   RF solver                   davidson          :
          :   write xtbopt.log                true          :
          :   linear?                        false          :
          :   energy convergence         0.5000000E-05 Eh   :
          :   grad. convergence          0.1000000E-02 Eh/α :
          :   maximium RF displ.         1.0000000          :
          :   Hlow (freq-cutoff)         0.1000000E-01      :
          :   Hmax (freq-cutoff)         5.0000000          :
          :   S6 in model hess.         20.0000000          :
          ...................................................

generating ANC from model Hessian ...
Using Lindh-Hessian (1995)
 Shifting diagonal of input Hessian by   9.809457489800409E-003
 Lowest  eigenvalues of input Hessian
    0.000000    0.000000    0.000000    0.000000    0.000000    0.000000
    0.010000    0.010096    0.010548    0.010753    0.011984    0.012756
    0.013014    0.013176    0.014043    0.014558    0.016398    0.017124
 Highest eigenvalues
    2.027749    2.135864    2.149439    2.333284    2.335766    2.377298
 

........................................................................
.............................. CYCLE    1 ..............................
........................................................................
   1    -83.6993257 -0.836993E+02  0.611E-06    0.23       0.0  T
   2    -83.6993257 -0.105160E-11  0.533E-06    0.23    2892.7  T
   3    -83.6993257 -0.274269E-11  0.425E-07    0.23   36332.0  T
     SCC iter.                  ...        0 min,  0.011 sec
     gradient                   ...        0 min,  0.082 sec
 * total energy  :   -82.9367910 Eh     change       -0.8014922E-11 Eh
   gradient norm :     0.1176416 Eh/α   predicted     0.0000000E+00 (-100.00%)
   displ. norm   :     0.3031860 α      lambda       -0.1704075E-01
   maximum displ.:     0.1088285 α      in ANC's #20, #33, #70, ...

........................................................................
.............................. CYCLE    2 ..............................
........................................................................
   1    -83.7079571 -0.837080E+02  0.740E-02    0.32       0.0  T
   2    -83.7081773 -0.220185E-03  0.305E-02    0.27       1.0  T
   3    -83.7081937 -0.163859E-04  0.143E-02    0.27       1.1  T
   4    -83.7081938 -0.947522E-07  0.458E-03    0.27       3.4  T
   5    -83.7081940 -0.210877E-06  0.112E-03    0.27      13.7  T
   6    -83.7081940 -0.378656E-07  0.286E-04    0.27      54.0  T
   7    -83.7081940 -0.319308E-08  0.920E-05    0.27     167.8  T
   8    -83.7081940 -0.116032E-09  0.311E-05    0.27     496.6  T
     SCC iter.                  ...        0 min,  0.027 sec
     gradient                   ...        0 min,  0.083 sec
 * total energy  :   -82.9486567 Eh     change       -0.1186568E-01 Eh
   gradient norm :     0.0537307 Eh/α   predicted    -0.9311758E-02 ( -21.52%)
   displ. norm   :     0.2939196 α      lambda       -0.5687805E-02
   maximum displ.:     0.1451024 α      in ANC's #20, #25, #31, ...

........................................................................
.............................. CYCLE    3 ..............................
........................................................................
   1    -83.7148303 -0.837148E+02  0.645E-02    0.32       0.0  T
   2    -83.7150015 -0.171241E-03  0.254E-02    0.29       1.0  T
   3    -83.7150156 -0.140682E-04  0.108E-02    0.29       1.4  T
   4    -83.7150155  0.426466E-07  0.435E-03    0.29       3.5  T
   5    -83.7150158 -0.296349E-06  0.972E-04    0.29      15.9  T
   6    -83.7150158 -0.204238E-07  0.198E-04    0.29      77.8  T
   7    -83.7150158 -0.120916E-08  0.650E-05    0.29     237.3  T
     SCC iter.                  ...        0 min,  0.024 sec
     gradient                   ...        0 min,  0.083 sec
 * total energy  :   -82.9520677 Eh     change       -0.3410989E-02 Eh
   gradient norm :     0.0168284 Eh/α   predicted    -0.3091146E-02 (  -9.38%)
   displ. norm   :     0.2059113 α      lambda       -0.9204887E-03
   maximum displ.:     0.0930907 α      in ANC's #20, #2, #5, ...

........................................................................
.............................. CYCLE    4 ..............................
........................................................................
   1    -83.7163341 -0.837163E+02  0.214E-02    0.29       0.0  T
   2    -83.7163548 -0.206129E-04  0.963E-03    0.29       1.6  T
   3    -83.7163568 -0.204872E-05  0.439E-03    0.29       3.5  T
   4    -83.7163568  0.154734E-07  0.182E-03    0.29       8.5  T
   5    -83.7163569 -0.562498E-07  0.328E-04    0.29      47.0  T
   6    -83.7163569 -0.214726E-08  0.740E-05    0.29     208.5  T
   7    -83.7163569 -0.141185E-09  0.298E-05    0.29     517.9  T
     SCC iter.                  ...        0 min,  0.024 sec
     gradient                   ...        0 min,  0.083 sec
 * total energy  :   -82.9527401 Eh     change       -0.6723940E-03 Eh
   gradient norm :     0.0096418 Eh/α   predicted    -0.4797606E-03 ( -28.65%)
   displ. norm   :     0.2710007 α      lambda       -0.6557912E-03
   maximum displ.:     0.1375294 α      in ANC's #2, #5, #3, ...

........................................................................
.............................. CYCLE    5 ..............................
........................................................................
   1    -83.7170640 -0.837171E+02  0.155E-02    0.29       0.0  T
   2    -83.7170742 -0.102141E-04  0.763E-03    0.29       2.0  T
   3    -83.7170753 -0.113155E-05  0.386E-03    0.29       4.0  T
   4    -83.7170753  0.259729E-08  0.133E-03    0.29      11.6  T
   5    -83.7170753 -0.339425E-07  0.248E-04    0.29      62.2  T
   6    -83.7170753 -0.140366E-08  0.648E-05    0.29     238.1  T
   7    -83.7170753 -0.777050E-10  0.285E-05    0.29     542.0  T
     SCC iter.                  ...        0 min,  0.024 sec
     gradient                   ...        0 min,  0.083 sec
 * total energy  :   -82.9531950 Eh     change       -0.4549608E-03 Eh
   gradient norm :     0.0070830 Eh/α   predicted    -0.3520342E-03 ( -22.62%)
   displ. norm   :     0.2651907 α      lambda       -0.3503865E-03
   maximum displ.:     0.1489412 α      in ANC's #2, #3, #5, ...

........................................................................
.............................. CYCLE    6 ..............................
........................................................................
   1    -83.7177157 -0.837177E+02  0.851E-03    0.29       0.0  T
   2    -83.7177179 -0.224273E-05  0.412E-03    0.29       3.7  T
   3    -83.7177182 -0.316924E-06  0.221E-03    0.29       7.0  T
   4    -83.7177182 -0.131872E-07  0.647E-04    0.29      23.9  T
   5    -83.7177182 -0.689221E-08  0.158E-04    0.29      97.7  T
   6    -83.7177182 -0.623118E-09  0.459E-05    0.29     336.4  T
     SCC iter.                  ...        0 min,  0.020 sec
     gradient                   ...        0 min,  0.083 sec
 * total energy  :   -82.9534672 Eh     change       -0.2721898E-03 Eh
   gradient norm :     0.0071247 Eh/α   predicted    -0.1875265E-03 ( -31.10%)
   displ. norm   :     0.3341091 α      lambda       -0.3517453E-03
   maximum displ.:     0.1905172 α      in ANC's #2, #3, #5, ...

........................................................................
.............................. CYCLE    7 ..............................
........................................................................
   1    -83.7185700 -0.837186E+02  0.845E-03    0.29       0.0  T
   2    -83.7185725 -0.246334E-05  0.417E-03    0.29       3.7  T
   3    -83.7185729 -0.402052E-06  0.205E-03    0.29       7.5  T
   4    -83.7185729 -0.139272E-07  0.713E-04    0.29      21.6  T
   5    -83.7185729 -0.555336E-08  0.179E-04    0.29      86.4  T
   6    -83.7185729 -0.556739E-09  0.456E-05    0.29     338.5  T
     SCC iter.                  ...        0 min,  0.020 sec
     gradient                   ...        0 min,  0.083 sec
 * total energy  :   -82.9537549 Eh     change       -0.2877141E-03 Eh
   gradient norm :     0.0067830 Eh/α   predicted    -0.1955095E-03 ( -32.05%)
   displ. norm   :     0.4135721 α      lambda       -0.3825152E-03
   maximum displ.:     0.2396857 α      in ANC's #2, #3, #8, ...

........................................................................
.............................. CYCLE    8 ..............................
........................................................................
   1    -83.7193690 -0.837194E+02  0.929E-03    0.30       0.0  T
   2    -83.7193726 -0.366602E-05  0.475E-03    0.30       3.2  T
   3    -83.7193732 -0.551311E-06  0.220E-03    0.30       7.0  T
   4    -83.7193732 -0.722845E-08  0.830E-04    0.30      18.6  T
   5    -83.7193732 -0.925830E-08  0.217E-04    0.30      71.3  T
   6    -83.7193732 -0.571319E-09  0.461E-05    0.30     334.5  T
   7    -83.7193732 -0.499227E-10  0.145E-05    0.30    1062.1  T
     SCC iter.                  ...        0 min,  0.023 sec
     gradient                   ...        0 min,  0.083 sec
 * total energy  :   -82.9540693 Eh     change       -0.3143463E-03 Eh
   gradient norm :     0.0067812 Eh/α   predicted    -0.2239715E-03 ( -28.75%)
   displ. norm   :     0.4058982 α      lambda       -0.3227283E-03
   maximum displ.:     0.2436960 α      in ANC's #2, #3, #8, ...

........................................................................
.............................. CYCLE    9 ..............................
........................................................................
   1    -83.7201360 -0.837201E+02  0.769E-03    0.30       0.0  T
   2    -83.7201386 -0.256347E-05  0.385E-03    0.31       4.0  T
   3    -83.7201389 -0.303473E-06  0.186E-03    0.31       8.3  T
   4    -83.7201389 -0.427495E-08  0.652E-04    0.31      23.6  T
   5    -83.7201389 -0.616318E-08  0.169E-04    0.31      91.1  T
   6    -83.7201389 -0.344770E-09  0.392E-05    0.31     393.8  T
     SCC iter.                  ...        0 min,  0.021 sec
     gradient                   ...        0 min,  0.083 sec
 * total energy  :   -82.9543209 Eh     change       -0.2515661E-03 Eh
   gradient norm :     0.0065769 Eh/α   predicted    -0.1879597E-03 ( -25.28%)
   displ. norm   :     0.3112067 α      lambda       -0.2157463E-03
   maximum displ.:     0.1970140 α      in ANC's #2, #3, #8, ...

........................................................................
.............................. CYCLE   10 ..............................
........................................................................
   1    -83.7209659 -0.837210E+02  0.610E-03    0.31       0.0  T
   2    -83.7209675 -0.160495E-05  0.288E-03    0.32       5.4  T
   3    -83.7209676 -0.152747E-06  0.141E-03    0.32      11.0  T
   4    -83.7209676 -0.333462E-08  0.536E-04    0.32      28.8  T
   5    -83.7209676 -0.236231E-08  0.100E-04    0.32     153.9  T
   6    -83.7209676 -0.116387E-09  0.274E-05    0.32     562.5  T
     SCC iter.                  ...        0 min,  0.021 sec
     gradient                   ...        0 min,  0.083 sec
 * total energy  :   -82.9544984 Eh     change       -0.1775838E-03 Eh
   gradient norm :     0.0053472 Eh/α   predicted    -0.1183233E-03 ( -33.37%)
   displ. norm   :     0.2974567 α      lambda       -0.1990444E-03
   maximum displ.:     0.1971436 α      in ANC's #2, #3, #8, ...

........................................................................
.............................. CYCLE   11 ..............................
........................................................................
   1    -83.7215800 -0.837216E+02  0.635E-03    0.32       0.0  T
   2    -83.7215820 -0.193566E-05  0.303E-03    0.32       5.1  T
   3    -83.7215821 -0.192226E-06  0.136E-03    0.32      11.3  T
   4    -83.7215821 -0.218672E-08  0.652E-04    0.32      23.7  T
   5    -83.7215822 -0.306242E-08  0.115E-04    0.32     134.4  T
   6    -83.7215822 -0.228340E-09  0.289E-05    0.32     533.1  T
     SCC iter.                  ...        0 min,  0.020 sec
     gradient                   ...        0 min,  0.084 sec
 * total energy  :   -82.9546656 Eh     change       -0.1671871E-03 Eh
   gradient norm :     0.0039777 Eh/α   predicted    -0.1083282E-03 ( -35.21%)
   displ. norm   :     0.3267239 α      lambda       -0.2058642E-03
   maximum displ.:     0.2211923 α      in ANC's #2, #3, #1, ...

........................................................................
.............................. CYCLE   12 ..............................
........................................................................
   1    -83.7216919 -0.837217E+02  0.561E-03    0.33       0.0  T
   2    -83.7216933 -0.137289E-05  0.294E-03    0.33       5.3  T
   3    -83.7216934 -0.153520E-06  0.138E-03    0.33      11.2  T
   4    -83.7216934 -0.115064E-08  0.594E-04    0.33      26.0  T
   5    -83.7216934 -0.329312E-08  0.121E-04    0.33     127.6  T
   6    -83.7216934 -0.246743E-09  0.275E-05    0.33     560.1  T
     SCC iter.                  ...        0 min,  0.020 sec
     gradient                   ...        0 min,  0.084 sec
 * total energy  :   -82.9548357 Eh     change       -0.1700648E-03 Eh
   gradient norm :     0.0046353 Eh/α   predicted    -0.1139205E-03 ( -33.01%)
   displ. norm   :     0.3347705 α      lambda       -0.1978855E-03
   maximum displ.:     0.2242568 α      in ANC's #2, #3, #1, ...

........................................................................
.............................. CYCLE   13 ..............................
........................................................................
   1    -83.7217425 -0.837217E+02  0.546E-03    0.33       0.0  T
   2    -83.7217440 -0.147453E-05  0.276E-03    0.33       5.6  T
   3    -83.7217441 -0.185210E-06  0.129E-03    0.33      11.9  T
   4    -83.7217441 -0.277785E-08  0.600E-04    0.33      25.7  T
   5    -83.7217441 -0.324154E-08  0.121E-04    0.33     127.1  T
   6    -83.7217441 -0.200927E-09  0.247E-05    0.33     623.6  T
     SCC iter.                  ...        0 min,  0.020 sec
     gradient                   ...        0 min,  0.084 sec
 * total energy  :   -82.9550046 Eh     change       -0.1688755E-03 Eh
   gradient norm :     0.0059740 Eh/α   predicted    -0.1100327E-03 ( -34.84%)
   displ. norm   :     0.4283257 α      lambda       -0.2379543E-03
   maximum displ.:     0.2840364 α      in ANC's #2, #3, #1, ...

........................................................................
.............................. CYCLE   14 ..............................
........................................................................
   1    -83.7207709 -0.837208E+02  0.551E-03    0.34       0.0  T
   2    -83.7207717 -0.845191E-06  0.263E-03    0.34       5.9  T
   3    -83.7207718 -0.102277E-06  0.149E-03    0.34      10.3  T
   4    -83.7207718 -0.132901E-07  0.423E-04    0.34      36.5  T
   5    -83.7207718 -0.215574E-08  0.878E-05    0.34     175.8  T
   6    -83.7207718 -0.141171E-09  0.285E-05    0.34     540.6  T
     SCC iter.                  ...        0 min,  0.020 sec
     gradient                   ...        0 min,  0.084 sec
 * total energy  :   -82.9552065 Eh     change       -0.2019625E-03 Eh
   gradient norm :     0.0063774 Eh/α   predicted    -0.1408056E-03 ( -30.28%)
   displ. norm   :     0.4936692 α      lambda       -0.2488899E-03
   maximum displ.:     0.3274067 α      in ANC's #2, #3, #1, ...

........................................................................
.............................. CYCLE   15 ..............................
........................................................................
   1    -83.7197341 -0.837197E+02  0.723E-03    0.34       0.0  T
   2    -83.7197360 -0.185498E-05  0.338E-03    0.34       4.6  T
   3    -83.7197363 -0.316296E-06  0.175E-03    0.34       8.8  T
   4    -83.7197363 -0.137869E-07  0.562E-04    0.34      27.4  T
   5    -83.7197363 -0.247701E-08  0.114E-04    0.34     135.3  T
   6    -83.7197363 -0.271314E-09  0.359E-05    0.34     430.2  T
     SCC iter.                  ...        0 min,  0.020 sec
     gradient                   ...        0 min,  0.084 sec
 * total energy  :   -82.9554033 Eh     change       -0.1967904E-03 Eh
   gradient norm :     0.0062346 Eh/α   predicted    -0.1547777E-03 ( -21.35%)
   displ. norm   :     0.3905746 α      lambda       -0.1717840E-03
   maximum displ.:     0.2670896 α      in ANC's #2, #3, #1, ...

........................................................................
.............................. CYCLE   16 ..............................
........................................................................
   1    -83.7193456 -0.837193E+02  0.716E-03    0.35       0.0  T
   2    -83.7193472 -0.163123E-05  0.277E-03    0.35       5.6  T
   3    -83.7193474 -0.120249E-06  0.144E-03    0.35      10.7  T
   4    -83.7193474 -0.401120E-08  0.516E-04    0.35      29.9  T
   5    -83.7193474 -0.249250E-08  0.117E-04    0.35     132.2  T
   6    -83.7193474 -0.344542E-09  0.330E-05    0.35     467.7  T
     SCC iter.                  ...        0 min,  0.020 sec
     gradient                   ...        0 min,  0.084 sec
 * total energy  :   -82.9555306 Eh     change       -0.1272809E-03 Eh
   gradient norm :     0.0043403 Eh/α   predicted    -0.9899988E-04 ( -22.22%)
   displ. norm   :     0.2689591 α      lambda       -0.1182892E-03
   maximum displ.:     0.1881637 α      in ANC's #2, #3, #4, ...

........................................................................
.............................. CYCLE   17 ..............................
........................................................................
   1    -83.7206506 -0.837207E+02  0.612E-03    0.35       0.0  T
   2    -83.7206518 -0.128415E-05  0.286E-03    0.36       5.4  T
   3    -83.7206520 -0.175051E-06  0.145E-03    0.36      10.6  T
   4    -83.7206520 -0.716106E-08  0.515E-04    0.36      29.9  T
   5    -83.7206520 -0.230794E-08  0.131E-04    0.36     117.7  T
   6    -83.7206520 -0.402025E-09  0.302E-05    0.36     510.5  T
     SCC iter.                  ...        0 min,  0.020 sec
     gradient                   ...        0 min,  0.084 sec
 * total energy  :   -82.9556229 Eh     change       -0.9225931E-04 Eh
   gradient norm :     0.0034719 Eh/α   predicted    -0.6342479E-04 ( -31.25%)
   displ. norm   :     0.3130240 α      lambda       -0.1120829E-03
   maximum displ.:     0.2237728 α      in ANC's #2, #3, #4, ...

........................................................................
.............................. CYCLE   18 ..............................
........................................................................
   1    -83.7202430 -0.837202E+02  0.755E-03    0.36       0.0  T
   2    -83.7202456 -0.256882E-05  0.261E-03    0.37       5.9  T
   3    -83.7202457 -0.930124E-07  0.123E-03    0.37      12.5  T
   4    -83.7202457 -0.247186E-08  0.518E-04    0.37      29.8  T
   5    -83.7202457 -0.128846E-08  0.103E-04    0.37     150.3  T
   6    -83.7202457 -0.187313E-09  0.234E-05    0.37     659.6  T
     SCC iter.                  ...        0 min,  0.020 sec
     gradient                   ...        0 min,  0.084 sec
 * total energy  :   -82.9557115 Eh     change       -0.8864888E-04 Eh
   gradient norm :     0.0039676 Eh/α   predicted    -0.6153335E-04 ( -30.59%)
   displ. norm   :     0.3167813 α      lambda       -0.1000183E-03
   maximum displ.:     0.2265712 α      in ANC's #2, #3, #4, ...

........................................................................
.............................. CYCLE   19 ..............................
........................................................................
   1    -83.7197198 -0.837197E+02  0.694E-03    0.38       0.0  T
   2    -83.7197221 -0.225749E-05  0.234E-03    0.39       6.6  T
   3    -83.7197222 -0.143868E-06  0.119E-03    0.39      13.0  T
   4    -83.7197223 -0.159260E-07  0.586E-04    0.39      26.3  T
   5    -83.7197223 -0.138046E-08  0.116E-04    0.39     132.8  T
   6    -83.7197223 -0.245919E-09  0.304E-05    0.39     507.0  T
     SCC iter.                  ...        0 min,  0.020 sec
     gradient                   ...        0 min,  0.084 sec
 * total energy  :   -82.9557932 Eh     change       -0.8172909E-04 Eh
   gradient norm :     0.0045297 Eh/α   predicted    -0.5502903E-04 ( -32.67%)
   displ. norm   :     0.3259661 α      lambda       -0.9882520E-04
   maximum displ.:     0.2379483 α      in ANC's #2, #3, #4, ...

........................................................................
.............................. CYCLE   20 ..............................
........................................................................
   1    -83.7192082 -0.837192E+02  0.727E-03    0.40       0.0  T
   2    -83.7192104 -0.225455E-05  0.202E-03    0.41       7.6  T
   3    -83.7192105 -0.481315E-07  0.107E-03    0.41      14.5  T
   4    -83.7192105 -0.438023E-08  0.480E-04    0.41      32.1  T
   5    -83.7192105 -0.163128E-08  0.111E-04    0.41     139.3  T
   6    -83.7192105 -0.221178E-09  0.307E-05    0.41     501.9  T
     SCC iter.                  ...        0 min,  0.020 sec
     gradient                   ...        0 min,  0.072 sec
 * total energy  :   -82.9558719 Eh     change       -0.7867371E-04 Eh
   gradient norm :     0.0047509 Eh/α   predicted    -0.5466484E-04 ( -30.52%)
   displ. norm   :     0.2968617 α      lambda       -0.8419220E-04
   maximum displ.:     0.2219953 α      in ANC's #2, #3, #4, ...
 * RMSD in coord.:     0.8405023 α      energy gain  -0.1908090E-01 Eh

generating ANC from model Hessian ...
Using Lindh-Hessian (1995)
 Shifting diagonal of input Hessian by   9.788830442541981E-003
 Lowest  eigenvalues of input Hessian
    0.000000    0.000000    0.000000    0.000000    0.000000    0.000000
    0.010000    0.010159    0.010594    0.011091    0.012049    0.012697
    0.013055    0.013656    0.014139    0.015061    0.017060    0.017411
 Highest eigenvalues
    2.020750    2.139099    2.167852    2.326143    2.357130    2.369716
 

........................................................................
.............................. CYCLE   21 ..............................
........................................................................
   1    -83.7189290 -0.837189E+02  0.681E-03    0.42       0.0  T
   2    -83.7189311 -0.207475E-05  0.214E-03    0.42       7.2  T
   3    -83.7189312 -0.782189E-07  0.106E-03    0.43      14.5  T
   4    -83.7189312 -0.111937E-07  0.570E-04    0.43      27.1  T
   5    -83.7189312 -0.220594E-08  0.121E-04    0.43     127.7  T
   6    -83.7189312 -0.286590E-09  0.368E-05    0.43     419.2  T
     SCC iter.                  ...        0 min,  0.015 sec
     gradient                   ...        0 min,  0.044 sec
 * total energy  :   -82.9559399 Eh     change       -0.6799054E-04 Eh
   gradient norm :     0.0038637 Eh/α   predicted     0.0000000E+00 (-100.00%)
   displ. norm   :     0.0378619 α      lambda       -0.2366494E-04
   maximum displ.:     0.0240112 α      in ANC's #2, #6, #10, ...

........................................................................
.............................. CYCLE   22 ..............................
........................................................................
   1    -83.7199817 -0.837200E+02  0.314E-03    0.43       0.0  T
   2    -83.7199820 -0.275174E-06  0.118E-03    0.43      13.1  T
   3    -83.7199820 -0.204496E-07  0.685E-04    0.43      22.5  T
   4    -83.7199820 -0.107019E-08  0.148E-04    0.43     104.2  T
   5    -83.7199820 -0.291436E-09  0.465E-05    0.43     331.5  T
     SCC iter.                  ...        0 min,  0.013 sec
     gradient                   ...        0 min,  0.044 sec
 * total energy  :   -82.9559700 Eh     change       -0.3005453E-04 Eh
   gradient norm :     0.0019660 Eh/α   predicted    -0.1835840E-04 ( -38.92%)
   displ. norm   :     0.1629868 α      lambda       -0.6425997E-04
   maximum displ.:     0.1042880 α      in ANC's #2, #6, #10, ...

........................................................................
.............................. CYCLE   23 ..............................
........................................................................
   1    -83.7217724 -0.837218E+02  0.841E-03    0.43       0.0  T
   2    -83.7217748 -0.236825E-05  0.270E-03    0.42       5.7  T
   3    -83.7217749 -0.169623E-06  0.157E-03    0.42       9.8  T
   4    -83.7217749 -0.991099E-08  0.504E-04    0.42      30.6  T
   5    -83.7217749 -0.174666E-08  0.145E-04    0.42     106.2  T
   6    -83.7217749 -0.475708E-09  0.292E-05    0.42     529.1  T
     SCC iter.                  ...        0 min,  0.021 sec
     gradient                   ...        0 min,  0.085 sec
 * total energy  :   -82.9560218 Eh     change       -0.5185758E-04 Eh
   gradient norm :     0.0035583 Eh/α   predicted    -0.3251032E-04 ( -37.31%)
   displ. norm   :     0.0619794 α      lambda       -0.2553433E-04
   maximum displ.:     0.0433815 α      in ANC's #2, #6, #4, ...

........................................................................
.............................. CYCLE   24 ..............................
........................................................................
   1    -83.7213107 -0.837213E+02  0.159E-03    0.42       0.0  T
   2    -83.7213108 -0.616622E-07  0.705E-04    0.42      21.9  T
   3    -83.7213108 -0.397854E-08  0.411E-04    0.42      37.5  T
   4    -83.7213108 -0.121075E-08  0.110E-04    0.42     140.3  T
   5    -83.7213108 -0.135245E-09  0.278E-05    0.42     555.0  T
     SCC iter.                  ...        0 min,  0.017 sec
     gradient                   ...        0 min,  0.085 sec
 * total energy  :   -82.9560450 Eh     change       -0.2322688E-04 Eh
   gradient norm :     0.0030183 Eh/α   predicted    -0.1281693E-04 ( -44.82%)
   displ. norm   :     0.1655293 α      lambda       -0.6902667E-04
   maximum displ.:     0.1090834 α      in ANC's #2, #6, #4, ...

........................................................................
.............................. CYCLE   25 ..............................
........................................................................
   1    -83.7197863 -0.837198E+02  0.478E-03    0.42       0.0  T
   2    -83.7197867 -0.417045E-06  0.209E-03    0.42       7.4  T
   3    -83.7197868 -0.350748E-07  0.118E-03    0.42      13.1  T
   4    -83.7197868 -0.673661E-08  0.226E-04    0.42      68.3  T
   5    -83.7197868 -0.270660E-09  0.702E-05    0.42     219.7  T
   6    -83.7197868 -0.786287E-10  0.231E-05    0.42     669.1  T
     SCC iter.                  ...        0 min,  0.021 sec
     gradient                   ...        0 min,  0.085 sec
 * total energy  :   -82.9560988 Eh     change       -0.5378229E-04 Eh
   gradient norm :     0.0020583 Eh/α   predicted    -0.3554304E-04 ( -33.91%)
   displ. norm   :     0.1835381 α      lambda       -0.5147548E-04
   maximum displ.:     0.1230649 α      in ANC's #2, #6, #4, ...

........................................................................
.............................. CYCLE   26 ..............................
........................................................................
   1    -83.7186180 -0.837186E+02  0.415E-03    0.42       0.0  T
   2    -83.7186184 -0.365729E-06  0.169E-03    0.42       9.1  T
   3    -83.7186184 -0.322166E-07  0.922E-04    0.42      16.7  T
   4    -83.7186184 -0.428646E-08  0.209E-04    0.42      73.9  T
   5    -83.7186184 -0.160014E-09  0.654E-05    0.42     236.1  T
   6    -83.7186184 -0.417231E-10  0.191E-05    0.42     808.1  T
     SCC iter.                  ...        0 min,  0.021 sec
     gradient                   ...        0 min,  0.085 sec
 * total energy  :   -82.9561363 Eh     change       -0.3744034E-04 Eh
   gradient norm :     0.0035915 Eh/α   predicted    -0.2660830E-04 ( -28.93%)
   displ. norm   :     0.1264046 α      lambda       -0.3724893E-04
   maximum displ.:     0.0901250 α      in ANC's #2, #6, #4, ...

........................................................................
.............................. CYCLE   27 ..............................
........................................................................
   1    -83.7186367 -0.837186E+02  0.206E-03    0.42       0.0  T
   2    -83.7186368 -0.123301E-06  0.728E-04    0.42      21.2  T
   3    -83.7186368 -0.116120E-07  0.365E-04    0.42      42.3  T
   4    -83.7186368 -0.105995E-08  0.120E-04    0.42     128.6  T
   5    -83.7186368 -0.874252E-10  0.454E-05    0.42     339.8  T
     SCC iter.                  ...        0 min,  0.018 sec
     gradient                   ...        0 min,  0.085 sec
 * total energy  :   -82.9561689 Eh     change       -0.3265543E-04 Eh
   gradient norm :     0.0037536 Eh/α   predicted    -0.1892339E-04 ( -42.05%)
   displ. norm   :     0.1793158 α      lambda       -0.6889507E-04
   maximum displ.:     0.1332456 α      in ANC's #2, #4, #6, ...

........................................................................
.............................. CYCLE   28 ..............................
........................................................................
   1    -83.7196436 -0.837196E+02  0.345E-03    0.42       0.0  T
   2    -83.7196438 -0.232446E-06  0.150E-03    0.42      10.3  T
   3    -83.7196438 -0.189596E-07  0.882E-04    0.42      17.5  T
   4    -83.7196438 -0.595951E-08  0.257E-04    0.42      60.0  T
   5    -83.7196438 -0.658446E-09  0.580E-05    0.42     266.0  T
   6    -83.7196438 -0.676152E-10  0.214E-05    0.42     720.2  T
     SCC iter.                  ...        0 min,  0.021 sec
     gradient                   ...        0 min,  0.085 sec
 * total energy  :   -82.9562268 Eh     change       -0.5784288E-04 Eh
   gradient norm :     0.0027088 Eh/α   predicted    -0.3555627E-04 ( -38.53%)
   displ. norm   :     0.2726995 α      lambda       -0.8169815E-04
   maximum displ.:     0.2026489 α      in ANC's #2, #4, #6, ...

........................................................................
.............................. CYCLE   29 ..............................
........................................................................
   1    -83.7200301 -0.837200E+02  0.406E-03    0.43       0.0  T
   2    -83.7200305 -0.434817E-06  0.156E-03    0.43       9.9  T
   3    -83.7200305 -0.278558E-07  0.899E-04    0.43      17.2  T
   4    -83.7200305 -0.674591E-08  0.337E-04    0.43      45.7  T
   5    -83.7200305 -0.993296E-09  0.750E-05    0.43     205.7  T
   6    -83.7200305 -0.105672E-09  0.293E-05    0.43     527.5  T
     SCC iter.                  ...        0 min,  0.021 sec
     gradient                   ...        0 min,  0.085 sec
 * total energy  :   -82.9562956 Eh     change       -0.6884285E-04 Eh
   gradient norm :     0.0028696 Eh/α   predicted    -0.4388946E-04 ( -36.25%)
   displ. norm   :     0.3290379 α      lambda       -0.9671116E-04
   maximum displ.:     0.2529902 α      in ANC's #2, #4, #12, ...

........................................................................
.............................. CYCLE   30 ..............................
........................................................................
   1    -83.7201064 -0.837201E+02  0.490E-03    0.43       0.0  T
   2    -83.7201071 -0.731218E-06  0.164E-03    0.44       9.4  T
   3    -83.7201072 -0.327251E-07  0.941E-04    0.44      16.4  T
   4    -83.7201072 -0.605540E-08  0.386E-04    0.44      39.9  T
   5    -83.7201072 -0.145972E-08  0.893E-05    0.44     172.8  T
   6    -83.7201072 -0.171084E-09  0.330E-05    0.44     467.2  T
     SCC iter.                  ...        0 min,  0.021 sec
     gradient                   ...        0 min,  0.085 sec
 * total energy  :   -82.9563805 Eh     change       -0.8489862E-04 Eh
   gradient norm :     0.0033730 Eh/α   predicted    -0.5359341E-04 ( -36.87%)
   displ. norm   :     0.4109320 α      lambda       -0.1280126E-03
   maximum displ.:     0.3258043 α      in ANC's #2, #12, #1, ...

........................................................................
.............................. CYCLE   31 ..............................
........................................................................
   1    -83.7197422 -0.837197E+02  0.673E-03    0.44       0.0  T
   2    -83.7197437 -0.157308E-05  0.205E-03    0.45       7.5  T
   3    -83.7197438 -0.621245E-07  0.116E-03    0.45      13.3  T
   4    -83.7197438 -0.905067E-08  0.518E-04    0.45      29.8  T
   5    -83.7197438 -0.223154E-08  0.124E-04    0.45     124.5  T
   6    -83.7197438 -0.318451E-09  0.441E-05    0.45     350.2  T
     SCC iter.                  ...        0 min,  0.021 sec
     gradient                   ...        0 min,  0.085 sec
 * total energy  :   -82.9564776 Eh     change       -0.9708580E-04 Eh
   gradient norm :     0.0038055 Eh/α   predicted    -0.7481593E-04 ( -22.94%)
   displ. norm   :     0.2787928 α      lambda       -0.1049124E-03
   maximum displ.:     0.2342687 α      in ANC's #2, #12, #1, ...

........................................................................
.............................. CYCLE   32 ..............................
........................................................................
   1    -83.7213726 -0.837214E+02  0.798E-03    0.46       0.0  T
   2    -83.7213740 -0.141631E-05  0.332E-03    0.46       4.6  T
   3    -83.7213740 -0.551702E-07  0.172E-03    0.46       9.0  T
   4    -83.7213740 -0.111147E-07  0.565E-04    0.46      27.3  T
   5    -83.7213740 -0.374594E-08  0.128E-04    0.46     120.4  T
   6    -83.7213740 -0.326267E-09  0.434E-05    0.46     355.4  T
     SCC iter.                  ...        0 min,  0.021 sec
     gradient                   ...        0 min,  0.085 sec
 * total energy  :   -82.9565305 Eh     change       -0.5294143E-04 Eh
   gradient norm :     0.0041515 Eh/α   predicted    -0.5653517E-04 (   6.79%)
   displ. norm   :     0.4933880 α      lambda       -0.1303749E-03
   maximum displ.:     0.3978505 α      in ANC's #2, #12, #1, ...

........................................................................
.............................. CYCLE   33 ..............................
........................................................................
   1    -83.7172198 -0.837172E+02  0.132E-02    0.47       0.0  T
   2    -83.7172234 -0.362478E-05  0.534E-03    0.48       2.9  T
   3    -83.7172235 -0.967069E-07  0.262E-03    0.48       5.9  T
   4    -83.7172235 -0.875610E-08  0.808E-04    0.48      19.1  T
   5    -83.7172235 -0.155648E-07  0.170E-04    0.48      90.6  T
   6    -83.7172235 -0.578098E-09  0.637E-05    0.48     242.1  T
     SCC iter.                  ...        0 min,  0.021 sec
     gradient                   ...        0 min,  0.085 sec
 * total energy  :   -82.9565836 Eh     change       -0.5305448E-04 Eh
   gradient norm :     0.0054785 Eh/α   predicted    -0.8105866E-04 (  52.78%)
   displ. norm   :     0.0520186 α      lambda       -0.7108207E-04
   maximum displ.:     0.0253412 α      in ANC's #3, #6, #4, ...

........................................................................
.............................. CYCLE   34 ..............................
........................................................................
   1    -83.7191132 -0.837191E+02  0.430E-03    0.48       0.0  T
   2    -83.7191133 -0.602233E-07  0.229E-03    0.48       6.7  T
   3    -83.7191133  0.175865E-08  0.711E-04    0.48      21.7  T
   4    -83.7191133 -0.676631E-08  0.177E-04    0.48      87.2  T
   5    -83.7191133 -0.390571E-09  0.446E-05    0.48     346.2  T
     SCC iter.                  ...        0 min,  0.018 sec
     gradient                   ...        0 min,  0.085 sec
 * total energy  :   -82.9566324 Eh     change       -0.4886237E-04 Eh
   gradient norm :     0.0022263 Eh/α   predicted    -0.3563854E-04 ( -27.06%)
   displ. norm   :     0.3317499 α      lambda       -0.1006874E-03
   maximum displ.:     0.2866860 α      in ANC's #2, #12, #5, ...

........................................................................
.............................. CYCLE   35 ..............................
........................................................................
   1    -83.7191251 -0.837191E+02  0.109E-02    0.49       0.0  T
   2    -83.7191294 -0.432135E-05  0.293E-03    0.50       5.3  T
   3    -83.7191295 -0.132968E-06  0.159E-03    0.50       9.7  T
   4    -83.7191295 -0.224628E-07  0.863E-04    0.51      17.9  T
   5    -83.7191295 -0.779183E-08  0.174E-04    0.51      88.8  T
   6    -83.7191295 -0.477016E-09  0.633E-05    0.51     243.7  T
     SCC iter.                  ...        0 min,  0.021 sec
     gradient                   ...        0 min,  0.085 sec
 * total energy  :   -82.9567214 Eh     change       -0.8896456E-04 Eh
   gradient norm :     0.0023755 Eh/α   predicted    -0.5589743E-04 ( -37.17%)
   displ. norm   :     0.8040070 α      lambda       -0.2143791E-03
   maximum displ.:     0.6954222 α      in ANC's #2, #12, #5, ...

........................................................................
.............................. CYCLE   36 ..............................
........................................................................
   1    -83.7140159 -0.837140E+02  0.328E-02    0.53       0.0  T
   2    -83.7140561 -0.402318E-04  0.868E-03    0.56       1.8  T
   3    -83.7140572 -0.110831E-05  0.456E-03    0.57       3.4  T
   4    -83.7140574 -0.166042E-06  0.248E-03    0.57       6.2  T
   5    -83.7140575 -0.771432E-07  0.506E-04    0.58      30.5  T
   6    -83.7140575 -0.391644E-08  0.181E-04    0.58      85.1  T
   7    -83.7140575 -0.646395E-09  0.563E-05    0.58     274.1  T
     SCC iter.                  ...        0 min,  0.024 sec
     gradient                   ...        0 min,  0.085 sec
 * total energy  :   -82.9568855 Eh     change       -0.1640520E-03 Eh
   gradient norm :     0.0079606 Eh/α   predicted    -0.1764856E-03 (   7.58%)
   displ. norm   :     0.4563712 α      lambda       -0.2041338E-03
   maximum displ.:     0.3875664 α      in ANC's #2, #12, #3, ...

........................................................................
.............................. CYCLE   37 ..............................
........................................................................
   1    -83.7125991 -0.837126E+02  0.299E-02    0.60       0.0  T
   2    -83.7126360 -0.368757E-04  0.739E-03    0.63       2.1  T
   3    -83.7126370 -0.102964E-05  0.374E-03    0.63       4.1  T
   4    -83.7126372 -0.157908E-06  0.213E-03    0.64       7.2  T
   5    -83.7126372 -0.554236E-07  0.492E-04    0.64      31.4  T
   6    -83.7126372 -0.317544E-08  0.173E-04    0.64      89.2  T
   7    -83.7126372 -0.561030E-09  0.517E-05    0.64     298.5  T
     SCC iter.                  ...        0 min,  0.024 sec
     gradient                   ...        0 min,  0.085 sec
 * total energy  :   -82.9570793 Eh     change       -0.1938286E-03 Eh
   gradient norm :     0.0097253 Eh/α   predicted    -0.1233299E-03 ( -36.37%)
   displ. norm   :     0.6402143 α      lambda       -0.6940748E-03
   maximum displ.:     0.4462730 α      in ANC's #2, #3, #10, ...

........................................................................
.............................. CYCLE   38 ..............................
........................................................................
   1    -83.7189719 -0.837190E+02  0.776E-02    0.69       0.0  T
   2    -83.7192213 -0.249433E-03  0.210E-02    0.76       1.0  T
   3    -83.7192285 -0.724190E-05  0.105E-02    0.78       1.5  T
   4    -83.7192296 -0.107101E-05  0.572E-03    0.80       2.7  T
   5    -83.7192300 -0.390665E-06  0.135E-03    0.80      11.4  T
   6    -83.7192300 -0.272886E-07  0.499E-04    0.80      30.9  T
   7    -83.7192300 -0.427789E-08  0.135E-04    0.80     114.2  T
   8    -83.7192300 -0.251248E-09  0.432E-05    0.80     356.8  T
     SCC iter.                  ...        0 min,  0.027 sec
     gradient                   ...        0 min,  0.085 sec
 * total energy  :   -82.9574379 Eh     change       -0.3586258E-03 Eh
   gradient norm :     0.0207253 Eh/α   predicted    -0.4892871E-03 (  36.43%)
   displ. norm   :     0.7913248 α      lambda       -0.8503437E-03
   maximum displ.:     0.6507505 α      in ANC's #2, #12, #3, ...

........................................................................
.............................. CYCLE   39 ..............................
........................................................................
   1    -83.7124805 -0.837125E+02  0.104E-01    0.86       0.0  T
   2    -83.7129451 -0.464577E-03  0.248E-02    0.96       1.0  T
   3    -83.7129579 -0.127851E-04  0.113E-02    0.99       1.4  T
   4    -83.7129597 -0.186405E-05  0.652E-03    1.01       2.4  T
   5    -83.7129603 -0.541041E-06  0.171E-03    1.02       9.0  T
   6    -83.7129603 -0.391632E-07  0.654E-04    1.02      23.6  T
   7    -83.7129603 -0.636274E-08  0.185E-04    1.02      83.6  T
   8    -83.7129603 -0.589921E-09  0.592E-05    1.02     260.8  T
     SCC iter.                  ...        0 min,  0.029 sec
     gradient                   ...        0 min,  0.085 sec
 * total energy  :   -82.9585378 Eh     change       -0.1099855E-02 Eh
   gradient norm :     0.0322756 Eh/α   predicted    -0.6914177E-03 ( -37.14%)
   displ. norm   :     0.6793616 α      lambda       -0.1534292E-02
   maximum displ.:     0.5279759 α      in ANC's #2, #3, #12, ...

........................................................................
.............................. CYCLE   40 ..............................
........................................................................
   1    -83.7097735 -0.837098E+02  0.129E-01    1.08       0.0  T
   2    -83.7104972 -0.723758E-03  0.315E-02    1.20       1.0  T
   3    -83.7105173 -0.201092E-04  0.139E-02    1.24       1.1  T
   4    -83.7105201 -0.281886E-05  0.810E-03    1.26       1.9  T
   5    -83.7105210 -0.827468E-06  0.216E-03    1.28       7.1  T
   6    -83.7105210 -0.656191E-07  0.860E-04    1.28      17.9  T
   7    -83.7105210 -0.107590E-07  0.234E-04    1.28      66.0  T
   8    -83.7105211 -0.981771E-09  0.766E-05    1.28     201.5  T
   9    -83.7105211 -0.649294E-10  0.246E-05    1.28     627.5  T
     SCC iter.                  ...        0 min,  0.032 sec
     gradient                   ...        0 min,  0.085 sec
 * total energy  :   -82.9598940 Eh     change       -0.1356229E-02 Eh
   gradient norm :     0.0462311 Eh/α   predicted    -0.1121213E-02 ( -17.33%)
   displ. norm   :     0.7861894 α      lambda       -0.1073776E-01
   maximum displ.:     0.2452221 α      in ANC's #41, #7, #25, ...

........................................................................
.............................. CYCLE   41 ..............................
........................................................................
   1    -83.7654561 -0.837655E+02  0.321E-01    1.55       0.0  T
   2    -83.7695257 -0.406957E-02  0.101E-01    1.81       1.0  T
   3    -83.7696820 -0.156344E-03  0.523E-02    1.94       1.0  T
   4    -83.7697026 -0.205782E-04  0.252E-02    2.02       1.0  T
   5    -83.7697062 -0.354800E-05  0.518E-03    2.06       3.0  T
   6    -83.7697066 -0.443096E-06  0.187E-03    2.05       8.2  T
   7    -83.7697067 -0.565836E-07  0.611E-04    2.05      25.2  T
   8    -83.7697067 -0.843085E-08  0.186E-04    2.05      82.8  T
   9    -83.7697067 -0.395247E-09  0.670E-05    2.05     230.4  T
     SCC iter.                  ...        0 min,  0.034 sec
     gradient                   ...        0 min,  0.085 sec
 * total energy  :   -82.9534698 Eh     change        0.6424235E-02 Eh
   gradient norm :     0.1500087 Eh/α   predicted    -0.8687407E-02 (-235.23%)
   displ. norm   :     0.3830633 α      lambda       -0.3351535E-01
   maximum displ.:     0.1321602 α      in ANC's #25, #41, #10, ...

........................................................................
.............................. CYCLE   42 ..............................
........................................................................
   1    -83.7479847 -0.837480E+02  0.139E-01    1.96       0.0  T
   2    -83.7487650 -0.780382E-03  0.497E-02    1.85       1.0  T
   3    -83.7487850 -0.199326E-04  0.264E-02    1.81       1.0  T
   4    -83.7487873 -0.229210E-05  0.105E-02    1.78       1.5  T
   5    -83.7487885 -0.125070E-05  0.223E-03    1.77       6.9  T
   6    -83.7487886 -0.707697E-07  0.929E-04    1.77      16.6  T
   7    -83.7487886 -0.118535E-07  0.271E-04    1.77      56.9  T
   8    -83.7487886 -0.119687E-08  0.742E-05    1.77     208.1  T
   9    -83.7487886 -0.585203E-10  0.261E-05    1.77     590.8  T
     SCC iter.                  ...        0 min,  0.030 sec
     gradient                   ...        0 min,  0.085 sec
 * total energy  :   -82.9653183 Eh     change       -0.1184857E-01 Eh
   gradient norm :     0.0644750 Eh/α   predicted    -0.1921662E-01 (  62.19%)
   displ. norm   :     0.4379968 α      lambda       -0.9157707E-02
   maximum displ.:     0.2454631 α      in ANC's #2, #3, #6, ...
 * RMSD in coord.:     0.9396560 α      energy gain  -0.9446430E-02 Eh

generating ANC from model Hessian ...
Using Lindh-Hessian (1995)
 Shifting diagonal of input Hessian by   9.753223841859202E-003
 Lowest  eigenvalues of input Hessian
    0.000000    0.000000    0.000000    0.000000    0.000000    0.000000
    0.010000    0.010213    0.010448    0.011548    0.012112    0.012767
    0.013186    0.013957    0.014473    0.015588    0.017126    0.017316
 Highest eigenvalues
    2.002648    2.138051    2.182592    2.308399    2.324739    2.417960
 

........................................................................
.............................. CYCLE   43 ..............................
........................................................................
   1    -83.7183629 -0.837184E+02  0.106E-01    1.74       0.0  T
   2    -83.7186670 -0.304053E-03  0.484E-02    1.80       1.0  T
   3    -83.7186913 -0.243141E-04  0.276E-02    1.80       1.0  T
   4    -83.7186925 -0.122967E-05  0.583E-03    1.80       2.6  T
   5    -83.7186930 -0.422058E-06  0.127E-03    1.80      12.1  T
   6    -83.7186930 -0.494124E-07  0.374E-04    1.80      41.3  T
   7    -83.7186930 -0.297391E-08  0.128E-04    1.80     120.4  T
   8    -83.7186930 -0.159218E-09  0.364E-05    1.80     423.9  T
     SCC iter.                  ...        0 min,  0.027 sec
     gradient                   ...        0 min,  0.085 sec
 * total energy  :   -82.9674163 Eh     change       -0.2097982E-02 Eh
   gradient norm :     0.0529247 Eh/α   predicted     0.0000000E+00 (-100.00%)
   displ. norm   :     0.1784576 α      lambda       -0.4629999E-02
   maximum displ.:     0.0544112 α      in ANC's #18, #25, #28, ...

........................................................................
.............................. CYCLE   44 ..............................
........................................................................
   1    -83.7311185 -0.837311E+02  0.528E-02    1.82       0.0  T
   2    -83.7312040 -0.855608E-04  0.170E-02    1.84       1.0  T
   3    -83.7312080 -0.396404E-05  0.941E-03    1.86       1.6  T
   4    -83.7312085 -0.538491E-06  0.375E-03    1.87       4.1  T
   5    -83.7312086 -0.366064E-07  0.801E-04    1.87      19.3  T
   6    -83.7312086 -0.100752E-07  0.279E-04    1.87      55.3  T
   7    -83.7312086 -0.179902E-08  0.818E-05    1.87     188.6  T
   8    -83.7312086 -0.156575E-09  0.239E-05    1.87     646.5  T
     SCC iter.                  ...        0 min,  0.027 sec
     gradient                   ...        0 min,  0.085 sec
 * total energy  :   -82.9710596 Eh     change       -0.3643250E-02 Eh
   gradient norm :     0.0339507 Eh/α   predicted    -0.2388967E-02 ( -34.43%)
   displ. norm   :     0.3503976 α      lambda       -0.6349957E-02
   maximum displ.:     0.1204623 α      in ANC's #18, #63, #28, ...

........................................................................
.............................. CYCLE   45 ..............................
........................................................................
   1    -83.7463210 -0.837463E+02  0.101E-01    1.91       0.0  T
   2    -83.7466519 -0.330931E-03  0.260E-02    1.98       1.0  T
   3    -83.7466659 -0.139378E-04  0.134E-02    2.02       1.1  T
   4    -83.7466680 -0.215308E-05  0.653E-03    2.04       2.4  T
   5    -83.7466683 -0.253233E-06  0.195E-03    2.05       7.9  T
   6    -83.7466683 -0.413872E-07  0.668E-04    2.05      23.1  T
   7    -83.7466683 -0.927147E-08  0.188E-04    2.05      82.1  T
   8    -83.7466683 -0.727255E-09  0.534E-05    2.05     289.2  T
     SCC iter.                  ...        0 min,  0.027 sec
     gradient                   ...        0 min,  0.085 sec
 * total energy  :   -82.9761693 Eh     change       -0.5109692E-02 Eh
   gradient norm :     0.0435502 Eh/α   predicted    -0.3566123E-02 ( -30.21%)
   displ. norm   :     0.5544709 α      lambda       -0.9161919E-02
   maximum displ.:     0.1791712 α      in ANC's #18, #63, #69, ...

........................................................................
.............................. CYCLE   46 ..............................
........................................................................
   1    -83.7620246 -0.837620E+02  0.995E-02    2.09       0.0  T
   2    -83.7623465 -0.321882E-03  0.307E-02    2.19       1.0  T
   3    -83.7623688 -0.223096E-04  0.161E-02    2.23       1.0  T
   4    -83.7623727 -0.394603E-05  0.790E-03    2.25       2.0  T
   5    -83.7623732 -0.431420E-06  0.266E-03    2.27       5.8  T
   6    -83.7623732 -0.491592E-07  0.819E-04    2.27      18.8  T
   7    -83.7623732 -0.143029E-07  0.199E-04    2.26      77.4  T
   8    -83.7623732 -0.943231E-09  0.584E-05    2.26     264.4  T
     SCC iter.                  ...        0 min,  0.027 sec
     gradient                   ...        0 min,  0.084 sec
 * total energy  :   -82.9832882 Eh     change       -0.7118955E-02 Eh
   gradient norm :     0.0583281 Eh/α   predicted    -0.5989328E-02 ( -15.87%)
   displ. norm   :     0.4870209 α      lambda       -0.6793134E-02
   maximum displ.:     0.1705551 α      in ANC's #18, #63, #22, ...

........................................................................
.............................. CYCLE   47 ..............................
........................................................................
   1    -83.7634978 -0.837635E+02  0.476E-02    2.29       0.0  T
   2    -83.7636130 -0.115199E-03  0.211E-02    2.34       1.0  T
   3    -83.7636243 -0.112793E-04  0.109E-02    2.35       1.4  T
   4    -83.7636251 -0.822269E-06  0.470E-03    2.36       3.3  T
   5    -83.7636253 -0.127419E-06  0.145E-03    2.36      10.6  T
   6    -83.7636253 -0.190770E-07  0.409E-04    2.36      37.7  T
   7    -83.7636253 -0.353972E-08  0.894E-05    2.36     172.6  T
   8    -83.7636253 -0.250367E-09  0.255E-05    2.36     605.3  T
     SCC iter.                  ...        0 min,  0.027 sec
     gradient                   ...        0 min,  0.075 sec
 * total energy  :   -82.9878004 Eh     change       -0.4512157E-02 Eh
   gradient norm :     0.0440015 Eh/α   predicted    -0.4202206E-02 (  -6.87%)
   displ. norm   :     0.2757196 α      lambda       -0.3094412E-02
   maximum displ.:     0.1231682 α      in ANC's #18, #2, #6, ...

........................................................................
.............................. CYCLE   48 ..............................
........................................................................
   1    -83.7613491 -0.837613E+02  0.343E-02    2.37       0.0  T
   2    -83.7613909 -0.418363E-04  0.166E-02    2.40       1.0  T
   3    -83.7613943 -0.338607E-05  0.909E-03    2.40       1.7  T
   4    -83.7613944 -0.138897E-06  0.207E-03    2.40       7.5  T
   5    -83.7613945 -0.412412E-07  0.552E-04    2.40      27.9  T
   6    -83.7613945 -0.628748E-08  0.150E-04    2.40     103.1  T
   7    -83.7613945 -0.373461E-09  0.459E-05    2.40     336.3  T
     SCC iter.                  ...        0 min,  0.024 sec
     gradient                   ...        0 min,  0.062 sec
 * total energy  :   -82.9899242 Eh     change       -0.2123868E-02 Eh
   gradient norm :     0.0183632 Eh/α   predicted    -0.1664855E-02 ( -21.61%)
   displ. norm   :     0.3078820 α      lambda       -0.1493103E-02
   maximum displ.:     0.1404530 α      in ANC's #18, #2, #6, ...

........................................................................
.............................. CYCLE   49 ..............................
........................................................................
   1    -83.7594982 -0.837595E+02  0.352E-02    2.38       0.0  T
   2    -83.7595631 -0.648399E-04  0.109E-02    2.43       1.4  T
   3    -83.7595656 -0.246683E-05  0.549E-03    2.42       2.8  T
   4    -83.7595657 -0.997955E-07  0.253E-03    2.43       6.1  T
   5    -83.7595657 -0.422406E-07  0.501E-04    2.43      30.8  T
   6    -83.7595657 -0.366288E-08  0.173E-04    2.43      89.0  T
   7    -83.7595657 -0.388013E-09  0.525E-05    2.43     293.7  T
     SCC iter.                  ...        0 min,  0.017 sec
     gradient                   ...        0 min,  0.045 sec
 * total energy  :   -82.9909625 Eh     change       -0.1038235E-02 Eh
   gradient norm :     0.0128423 Eh/α   predicted    -0.8174073E-03 ( -21.27%)
   displ. norm   :     0.3991533 α      lambda       -0.1106458E-02
   maximum displ.:     0.1579210 α      in ANC's #18, #2, #5, ...

........................................................................
.............................. CYCLE   50 ..............................
........................................................................
   1    -83.7615091 -0.837615E+02  0.235E-02    2.47       0.0  T
   2    -83.7615283 -0.192799E-04  0.857E-03    2.49       1.8  T
   3    -83.7615294 -0.104970E-05  0.465E-03    2.49       3.3  T
   4    -83.7615295 -0.773459E-07  0.168E-03    2.49       9.2  T
   5    -83.7615295 -0.338833E-07  0.303E-04    2.49      50.9  T
   6    -83.7615295 -0.125907E-08  0.108E-04    2.49     142.9  T
   7    -83.7615295 -0.200018E-09  0.349E-05    2.49     441.9  T
     SCC iter.                  ...        0 min,  0.017 sec
     gradient                   ...        0 min,  0.045 sec
 * total energy  :   -82.9917984 Eh     change       -0.8359575E-03 Eh
   gradient norm :     0.0152572 Eh/α   predicted    -0.6413745E-03 ( -23.28%)
   displ. norm   :     0.5632732 α      lambda       -0.1295550E-02
   maximum displ.:     0.2146438 α      in ANC's #2, #18, #3, ...

........................................................................
.............................. CYCLE   51 ..............................
........................................................................
   1    -83.7587431 -0.837587E+02  0.567E-02    2.50       0.0  T
   2    -83.7588961 -0.152979E-03  0.121E-02    2.57       1.3  T
   3    -83.7589028 -0.667031E-05  0.484E-03    2.56       3.2  T
   4    -83.7589030 -0.290981E-06  0.261E-03    2.57       5.9  T
   5    -83.7589031 -0.446855E-07  0.670E-04    2.57      23.0  T
   6    -83.7589031 -0.385087E-08  0.252E-04    2.57      61.3  T
   7    -83.7589031 -0.917680E-09  0.829E-05    2.57     186.2  T
   8    -83.7589031 -0.154614E-09  0.184E-05    2.57     836.5  T
     SCC iter.                  ...        0 min,  0.020 sec
     gradient                   ...        0 min,  0.045 sec
 * total energy  :   -82.9927796 Eh     change       -0.9811467E-03 Eh
   gradient norm :     0.0232880 Eh/α   predicted    -0.8533582E-03 ( -13.02%)
   displ. norm   :     0.5528479 α      lambda       -0.1317865E-02
   maximum displ.:     0.2260512 α      in ANC's #3, #2, #5, ...

........................................................................
.............................. CYCLE   52 ..............................
........................................................................
   1    -83.7634340 -0.837634E+02  0.303E-02    2.63       0.0  T
   2    -83.7634631 -0.291243E-04  0.952E-03    2.65       1.6  T
   3    -83.7634650 -0.189022E-05  0.529E-03    2.65       2.9  T
   4    -83.7634652 -0.160932E-06  0.214E-03    2.65       7.2  T
   5    -83.7634652 -0.459415E-07  0.350E-04    2.65      44.1  T
   6    -83.7634652 -0.223655E-08  0.136E-04    2.65     113.7  T
   7    -83.7634652 -0.372282E-09  0.522E-05    2.65     295.4  T
     SCC iter.                  ...        0 min,  0.017 sec
     gradient                   ...        0 min,  0.045 sec
 * total energy  :   -82.9937855 Eh     change       -0.1005875E-02 Eh
   gradient norm :     0.0165384 Eh/α   predicted    -0.8603302E-03 ( -14.47%)
   displ. norm   :     0.5487162 α      lambda       -0.1201603E-02
   maximum displ.:     0.2506778 α      in ANC's #3, #2, #5, ...

........................................................................
.............................. CYCLE   53 ..............................
........................................................................
   1    -83.7652553 -0.837653E+02  0.498E-02    2.67       0.0  T
   2    -83.7653671 -0.111805E-03  0.132E-02    2.70       1.2  T
   3    -83.7653743 -0.719769E-05  0.521E-03    2.70       3.0  T
   4    -83.7653745 -0.253698E-06  0.272E-03    2.71       5.7  T
   5    -83.7653746 -0.503935E-07  0.605E-04    2.71      25.5  T
   6    -83.7653746 -0.395454E-08  0.236E-04    2.71      65.3  T
   7    -83.7653746 -0.727582E-09  0.801E-05    2.71     192.6  T
   8    -83.7653746 -0.128921E-09  0.190E-05    2.71     812.5  T
     SCC iter.                  ...        0 min,  0.019 sec
     gradient                   ...        0 min,  0.045 sec
 * total energy  :   -82.9946962 Eh     change       -0.9106929E-03 Eh
   gradient norm :     0.0154523 Eh/α   predicted    -0.7816964E-03 ( -14.16%)
   displ. norm   :     0.5010853 α      lambda       -0.1068938E-02
   maximum displ.:     0.2609125 α      in ANC's #3, #2, #9, ...

........................................................................
.............................. CYCLE   54 ..............................
........................................................................
   1    -83.7705216 -0.837705E+02  0.337E-02    2.75       0.0  T
   2    -83.7705710 -0.494029E-04  0.112E-02    2.76       1.4  T
   3    -83.7705741 -0.312810E-05  0.542E-03    2.76       2.8  T
   4    -83.7705742 -0.822422E-07  0.258E-03    2.76       6.0  T
   5    -83.7705743 -0.596305E-07  0.475E-04    2.77      32.5  T
   6    -83.7705743 -0.371605E-08  0.173E-04    2.77      89.1  T
   7    -83.7705743 -0.512870E-09  0.655E-05    2.77     235.8  T
     SCC iter.                  ...        0 min,  0.017 sec
     gradient                   ...        0 min,  0.045 sec
 * total energy  :   -82.9955249 Eh     change       -0.8287816E-03 Eh
   gradient norm :     0.0138888 Eh/α   predicted    -0.6686674E-03 ( -19.32%)
   displ. norm   :     0.5938773 α      lambda       -0.1076679E-02
   maximum displ.:     0.3161212 α      in ANC's #3, #2, #9, ...

........................................................................
.............................. CYCLE   55 ..............................
........................................................................
   1    -83.7690520 -0.837691E+02  0.512E-02    2.80       0.0  T
   2    -83.7691780 -0.126010E-03  0.156E-02    2.82       1.0  T
   3    -83.7691878 -0.974432E-05  0.497E-03    2.82       3.1  T
   4    -83.7691880 -0.196800E-06  0.278E-03    2.82       5.5  T
   5    -83.7691880 -0.652126E-07  0.700E-04    2.82      22.0  T
   6    -83.7691880 -0.323195E-08  0.262E-04    2.82      58.9  T
   7    -83.7691880 -0.754198E-09  0.879E-05    2.82     175.5  T
   8    -83.7691880 -0.145661E-09  0.231E-05    2.82     669.0  T
     SCC iter.                  ...        0 min,  0.019 sec
     gradient                   ...        0 min,  0.045 sec
 * total energy  :   -82.9963981 Eh     change       -0.8731821E-03 Eh
   gradient norm :     0.0179621 Eh/α   predicted    -0.7282112E-03 ( -16.60%)
   displ. norm   :     0.5571757 α      lambda       -0.1314090E-02
   maximum displ.:     0.3093605 α      in ANC's #3, #9, #2, ...

........................................................................
.............................. CYCLE   56 ..............................
........................................................................
   1    -83.7724196 -0.837724E+02  0.259E-02    2.84       0.0  T
   2    -83.7724451 -0.255788E-04  0.131E-02    2.84       1.2  T
   3    -83.7724475 -0.231036E-05  0.745E-03    2.84       2.1  T
   4    -83.7724475 -0.612010E-07  0.222E-03    2.84       7.0  T
   5    -83.7724476 -0.515613E-07  0.410E-04    2.84      37.7  T
   6    -83.7724476 -0.388378E-08  0.138E-04    2.84     111.6  T
   7    -83.7724476 -0.249329E-09  0.462E-05    2.84     333.9  T
     SCC iter.                  ...        0 min,  0.017 sec
     gradient                   ...        0 min,  0.045 sec
 * total energy  :   -82.9972286 Eh     change       -0.8305016E-03 Eh
   gradient norm :     0.0142553 Eh/α   predicted    -0.8610220E-03 (   3.67%)
   displ. norm   :     0.5687260 α      lambda       -0.9146433E-03
   maximum displ.:     0.3363901 α      in ANC's #3, #2, #9, ...

........................................................................
.............................. CYCLE   57 ..............................
........................................................................
   1    -83.7667052 -0.837667E+02  0.610E-02    2.84       0.0  T
   2    -83.7668880 -0.182817E-03  0.201E-02    2.85       1.0  T
   3    -83.7669052 -0.171791E-04  0.546E-03    2.85       2.8  T
   4    -83.7669054 -0.248209E-06  0.328E-03    2.85       4.7  T
   5    -83.7669055 -0.822487E-07  0.833E-04    2.85      18.5  T
   6    -83.7669055 -0.441490E-08  0.291E-04    2.85      53.0  T
   7    -83.7669055 -0.113602E-08  0.100E-04    2.85     153.6  T
   8    -83.7669055 -0.192088E-09  0.254E-05    2.85     607.7  T
     SCC iter.                  ...        0 min,  0.020 sec
     gradient                   ...        0 min,  0.045 sec
 * total energy  :   -82.9977221 Eh     change       -0.4934478E-03 Eh
   gradient norm :     0.0224178 Eh/α   predicted    -0.6052455E-03 (  22.66%)
   displ. norm   :     0.1897784 α      lambda       -0.5250102E-03
   maximum displ.:     0.1298516 α      in ANC's #3, #2, #9, ...

........................................................................
.............................. CYCLE   58 ..............................
........................................................................
   1    -83.7700643 -0.837701E+02  0.142E-02    2.84       0.0  T
   2    -83.7700716 -0.737023E-05  0.678E-03    2.84       2.3  T
   3    -83.7700722 -0.526233E-06  0.381E-03    2.84       4.1  T
   4    -83.7700722 -0.130639E-07  0.100E-03    2.84      15.4  T
   5    -83.7700722 -0.118371E-07  0.167E-04    2.84      92.3  T
   6    -83.7700722 -0.104939E-08  0.457E-05    2.84     337.6  T
     SCC iter.                  ...        0 min,  0.015 sec
     gradient                   ...        0 min,  0.045 sec
 * total energy  :   -82.9981103 Eh     change       -0.3882566E-03 Eh
   gradient norm :     0.0126792 Eh/α   predicted    -0.2719645E-03 ( -29.95%)
   displ. norm   :     0.3786082 α      lambda       -0.6084511E-03
   maximum displ.:     0.2591897 α      in ANC's #3, #2, #9, ...

........................................................................
.............................. CYCLE   59 ..............................
........................................................................
   1    -83.7745652 -0.837746E+02  0.197E-02    2.85       0.0  T
   2    -83.7745800 -0.148586E-04  0.898E-03    2.85       1.7  T
   3    -83.7745820 -0.193754E-05  0.459E-03    2.85       3.4  T
   4    -83.7745820 -0.305172E-07  0.138E-03    2.85      11.2  T
   5    -83.7745820 -0.290299E-07  0.223E-04    2.85      69.1  T
   6    -83.7745820 -0.859401E-09  0.923E-05    2.85     167.1  T
   7    -83.7745820 -0.169507E-09  0.331E-05    2.85     465.8  T
     SCC iter.                  ...        0 min,  0.017 sec
     gradient                   ...        0 min,  0.045 sec
 * total energy  :   -82.9985392 Eh     change       -0.4289117E-03 Eh
   gradient norm :     0.0099866 Eh/α   predicted    -0.3478368E-03 ( -18.90%)
   displ. norm   :     0.4241368 α      lambda       -0.4877837E-03
   maximum displ.:     0.3072038 α      in ANC's #3, #2, #9, ...

........................................................................
.............................. CYCLE   60 ..............................
........................................................................
   1    -83.7747423 -0.837747E+02  0.199E-02    2.85       0.0  T
   2    -83.7747569 -0.146177E-04  0.675E-03    2.85       2.3  T
   3    -83.7747584 -0.153753E-05  0.314E-03    2.85       4.9  T
   4    -83.7747585 -0.401684E-07  0.124E-03    2.85      12.4  T
   5    -83.7747585 -0.174654E-07  0.225E-04    2.85      68.6  T
   6    -83.7747585 -0.679435E-09  0.895E-05    2.85     172.4  T
   7    -83.7747585 -0.136836E-09  0.347E-05    2.85     444.8  T
     SCC iter.                  ...        0 min,  0.017 sec
     gradient                   ...        0 min,  0.045 sec
 * total energy  :   -82.9988990 Eh     change       -0.3597413E-03 Eh
   gradient norm :     0.0100385 Eh/α   predicted    -0.2877668E-03 ( -20.01%)
   displ. norm   :     0.4173980 α      lambda       -0.5318774E-03
   maximum displ.:     0.2676622 α      in ANC's #3, #6, #2, ...

........................................................................
.............................. CYCLE   61 ..............................
........................................................................
   1    -83.7793179 -0.837793E+02  0.215E-02    2.84       0.0  T
   2    -83.7793349 -0.170366E-04  0.847E-03    2.85       1.8  T
[...]
N21-C7-C8=117.11               C9-C8-C7=109.81                C10-C8-C7=108.10               C10-C8-C9=107.68               
N11-C8-C7=107.92               N11-C8-C9=109.19               N11-C8-C10=114.10              H29-C9-C8=108.77               
H30-C9-C8=109.89               H30-C9-H29=109.18              H31-C9-C8=111.63               H31-C9-H29=107.79              
H31-C9-H30=109.53              H32-C10-C8=111.72              H33-C10-C8=108.12              H33-C10-H32=107.65             
H34-C10-C8=110.77              H34-C10-H32=109.88             H34-C10-H33=108.58             
 
 selected dihedral angles (degree)
 ---------------------------------
C3-O2-C1-H26=174.94           C3-O2-C1-H27=294.56           C3-O2-C1-H28= 55.10           O4-C3-O2-C1=359.70            
C5-C3-O2-C1=179.73            N6-C5-C3-O2=359.25            N6-C5-C3-O4=179.28            C24-C5-C3-O2=179.63           
C24-C5-C3-O4=359.66           C7-N6-C5-C3=180.49            C7-N6-C5-C24=  0.10           C8-C7-N6-C5=177.30            
N21-C7-N6-C5=359.84           C9-C8-C7-N6= 17.86            C9-C8-C7-N21=195.45           C10-C8-C7-N6=260.65           
C10-C8-C7-N21= 78.24          N11-C8-C7-N6=136.78           N11-C8-C7-N21=314.38          H29-C9-C8-C7=295.23           
H29-C9-C8-C10= 52.71          H29-C9-C8-N11=177.09          H30-C9-C8-C7=175.76           H30-C9-C8-C10=293.24          
H30-C9-C8-N11= 57.63          H31-C9-C8-C7= 54.04           H31-C9-C8-C10=171.52          H31-C9-C8-N11=295.90          
H32-C10-C8-C7=315.00          H32-C10-C8-C9=196.42          H32-C10-C8-N11= 75.05         H33-C10-C8-C7= 73.28          
H33-C10-C8-C9=314.70          H33-C10-C8-N11=193.33         H34-C10-C8-C7=192.15          H34-C10-C8-C9= 73.57          
H34-C10-C8-N11=312.20         
           -------------------------------------------------
          |                Final Singlepoint                |
           -------------------------------------------------

          ...................................................
          :                      SETUP                      :
          :.................................................:
          :  # basis functions                 134          :
          :  # atomic orbitals                 134          :
          :  # shells                           84          :
          :  # electrons                       134          :
          :  # halogen bonds                     0          :
          :  max. iterations                   250          :
          :  Hamiltonian                  GFN1-xTB          :
          :  restarted?                      false          :
          :  GBSA solvation                   true          :
          :  PC potential                    false          :
          :  electronic temp.          300.0000000     K    :
          :  accuracy                    1.0000000          :
          :  -> integral cutoff          0.2500000E+02      :
          :  -> integral neglect         0.1000000E-07      :
          :  -> SCF convergence          0.1000000E-05 Eh   :
          :  -> wf. convergence          0.2000000E-04 e    :
          :  Broyden damping             0.4000000          :
          ...................................................

 iter      E             dE          RMSdq      gap      omega  full diag
   1    -83.7777372 -0.837777E+02  0.208E-05    2.85       0.0  T
   2    -83.7777372 -0.588329E-11  0.805E-06    2.85    1917.3  T
   3    -83.7777372 -0.137845E-11  0.600E-06    2.85    2573.1  T

   *** convergence criteria satisfied after 3 iterations ***

         #    Occupation            Energy/Eh            Energy/eV
      -------------------------------------------------------------
         1        2.0000           -0.8674349             -23.6041
       ...           ...                  ...                  ...
        61        2.0000           -0.4686393             -12.7523
        62        2.0000           -0.4641282             -12.6296
        63        2.0000           -0.4549888             -12.3809
        64        2.0000           -0.4543199             -12.3627
        65        2.0000           -0.4493426             -12.2272
        66        2.0000           -0.4390480             -11.9471
        67        2.0000           -0.4314665             -11.7408 (HOMO)
        68                         -0.3266429              -8.8884 (LUMO)
        69                         -0.3030402              -8.2461
        70                         -0.2860167              -7.7829
        71                         -0.2581873              -7.0256
        72                         -0.2429762              -6.6117
       ...                                ...                  ...
       134                          0.7229583              19.6727
      -------------------------------------------------------------
                  HL-Gap            0.1048237 Eh            2.8524 eV
             Fermi-level           -0.3790547 Eh          -10.3146 eV

 SCC (total)                   0 d,  0 h,  0 min,  0.074 sec
 SCC setup                      ...        0 min,  0.001 sec (  1.654%)
 Dispersion                     ...        0 min,  0.000 sec (  0.281%)
 classical contributions        ...        0 min,  0.000 sec (  0.129%)
 integral evaluation            ...        0 min,  0.020 sec ( 26.427%)
 iterations                     ...        0 min,  0.008 sec ( 10.423%)
 molecular gradient             ...        0 min,  0.045 sec ( 60.473%)
 printout                       ...        0 min,  0.000 sec (  0.572%)

         :::::::::::::::::::::::::::::::::::::::::::::::::::::
         ::                     SUMMARY                     ::
         :::::::::::::::::::::::::::::::::::::::::::::::::::::
         :: total energy             -83.000421719202 Eh    ::
         :: total w/o Gsasa/hb       -82.979479094203 Eh    ::
         :: gradient norm              0.000831578512 Eh/a0 ::
         :: HOMO-LUMO gap              2.852397657813 eV    ::
         ::.................................................::
         :: SCC energy               -83.777737191616 Eh    ::
         :: -> electrostatic           0.349390250467 Eh    ::
         :: -> Gsolv                  -0.052181988791 Eh    ::
         ::    -> Gelec               -0.031239363792 Eh    ::
         ::    -> Gsasa               -0.023211111747 Eh    ::
         ::    -> Ghb                 -0.005355792257 Eh    ::
         ::    -> Gshift               0.007624279005 Eh    ::
         :: repulsion energy           0.805392468447 Eh    ::
         :: dispersion energy         -0.028076996033 Eh    ::
         :: halogen bond corr.         0.000000000000 Eh    ::
         :: add. restraining           0.000000000000 Eh    ::
         :: total charge              -0.000000000000 e     ::
         :::::::::::::::::::::::::::::::::::::::::::::::::::::

           -------------------------------------------------
          |                Property Printout                |
           -------------------------------------------------

    * Orbital Energies and Occupations

         #    Occupation            Energy/Eh            Energy/eV
      -------------------------------------------------------------
         1        2.0000           -0.8674349             -23.6041
       ...           ...                  ...                  ...
        55        2.0000           -0.5039319             -13.7127
        56        2.0000           -0.5021640             -13.6646
        57        2.0000           -0.5001481             -13.6097
        58        2.0000           -0.4911764             -13.3656
        59        2.0000           -0.4877155             -13.2714
        60        2.0000           -0.4814786             -13.1017
        61        2.0000           -0.4686393             -12.7523
        62        2.0000           -0.4641282             -12.6296
        63        2.0000           -0.4549888             -12.3809
        64        2.0000           -0.4543199             -12.3627
        65        2.0000           -0.4493426             -12.2272
        66        2.0000           -0.4390480             -11.9471
        67        2.0000           -0.4314665             -11.7408 (HOMO)
        68                         -0.3266429              -8.8884 (LUMO)
        69                         -0.3030402              -8.2461
        70                         -0.2860167              -7.7829
        71                         -0.2581873              -7.0256
        72                         -0.2429762              -6.6117
        73                         -0.2303757              -6.2688
        74                         -0.1606804              -4.3723
        75                         -0.1438166              -3.9134
        76                         -0.1394962              -3.7959
        77                         -0.1380083              -3.7554
        78                         -0.1309421              -3.5631
       ...                                ...                  ...
       134                          0.7229583              19.6727
      -------------------------------------------------------------
                  HL-Gap            0.1048237 Eh            2.8524 eV
             Fermi-level           -0.3790547 Eh          -10.3146 eV

  Mulliken/CM5 charges         n(s)   n(p)   n(d)
     1C     0.16136  0.04054   0.982  2.857  0.000
     2O    -0.40052 -0.48334   1.682  4.719  0.000
     3C     0.57452  0.63917   0.969  2.456  0.000
     4O    -0.57135 -0.63583   1.726  4.845  0.000
     5C     0.06252  0.13842   1.042  2.895  0.000
     6N    -0.36838 -0.55373   1.528  3.841  0.000
     7C     0.28123  0.43325   1.018  2.701  0.000
     8C     0.13873  0.17926   1.070  2.792  0.000
     9C    -0.10203 -0.24228   1.021  3.081  0.000
    10C    -0.11543 -0.25559   1.024  3.091  0.000
    11N    -0.27986 -0.53452   1.454  3.826  0.000
    12C     0.05559 -0.03417   0.992  2.953  0.000
    13C     0.46354  0.57294   0.984  2.553  0.000
    14O    -0.56867 -0.61080   1.729  4.840  0.000
    15C     0.33620  0.46009   1.011  2.653  0.000
    16N    -0.23205 -0.33855   1.565  3.667  0.000
    17N    -0.26718 -0.37624   1.564  3.703  0.000
    18C     0.38764  0.49604   1.007  2.606  0.000
    19C    -0.10929 -0.24677   1.011  3.098  0.000
    20O    -0.36206 -0.42696   1.701  4.662  0.000
    21N    -0.28827 -0.63259   1.437  3.851  0.000
    22C     0.45883  0.56139   0.981  2.560  0.000
    23O    -0.56891 -0.60754   1.725  4.844  0.000
    24C     0.23700  0.27140   1.031  2.732  0.000
    25O    -0.50366 -0.69197   1.695  4.809  0.000
    26H     0.05643  0.11676   0.944  0.000  0.000
    27H     0.05624  0.11751   0.944  0.000  0.000
    28H     0.05728  0.11954   0.943  0.000  0.000
    29H     0.05408  0.11162   0.946  0.000  0.000
    30H     0.05389  0.10988   0.946  0.000  0.000
    31H     0.05171  0.11066   0.948  0.000  0.000
    32H     0.05570  0.12221   0.944  0.000  0.000
    33H     0.06118  0.11638   0.939  0.000  0.000
    34H     0.05561  0.11526   0.944  0.000  0.000
    35H     0.27473  0.48553   0.725  0.000  0.000
    36H     0.05709  0.12028   0.943  0.000  0.000
    37H     0.04483  0.11088   0.955  0.000  0.000
    38H     0.06718  0.13517   0.933  0.000  0.000
    39H     0.07673  0.13121   0.923  0.000  0.000
    40H     0.07883  0.13346   0.921  0.000  0.000
    41H     0.06989  0.12568   0.930  0.000  0.000
    42H     0.40911  0.59638   0.591  0.000  0.000

Wiberg/Mayer (AO) data.
largest (>0.10) Wiberg bond orders for each atom

 ---------------------------------------------------------------------------
     #   Z sym  total        # sym  WBO       # sym  WBO       # sym  WBO
 ---------------------------------------------------------------------------
     1   6 C    3.866 --    26 H    0.986    28 H    0.979    27 H    0.979
                             2 O    0.892
     2   8 O    2.217 --     3 C    1.136     1 C    0.892     4 O    0.130
     3   6 C    3.849 --     4 O    1.606     2 O    1.136     5 C    1.020
     4   8 O    1.944 --     3 C    1.606     2 O    0.130
     5   6 C    3.963 --    24 C    1.488     6 N    1.172     3 C    1.020
     6   7 N    3.024 --     7 C    1.592     5 C    1.172
     7   6 C    3.934 --     6 N    1.592    21 N    1.174     8 C    0.972
     8   6 C    3.939 --     9 C    0.990    10 C    0.984     7 C    0.972
                            11 N    0.916
     9   6 C    3.989 --     8 C    0.990    30 H    0.985    31 H    0.981
                            29 H    0.980
    10   6 C    3.988 --     8 C    0.984    32 H    0.981    33 H    0.980
                            34 H    0.979
    11   7 N    3.364 --    13 C    1.251    12 C    0.936     8 C    0.916
                            14 O    0.174
    12   6 C    3.936 --    37 H    0.985    36 H    0.981    38 H    0.980
                            11 N    0.936
    13   6 C    3.915 --    14 O    1.596    11 N    1.251    15 C    0.966
    14   8 O    1.906 --    13 C    1.596    11 N    0.174
    15   6 C    3.873 --    16 N    1.647    20 O    1.042    13 C    0.966
    16   7 N    2.997 --    15 C    1.647    17 N    1.179
    17   7 N    2.983 --    18 C    1.634    16 N    1.179
    18   6 C    3.867 --    17 N    1.634    20 O    1.054    19 C    1.031
    19   6 C    3.986 --    18 C    1.031    41 H    0.982    40 H    0.965
                            39 H    0.963
    20   8 O    2.316 --    18 C    1.054    15 C    1.042
    21   7 N    3.466 --     7 C    1.174    22 C    1.122    35 H    0.877
                            23 O    0.135
    22   6 C    3.908 --    23 O    1.605    21 N    1.122    24 C    1.052
    23   8 O    1.903 --    22 C    1.605    21 N    0.135
    24   6 C    3.921 --     5 C    1.488    25 O    1.130    22 C    1.052
    25   8 O    2.097 --    24 C    1.130    42 H    0.775
    26   1 H    1.010 --     1 C    0.986
    27   1 H    1.005 --     1 C    0.979
    28   1 H    1.006 --     1 C    0.979
    29   1 H    1.008 --     9 C    0.980
    30   1 H    0.998 --     9 C    0.985
    31   1 H    1.005 --     9 C    0.981
    32   1 H    1.005 --    10 C    0.981
    33   1 H    1.001 --    10 C    0.980
    34   1 H    1.001 --    10 C    0.979
    35   1 H    0.944 --    21 N    0.877
    36   1 H    1.002 --    12 C    0.981
    37   1 H    1.003 --    12 C    0.985
    38   1 H    1.006 --    12 C    0.980
    39   1 H    0.998 --    19 C    0.963
    40   1 H    0.997 --    19 C    0.965
    41   1 H    0.998 --    19 C    0.982
    42   1 H    0.851 --    25 O    0.775
 ---------------------------------------------------------------------------

Topologies differ in total number of bonds
Writing topology from bond orders to xtbtopo.mol

 dipole moment from electron density (au)
     X       Y       Z   
   2.2581   2.3434  -0.0359  total (Debye):    8.272

           -------------------------------------------------
          |                Geometry Summary                 |
           -------------------------------------------------

      molecular mass/u    :      351.3152409
   center of mass at/Å    :       -0.1071358      -0.2769150       0.1717239
  moments of inertia/u·Å² :        0.1277502E+04   0.3788627E+04   0.4392444E+04
rotational constants/cm⁻¹ :        0.1319577E-01   0.4449536E-02   0.3837871E-02

 * 38 selected distances

     #   Z          #   Z                                           value/Å
     1   6 C        2   8 O                                       1.4317959
     2   8 O        3   6 C                                       1.3246255
     3   6 C        4   8 O                                       1.2190673
     5   6 C        6   7 N                                       1.3737450
     6   7 N        7   6 C                                       1.2884806
     8   6 C        9   6 C                                       1.5377545 (max)
     8   6 C       10   6 C                                       1.5341368
     8   6 C       11   7 N                                       1.4753747
    11   7 N       12   6 C                                       1.4713396
    11   7 N       13   6 C                                       1.3572889
    13   6 C       14   8 O                                       1.2226861
    15   6 C       16   7 N                                       1.2932926
    17   7 N       18   6 C                                       1.2931376
    18   6 C       19   6 C                                       1.4793127
    15   6 C       20   8 O                                       1.3535352
    18   6 C       20   8 O                                       1.3489778
     7   6 C       21   7 N                                       1.3619851
    21   7 N       22   6 C                                       1.3813444
    22   6 C       23   8 O                                       1.2174816
     5   6 C       24   6 C                                       1.3741561
    24   6 C       25   8 O                                       1.3326004
     1   6 C       26   1 H                                       1.0879851
     1   6 C       27   1 H                                       1.0922758
     1   6 C       28   1 H                                       1.0922353
     9   6 C       29   1 H                                       1.0886628
     9   6 C       30   1 H                                       1.0882303
     9   6 C       31   1 H                                       1.0872342
    10   6 C       32   1 H                                       1.0857501
    10   6 C       33   1 H                                       1.0892444
    10   6 C       34   1 H                                       1.0883341
    21   7 N       35   1 H                                       1.0129627
    12   6 C       36   1 H                                       1.0906637
    12   6 C       37   1 H                                       1.0873330
    12   6 C       38   1 H                                       1.0896253
    19   6 C       39   1 H                                       1.0899190
    19   6 C       40   1 H                                       1.0898514
    19   6 C       41   1 H                                       1.0873072
    25   8 O       42   1 H                                       0.9853628 (min)

 * 6 distinct bonds (by element types)

   Z      Z             #   av. dist./Å        max./Å        min./Å
   1 H    6 C          15     1.0889768     1.0922758     1.0857501
   6 C    6 C           4     1.4813400     1.5377545     1.3741561
   1 H    7 N           1     1.0129627     1.0129627     1.0129627
   6 C    7 N           9     1.3662210     1.4753747     1.2884806
   1 H    8 O           1     0.9853628     0.9853628     0.9853628
   6 C    8 O           8     1.3063462     1.4317959     1.2174816


optimized geometry written to: xtbopt.xyz


           -------------------------------------------------
          | TOTAL ENERGY              -83.000421719202 Eh   |
          | GRADIENT NORM               0.000831578512 Eh/α |
          | HOMO-LUMO GAP               2.852397657813 eV   |
           -------------------------------------------------

------------------------------------------------------------------------
 * finished run on 2023/06/20 at 18:29:38.985     
------------------------------------------------------------------------
 total:
 * wall-time:     0 d,  0 h,  0 min,  9.688 sec
 *  cpu-time:     0 d,  0 h,  0 min,  9.438 sec
 * ratio c/w:     0.974 speedup
 SCF:
 * wall-time:     0 d,  0 h,  0 min,  0.349 sec
 *  cpu-time:     0 d,  0 h,  0 min,  0.188 sec
 * ratio c/w:     0.538 speedup
 ANC optimizer:
 * wall-time:     0 d,  0 h,  0 min,  9.255 sec
 *  cpu-time:     0 d,  0 h,  0 min,  9.217 sec
 * ratio c/w:     0.996 speedup

