42
 energy: -83.650248266117 gnorm: 0.000414542920 xtb: 6.5.1 (579679a)
C            5.67025245593325        1.50735342334369        1.65542076923924
O            4.50414406270721        1.09922594753080        0.96031862167348
C            4.57576514384802        1.17247605302034       -0.41001090817332
O            5.59885140385684        1.58048818431919       -0.94391588334119
C            3.35998852873096        0.72150874308826       -1.05677973902602
N            2.35555626543703        0.29943866300799       -0.19942889780083
C            1.24343156851180       -0.13390898573950       -0.67051158742378
C            0.15652322906227       -0.67167142215135        0.25419368907331
C            0.59672514024322       -2.09159160484991        0.64801104409790
C            0.08394184712037        0.23339991976408        1.49675520597462
N           -1.09874955956754       -0.66528271790600       -0.50509766050052
C           -2.27919210619851       -1.44734221399227        0.11217287422876
C           -2.42424766603234       -2.73576122933305       -0.76953365501578
O           -2.23585555574541       -1.66294690312492        1.39519407994616
C           -3.52780304076971       -0.57702094820727       -0.25285089653685
N           -4.70393206323431       -1.01782529266754       -0.57914520432568
N           -5.54957243121777        0.07494817470944       -0.62091865274231
C           -4.82835280906332        1.09891251561941       -0.31040068237873
C           -5.26581608872596        2.51351208430262       -0.21932242989252
O           -3.54697767908095        0.76383626623917       -0.06440054483327
N            1.01481917562000       -0.21350546638037       -2.02543922693612
C            1.90529195907228        0.17390275786511       -2.98362228544544
O            1.61033585655406        0.07820532329720       -4.17775798372871
C            3.22675667411766        0.69942600140522       -2.47043930865130
O            4.08899106357192        1.06520913984959       -3.29563195379729
H            5.46141177648042        1.40750171764808        2.71997189446661
H            5.91903536996304        2.54905239036206        1.42649533981106
H            6.52511164465188        0.87667430547099        1.38883533285322
H            0.64315458661878       -2.72940214199787       -0.23492052494899
H           -0.09188586231355       -2.52833467362239        1.37008556635387
H            1.59097557130812       -2.04693574332669        1.09491254437696
H            1.06659981168065        0.29099221593338        1.96660792755518
H           -0.22307067048504        1.23870312398629        1.20744518702045
H           -0.63557022805220       -0.16175671208967        2.21215825382805
H           -1.39201127151042        0.30824500190050       -0.57118308110593
H           -1.59724477425739       -3.41111116336548       -0.56178921308262
H           -3.35894458376776       -3.23425506553068       -0.51439360114420
H           -2.42537626504538       -2.47775870709289       -1.82722347249058
H           -6.34243527696494        2.56902017926051       -0.35879087407037
H           -4.77467065527496        3.11169424520472       -0.98661458232092
H           -5.00426252934471        2.92929624574555        0.75298770039873
H            0.10830598156578       -0.55660863149444       -2.32231618118017
