42
 energy: -83.613865745252 gnorm: 0.000485035209 xtb: 6.5.1 (579679a)
C           -2.51061227728499        2.40645346945637       -1.88044309388361
O           -2.35730551582060        1.21610860383932       -1.11776253007653
C           -3.50568360601619        0.55697185032430       -0.82242580920003
O           -4.59160897665151        0.97608420750764       -1.19818425879239
C           -3.28987254129139       -0.77213414311276       -0.12123606938720
C           -4.53297474534347       -1.12651956655503        0.70094019853519
N           -2.12699286206438       -0.73923691200942        0.75186854030745
C           -0.97873405720367       -0.97698158099999        0.23112662405696
C            0.26190601713859       -0.92073866669070        1.11463849975285
C            0.53549226997227       -2.35237839749917        1.60314689245231
C            0.01645188218181        0.02015616840749        2.30267299714825
N            1.37166166340494       -0.44486491281915        0.28708362997494
C            2.63536638114710       -0.21271566205029        0.85167703227543
O            3.02446125235481       -0.75158067688482        1.90846664816687
C            3.41689790981226        0.65892929189717        0.03200807580920
N            3.01429150705001        1.25742539030391       -1.09368884014387
N            4.06972278773171        2.01016150974778       -1.53109220159121
C            5.03499501980515        1.84845811609163       -0.68668460357537
C            6.38267528257416        2.46799295820203       -0.73796758664247
O            4.71655465012443        1.01463995555675        0.33232018645873
N           -0.79443103857625       -1.33478187485544       -1.06700766929608
C           -1.84928994200424       -1.92159420676020       -1.84676293002551
O           -1.48876587712581       -2.60464448925544       -2.85003932093613
C           -3.15485340080985       -1.72118967818148       -1.34809275023080
O           -4.22002880184386       -2.23906810429200       -1.82883453422113
H           -2.95123931965467        2.18883853214061       -2.85870003438926
H           -3.15524124526048        3.11786546545230       -1.35524835755226
H           -1.51882109263341        2.83739201854842       -2.00926258432096
H           -5.41605246039520       -1.11327043367393        0.06225118936473
H           -4.66565462297288       -0.41007397278446        1.51089173895454
H           -4.41945892778494       -2.12253548605585        1.12743255307392
H            0.76925208002510       -2.99539209662126        0.75468851083394
H           -0.35159135684744       -2.73772220192353        2.10561662288822
H            1.36995251459963       -2.37184836067706        2.30132901588970
H            0.86695869079395        0.00585671450884        2.98228075546720
H           -0.13885955585893        1.03853375396062        1.94655948217867
H           -0.87539263782343       -0.30020533482580        2.84060361224555
H            1.10334835789550        0.28926789914792       -0.36239443881052
H            6.47916998178855        3.05339983271534       -1.64923499858554
H            6.53548730865698        3.11867056944420        0.12376132934328
H            7.15491894477741        1.69885678120727       -0.71924085960476
H            0.13390335943626       -1.61258632993238       -1.35022066390763
