      -----------------------------------------------------------      
     |                   =====================                   |     
     |                           x T B                           |     
     |                   =====================                   |     
     |                         S. Grimme                         |     
     |          Mulliken Center for Theoretical Chemistry        |     
     |                    University of Bonn                     |     
      -----------------------------------------------------------      

   * xtb version 6.5.1 (579679a) compiled by 'ehlert@majestix' on 2022-07-11

   xtb is free software: you can redistribute it and/or modify it under
   the terms of the GNU Lesser General Public License as published by
   the Free Software Foundation, either version 3 of the License, or
   (at your option) any later version.
   
   xtb is distributed in the hope that it will be useful,
   but WITHOUT ANY WARRANTY; without even the implied warranty of
   MERCHANTABILITY or FITNESS FOR A PARTICULAR PURPOSE.  See the
   GNU Lesser General Public License for more details.
   
   Cite this work as:
   * C. Bannwarth, E. Caldeweyher, S. Ehlert, A. Hansen, P. Pracht,
     J. Seibert, S. Spicher, S. Grimme, WIREs Comput. Mol. Sci., 2020, 11,
     e01493. DOI: 10.1002/wcms.1493
   
   for GFN2-xTB:
   * C. Bannwarth, S. Ehlert and S. Grimme., J. Chem. Theory Comput., 2019,
     15, 1652-1671. DOI: 10.1021/acs.jctc.8b01176
   for GFN1-xTB:
   * S. Grimme, C. Bannwarth, P. Shushkov, J. Chem. Theory Comput., 2017,
     13, 1989-2009. DOI: 10.1021/acs.jctc.7b00118
   for GFN0-xTB:
   * P. Pracht, E. Caldeweyher, S. Ehlert, S. Grimme, ChemRxiv, 2019, preprint.
     DOI: 10.26434/chemrxiv.8326202.v1
   for GFN-FF:
   * S. Spicher and S. Grimme, Angew. Chem. Int. Ed., 2020, 59, 15665-15673.
     DOI: 10.1002/anie.202004239
   
   for ALPB and GBSA implicit solvation:
   * S. Ehlert, M. Stahn, S. Spicher, S. Grimme, J. Chem. Theory Comput.,
     2021, 17, 4250-4261. DOI: 10.1021/acs.jctc.1c00471
   
   for DFT-D4:
   * E. Caldeweyher, C. Bannwarth and S. Grimme, J. Chem. Phys., 2017,
     147, 034112. DOI: 10.1063/1.4993215
   * E. Caldeweyher, S. Ehlert, A. Hansen, H. Neugebauer, S. Spicher,
     C. Bannwarth and S. Grimme, J. Chem. Phys., 2019, 150, 154122.
     DOI: 10.1063/1.5090222
   * E. Caldeweyher, J.-M. Mewes, S. Ehlert and S. Grimme, Phys. Chem. Chem. Phys.
     2020, 22, 8499-8512. DOI: 10.1039/D0CP00502A
   
   for sTDA-xTB:
   * S. Grimme and C. Bannwarth, J. Chem. Phys., 2016, 145, 054103.
     DOI: 10.1063/1.4959605
   
   in the mass-spec context:
   * V. Asgeirsson, C. Bauer and S. Grimme, Chem. Sci., 2017, 8, 4879.
     DOI: 10.1039/c7sc00601b
   * J. Koopman and S. Grimme, ACS Omega 2019, 4, 12, 15120-15133.
     DOI: 10.1021/acsomega.9b02011
   
   for metadynamics refer to:
   * S. Grimme, J. Chem. Theory Comput., 2019, 155, 2847-2862
     DOI: 10.1021/acs.jctc.9b00143
   
   for SPH calculations refer to:
   * S. Spicher and S. Grimme, J. Chem. Theory Comput., 2021, 17, 1701-1714
     DOI: 10.1021/acs.jctc.0c01306
   
   with help from (in alphabetical order)
   P. Atkinson, C. Bannwarth, F. Bohle, G. Brandenburg, E. Caldeweyher
   M. Checinski, S. Dohm, S. Ehlert, S. Ehrlich, I. Gerasimov, C. Hölzer
   A. Katbashev, J. Koopman, C. Lavigne, S. Lehtola, F. März, M. Müller,
   F. Musil, H. Neugebauer, J. Pisarek, C. Plett, P. Pracht, F. Pultar,
   J. Seibert, P. Shushkov, S. Spicher, M. Stahn, M. Steiner, T. Strunk,
   J. Stückrath, T. Rose, and J. Unsleber
   
 * started run on 2023/06/20 at 15:22:27.287     

           -------------------------------------------------
          |                Calculation Setup                |
           -------------------------------------------------

          program call               : /lustre/hpc/kemi/ree/PhD/git/ReactivityQM/dep/xtb-6.5.1/bin/xtb --gfn 1 /lustre/hpc/kemi/ree/PhD/git/ReactivityQM/calculations/R02/reac01prodN04/conf08/R02_reac01prodN04_conf08_gfn1.xyz --opt --vfukui --chrg 1 --uhf 0 --alpb DMSO
          hostname                   : node315
          coordinate file            : /lustre/hpc/kemi/ree/PhD/git/ReactivityQM/calculations/R02/reac01prodN04/conf08/R02_reac01prodN04_conf08_gfn1.xyz
          omp threads                :                     1

   ID    Z sym.   atoms
    1    6 C      1, 3, 5, 7-10, 12, 14, 17, 18, 21, 23, 25
    2    8 O      2, 4, 13, 19, 22, 24
    3    7 N      6, 11, 15, 16, 20
    4    1 H      26-43

           -------------------------------------------------
          |                 G F N 1 - x T B                 |
           -------------------------------------------------

        Reference                      10.1021/acs.jctc.7b00118
      * Hamiltonian:
        H0-scaling (s, p, d)           1.850000    2.250000    2.000000
        zeta-weighting                 0.000000
      * Dispersion:
        s8                             2.400000
        a1                             0.630000
        a2                             5.000000
        s9                             0.000000
      * Repulsion:
        kExp                           1.500000
        rExp                           1.000000
      * Coulomb:
        alpha                          2.000000
        third order                    atomic
        anisotropic                    false
      * Halogen bond correction:
        rad-scale                      1.300000
        damping                        0.440000

      * Solvation model:               ALPB
        Solvent                        DMSO
        Parameter file                 internal GFN1-xTB/ALPB
        Dielectric constant                4.6680E+01
        Reference state                gsolv [1 M gas/solution]
        Free energy shift                  7.6243E-03 Eh       4.7843E+00 kcal/mol
        Temperature                        2.9815E+02 K
        Density                            1.1000E+00 kg/L
        Solvent mass                       7.8130E+01 g/mol
        Interaction kernel             P16
        Born radius scaling (c1)           1.7672E+00
        Born radii integrator          GBOBC
        Born offset                        0.0000E+00 a0       0.0000E+00 AA
        H-bond correction              true
        Ion screening                  false
        Surface tension                    1.0000E-05 Eh       1.5569E+01 dyn/cm
        Grid points                               230 per atom

          ...................................................
          :                      SETUP                      :
          :.................................................:
          :  # basis functions                 136          :
          :  # atomic orbitals                 136          :
          :  # shells                           86          :
          :  # electrons                       134          :
          :  # halogen bonds                     0          :
          :  max. iterations                   250          :
          :  Hamiltonian                  GFN1-xTB          :
          :  restarted?                      false          :
          :  GBSA solvation                   true          :
          :  PC potential                    false          :
          :  electronic temp.          300.0000000     K    :
          :  accuracy                    1.0000000          :
          :  -> integral cutoff          0.2500000E+02      :
          :  -> integral neglect         0.1000000E-07      :
          :  -> SCF convergence          0.1000000E-05 Eh   :
          :  -> wf. convergence          0.2000000E-04 e    :
          :  Broyden damping             0.4000000          :
          ...................................................

 iter      E             dE          RMSdq      gap      omega  full diag
   1    -83.5476535 -0.835477E+02  0.832E+00    2.93       0.0  T
   2    -83.8577794 -0.310126E+00  0.497E+00    2.11       1.0  T
   3    -83.8476012  0.101782E-01  0.159E+00    1.99       1.0  T
   4    -83.8733761 -0.257749E-01  0.157E-01    1.88       1.0  T
   5    -83.8741009 -0.724841E-03  0.414E-02    1.92       1.0  T
   6    -83.8741385 -0.375871E-04  0.164E-02    1.93       1.0  T
   7    -83.8741441 -0.557570E-05  0.547E-03    1.94       2.8  T
   8    -83.8741444 -0.342116E-06  0.109E-03    1.94      13.9  T
   9    -83.8741444 -0.313224E-07  0.311E-04    1.94      49.0  T
  10    -83.8741444 -0.144819E-08  0.988E-05    1.94     154.3  T
  11    -83.8741444 -0.158394E-09  0.261E-05    1.94     585.2  T

   *** convergence criteria satisfied after 11 iterations ***

         #    Occupation            Energy/Eh            Energy/eV
      -------------------------------------------------------------
         1        2.0000           -0.9199973             -25.0344
       ...           ...                  ...                  ...
        61        2.0000           -0.4909560             -13.3596
        62        2.0000           -0.4887635             -13.2999
        63        2.0000           -0.4843245             -13.1791
        64        2.0000           -0.4751383             -12.9292
        65        2.0000           -0.4691428             -12.7660
        66        2.0000           -0.4536333             -12.3440
        67        2.0000           -0.4513765             -12.2826 (HOMO)
        68                         -0.3800119             -10.3407 (LUMO)
        69                         -0.3290412              -8.9537
        70                         -0.3235304              -8.8037
        71                         -0.2802921              -7.6271
        72                         -0.2647382              -7.2039
       ...                                ...                  ...
       136                          0.6844344              18.6244
      -------------------------------------------------------------
                  HL-Gap            0.0713645 Eh            1.9419 eV
             Fermi-level           -0.4156942 Eh          -11.3116 eV

 SCC (total)                   0 d,  0 h,  0 min,  0.157 sec
 SCC setup                      ...        0 min,  0.002 sec (  1.349%)
 Dispersion                     ...        0 min,  0.000 sec (  0.272%)
 classical contributions        ...        0 min,  0.000 sec (  0.084%)
 integral evaluation            ...        0 min,  0.034 sec ( 21.689%)
 iterations                     ...        0 min,  0.040 sec ( 25.515%)
 molecular gradient             ...        0 min,  0.079 sec ( 50.457%)
 printout                       ...        0 min,  0.001 sec (  0.606%)

         :::::::::::::::::::::::::::::::::::::::::::::::::::::
         ::                     SUMMARY                     ::
         :::::::::::::::::::::::::::::::::::::::::::::::::::::
         :: total energy             -83.105927637888 Eh    ::
         :: total w/o Gsasa/hb       -83.081696213876 Eh    ::
         :: gradient norm              0.127616662459 Eh/a0 ::
         :: HOMO-LUMO gap              1.941927985242 eV    ::
         ::.................................................::
         :: SCC energy               -83.874144440145 Eh    ::
         :: -> electrostatic           0.411007400479 Eh    ::
         :: -> Gsolv                  -0.113854717951 Eh    ::
         ::    -> Gelec               -0.089623293938 Eh    ::
         ::    -> Gsasa               -0.025485311951 Eh    ::
         ::    -> Ghb                 -0.006370391066 Eh    ::
         ::    -> Gshift               0.007624279005 Eh    ::
         :: repulsion energy           0.794167538472 Eh    ::
         :: dispersion energy         -0.025950736215 Eh    ::
         :: halogen bond corr.         0.000000000000 Eh    ::
         :: add. restraining           0.000000000000 Eh    ::
         :: total charge               1.000000000000 e     ::
         :::::::::::::::::::::::::::::::::::::::::::::::::::::

      ----------------------------------------------------------- 
     |                   =====================                   |
     |                        A N C O P T                        |
     |                   =====================                   |
     |               Approximate Normal Coordinate               |
     |                Rational Function Optimizer                |
      ----------------------------------------------------------- 

          ...................................................
          :                      SETUP                      :
          :.................................................:
          :   optimization level            normal          :
          :   max. optcycles                   200          :
          :   ANC micro-cycles                  20          :
          :   degrees of freedom               123          :
          :.................................................:
          :   RF solver                   davidson          :
          :   write xtbopt.log                true          :
          :   linear?                        false          :
          :   energy convergence         0.5000000E-05 Eh   :
          :   grad. convergence          0.1000000E-02 Eh/α :
          :   maximium RF displ.         1.0000000          :
          :   Hlow (freq-cutoff)         0.1000000E-01      :
          :   Hmax (freq-cutoff)         5.0000000          :
          :   S6 in model hess.         20.0000000          :
          ...................................................

generating ANC from model Hessian ...
Using Lindh-Hessian (1995)
 Shifting diagonal of input Hessian by   9.834656066974144E-003
 Lowest  eigenvalues of input Hessian
    0.000000    0.000000    0.000000    0.000000    0.000000    0.000000
    0.010000    0.010098    0.011097    0.011625    0.012139    0.012649
    0.013030    0.013320    0.014340    0.015296    0.016106    0.017264
 Highest eigenvalues
    1.999616    2.162283    2.203309    2.308727    2.354090    2.439533
 

........................................................................
.............................. CYCLE    1 ..............................
........................................................................
   1    -83.8741444 -0.838741E+02  0.126E-05    1.94       0.0  T
   2    -83.8741444 -0.852651E-12  0.699E-06    1.94    2180.6  T
   3    -83.8741444 -0.284217E-12  0.305E-06    1.94    4994.6  T
     SCC iter.                  ...        0 min,  0.011 sec
     gradient                   ...        0 min,  0.079 sec
 * total energy  :   -83.1059276 Eh     change       -0.1047340E-10 Eh
   gradient norm :     0.1276168 Eh/α   predicted     0.0000000E+00 (-100.00%)
   displ. norm   :     0.4127848 α      lambda       -0.2266118E-01
   maximum displ.:     0.1758607 α      in ANC's #27, #26, #12, ...

........................................................................
.............................. CYCLE    2 ..............................
........................................................................
   1    -83.9027885 -0.839028E+02  0.876E-02    2.18       0.0  T
   2    -83.9031259 -0.337361E-03  0.381E-02    2.17       1.0  T
   3    -83.9031569 -0.310502E-04  0.158E-02    2.17       1.0  T
   4    -83.9031572 -0.247844E-06  0.655E-03    2.17       2.3  T
   5    -83.9031574 -0.183350E-06  0.118E-03    2.17      12.9  T
   6    -83.9031574 -0.260218E-07  0.425E-04    2.17      35.9  T
   7    -83.9031574 -0.468042E-08  0.131E-04    2.17     116.0  T
   8    -83.9031574 -0.186844E-09  0.231E-05    2.17     659.1  T
     SCC iter.                  ...        0 min,  0.028 sec
     gradient                   ...        0 min,  0.079 sec
 * total energy  :   -83.1227076 Eh     change       -0.1677994E-01 Eh
   gradient norm :     0.0648144 Eh/α   predicted    -0.1330138E-01 ( -20.73%)
   displ. norm   :     0.4121104 α      lambda       -0.1070470E-01
   maximum displ.:     0.1932840 α      in ANC's #26, #12, #27, ...

........................................................................
.............................. CYCLE    3 ..............................
........................................................................
   1    -83.9214878 -0.839215E+02  0.835E-02    2.39       0.0  T
   2    -83.9218070 -0.319155E-03  0.361E-02    2.40       1.0  T
   3    -83.9218362 -0.292556E-04  0.142E-02    2.39       1.1  T
   4    -83.9218364 -0.115589E-06  0.639E-03    2.39       2.4  T
   5    -83.9218365 -0.164047E-06  0.834E-04    2.39      18.3  T
   6    -83.9218365 -0.151785E-07  0.297E-04    2.39      51.3  T
   7    -83.9218365 -0.267154E-08  0.105E-04    2.39     144.9  T
   8    -83.9218365 -0.139195E-09  0.236E-05    2.39     646.2  T
     SCC iter.                  ...        0 min,  0.028 sec
     gradient                   ...        0 min,  0.079 sec
 * total energy  :   -83.1292705 Eh     change       -0.6562909E-02 Eh
   gradient norm :     0.0185661 Eh/α   predicted    -0.6261368E-02 (  -4.59%)
   displ. norm   :     0.3273058 α      lambda       -0.2111392E-02
   maximum displ.:     0.1233120 α      in ANC's #12, #7, #4, ...

........................................................................
.............................. CYCLE    4 ..............................
........................................................................
   1    -83.9243776 -0.839244E+02  0.252E-02    2.44       0.0  T
   2    -83.9244031 -0.255124E-04  0.110E-02    2.45       1.4  T
   3    -83.9244054 -0.228377E-05  0.479E-03    2.45       3.2  T
   4    -83.9244054 -0.328701E-07  0.189E-03    2.45       8.1  T
   5    -83.9244055 -0.260759E-07  0.358E-04    2.45      42.7  T
   6    -83.9244055 -0.160695E-08  0.115E-04    2.45     132.2  T
   7    -83.9244055 -0.258865E-09  0.438E-05    2.45     348.4  T
     SCC iter.                  ...        0 min,  0.025 sec
     gradient                   ...        0 min,  0.079 sec
 * total energy  :   -83.1308849 Eh     change       -0.1614439E-02 Eh
   gradient norm :     0.0126568 Eh/α   predicted    -0.1168817E-02 ( -27.60%)
   displ. norm   :     0.4748093 α      lambda       -0.1905901E-02
   maximum displ.:     0.1953479 α      in ANC's #7, #4, #12, ...

........................................................................
.............................. CYCLE    5 ..............................
........................................................................
   1    -83.9246889 -0.839247E+02  0.220E-02    2.47       0.0  T
   2    -83.9247088 -0.198619E-04  0.105E-02    2.48       1.5  T
   3    -83.9247109 -0.213293E-05  0.476E-03    2.48       3.2  T
   4    -83.9247110 -0.662869E-07  0.205E-03    2.48       7.4  T
   5    -83.9247110 -0.255410E-07  0.362E-04    2.48      42.1  T
   6    -83.9247110 -0.264468E-08  0.120E-04    2.48     127.1  T
   7    -83.9247110 -0.239254E-09  0.484E-05    2.48     315.4  T
     SCC iter.                  ...        0 min,  0.024 sec
     gradient                   ...        0 min,  0.081 sec
 * total energy  :   -83.1322949 Eh     change       -0.1409963E-02 Eh
   gradient norm :     0.0118796 Eh/α   predicted    -0.1167789E-02 ( -17.18%)
   displ. norm   :     0.4765783 α      lambda       -0.1241969E-02
   maximum displ.:     0.2143287 α      in ANC's #7, #4, #12, ...

........................................................................
.............................. CYCLE    6 ..............................
........................................................................
   1    -83.9247223 -0.839247E+02  0.148E-02    2.48       0.0  T
   2    -83.9247326 -0.102602E-04  0.739E-03    2.48       2.1  T
   3    -83.9247337 -0.112491E-05  0.348E-03    2.48       4.4  T
   4    -83.9247338 -0.452166E-07  0.160E-03    2.48       9.5  T
   5    -83.9247338 -0.880787E-08  0.234E-04    2.48      65.1  T
   6    -83.9247338 -0.149342E-08  0.802E-05    2.48     190.1  T
   7    -83.9247338 -0.107704E-09  0.321E-05    2.48     475.2  T
     SCC iter.                  ...        0 min,  0.035 sec
     gradient                   ...        0 min,  0.079 sec
 * total energy  :   -83.1333082 Eh     change       -0.1013360E-02 Eh
   gradient norm :     0.0119286 Eh/α   predicted    -0.7620421E-03 ( -24.80%)
   displ. norm   :     0.5920900 α      lambda       -0.1224229E-02
   maximum displ.:     0.2906960 α      in ANC's #7, #4, #5, ...

........................................................................
.............................. CYCLE    7 ..............................
........................................................................
   1    -83.9242217 -0.839242E+02  0.143E-02    2.47       0.0  T
   2    -83.9242321 -0.103704E-04  0.654E-03    2.47       2.3  T
   3    -83.9242329 -0.818981E-06  0.319E-03    2.47       4.8  T
   4    -83.9242330 -0.486559E-07  0.167E-03    2.47       9.1  T
   5    -83.9242330 -0.897559E-08  0.243E-04    2.47      62.8  T
   6    -83.9242330 -0.201898E-08  0.743E-05    2.47     205.3  T
   7    -83.9242330 -0.139877E-09  0.327E-05    2.47     466.9  T
     SCC iter.                  ...        0 min,  0.025 sec
     gradient                   ...        0 min,  0.078 sec
 * total energy  :   -83.1342151 Eh     change       -0.9068659E-03 Eh
   gradient norm :     0.0114831 Eh/α   predicted    -0.8267087E-03 (  -8.84%)
   displ. norm   :     0.4416760 α      lambda       -0.6780790E-03
   maximum displ.:     0.2288297 α      in ANC's #7, #4, #8, ...

........................................................................
.............................. CYCLE    8 ..............................
........................................................................
   1    -83.9254336 -0.839254E+02  0.101E-02    2.46       0.0  T
   2    -83.9254375 -0.390515E-05  0.429E-03    2.46       3.6  T
   3    -83.9254378 -0.251211E-06  0.225E-03    2.45       6.8  T
   4    -83.9254378 -0.154986E-07  0.943E-04    2.45      16.2  T
   5    -83.9254378 -0.390008E-08  0.121E-04    2.45     126.3  T
   6    -83.9254378 -0.500648E-09  0.416E-05    2.45     366.7  T
     SCC iter.                  ...        0 min,  0.021 sec
     gradient                   ...        0 min,  0.079 sec
 * total energy  :   -83.1347069 Eh     change       -0.4917950E-03 Eh
   gradient norm :     0.0087896 Eh/α   predicted    -0.4051786E-03 ( -17.61%)
   displ. norm   :     0.3282465 α      lambda       -0.3734532E-03
   maximum displ.:     0.1734096 α      in ANC's #7, #4, #8, ...

........................................................................
.............................. CYCLE    9 ..............................
........................................................................
   1    -83.9267323 -0.839267E+02  0.936E-03    2.44       0.0  T
   2    -83.9267354 -0.312142E-05  0.409E-03    2.44       3.7  T
   3    -83.9267357 -0.263510E-06  0.204E-03    2.44       7.5  T
   4    -83.9267357 -0.102150E-07  0.771E-04    2.44      19.8  T
   5    -83.9267357 -0.393106E-08  0.118E-04    2.44     128.9  T
   6    -83.9267357 -0.429182E-09  0.401E-05    2.44     380.7  T
     SCC iter.                  ...        0 min,  0.021 sec
     gradient                   ...        0 min,  0.079 sec
 * total energy  :   -83.1349645 Eh     change       -0.2575679E-03 Eh
   gradient norm :     0.0052197 Eh/α   predicted    -0.2068479E-03 ( -19.69%)
   displ. norm   :     0.2072519 α      lambda       -0.1677060E-03
   maximum displ.:     0.1006255 α      in ANC's #7, #2, #8, ...

........................................................................
.............................. CYCLE   10 ..............................
........................................................................
   1    -83.9279823 -0.839280E+02  0.765E-03    2.43       0.0  T
   2    -83.9279849 -0.258931E-05  0.313E-03    2.43       4.9  T
   3    -83.9279851 -0.167925E-06  0.146E-03    2.43      10.4  T
   4    -83.9279851 -0.423233E-08  0.687E-04    2.43      22.2  T
   5    -83.9279851 -0.243818E-08  0.799E-05    2.43     191.0  T
   6    -83.9279851 -0.201368E-09  0.277E-05    2.43     550.3  T
     SCC iter.                  ...        0 min,  0.021 sec
     gradient                   ...        0 min,  0.079 sec
 * total energy  :   -83.1350816 Eh     change       -0.1171608E-03 Eh
   gradient norm :     0.0035591 Eh/α   predicted    -0.8747253E-04 ( -25.34%)
   displ. norm   :     0.1688538 α      lambda       -0.1078274E-03
   maximum displ.:     0.0891274 α      in ANC's #2, #1, #8, ...

........................................................................
.............................. CYCLE   11 ..............................
........................................................................
   1    -83.9282850 -0.839283E+02  0.511E-03    2.43       0.0  T
   2    -83.9282861 -0.114627E-05  0.200E-03    2.43       7.6  T
   3    -83.9282862 -0.651426E-07  0.945E-04    2.43      16.1  T
   4    -83.9282862 -0.149733E-08  0.457E-04    2.43      33.4  T
   5    -83.9282862 -0.920267E-09  0.421E-05    2.43     362.4  T
   6    -83.9282862 -0.449774E-10  0.124E-05    2.43    1225.2  T
     SCC iter.                  ...        0 min,  0.021 sec
     gradient                   ...        0 min,  0.079 sec
 * total energy  :   -83.1351624 Eh     change       -0.8072845E-04 Eh
   gradient norm :     0.0039140 Eh/α   predicted    -0.5545156E-04 ( -31.31%)
   displ. norm   :     0.1841194 α      lambda       -0.1101544E-03
   maximum displ.:     0.1113819 α      in ANC's #2, #1, #8, ...

........................................................................
.............................. CYCLE   12 ..............................
........................................................................
   1    -83.9289099 -0.839289E+02  0.502E-03    2.43       0.0  T
   2    -83.9289107 -0.799036E-06  0.176E-03    2.43       8.7  T
   3    -83.9289107 -0.490769E-07  0.913E-04    2.43      16.7  T
   4    -83.9289107 -0.335521E-08  0.398E-04    2.43      38.3  T
   5    -83.9289107 -0.100118E-08  0.719E-05    2.43     212.2  T
   6    -83.9289107 -0.981686E-10  0.189E-05    2.43     805.5  T
     SCC iter.                  ...        0 min,  0.021 sec
     gradient                   ...        0 min,  0.079 sec
 * total energy  :   -83.1352459 Eh     change       -0.8349768E-04 Eh
   gradient norm :     0.0046786 Eh/α   predicted    -0.5694458E-04 ( -31.80%)
   displ. norm   :     0.2087156 α      lambda       -0.1079630E-03
   maximum displ.:     0.1349375 α      in ANC's #2, #1, #8, ...

........................................................................
.............................. CYCLE   13 ..............................
........................................................................
   1    -83.9282523 -0.839283E+02  0.533E-03    2.43       0.0  T
   2    -83.9282531 -0.801032E-06  0.199E-03    2.43       7.7  T
   3    -83.9282531 -0.718253E-07  0.110E-03    2.43      13.9  T
   4    -83.9282531 -0.645237E-08  0.412E-04    2.43      37.0  T
   5    -83.9282531 -0.132333E-08  0.715E-05    2.43     213.4  T
   6    -83.9282531 -0.128111E-09  0.157E-05    2.43     972.6  T
     SCC iter.                  ...        0 min,  0.021 sec
     gradient                   ...        0 min,  0.079 sec
 * total energy  :   -83.1353303 Eh     change       -0.8439338E-04 Eh
   gradient norm :     0.0042599 Eh/α   predicted    -0.5633652E-04 ( -33.25%)
   displ. norm   :     0.2218325 α      lambda       -0.1154386E-03
   maximum displ.:     0.1455290 α      in ANC's #2, #1, #11, ...

........................................................................
.............................. CYCLE   14 ..............................
........................................................................
   1    -83.9288578 -0.839289E+02  0.704E-03    2.44       0.0  T
   2    -83.9288597 -0.185994E-05  0.221E-03    2.44       6.9  T
   3    -83.9288598 -0.116349E-06  0.105E-03    2.44      14.5  T
   4    -83.9288598 -0.810809E-08  0.487E-04    2.44      31.3  T
   5    -83.9288598 -0.137280E-08  0.104E-04    2.44     146.2  T
   6    -83.9288598 -0.173529E-09  0.252E-05    2.44     605.5  T
     SCC iter.                  ...        0 min,  0.021 sec
     gradient                   ...        0 min,  0.079 sec
 * total energy  :   -83.1354198 Eh     change       -0.8957783E-04 Eh
   gradient norm :     0.0037355 Eh/α   predicted    -0.6057232E-04 ( -32.38%)
   displ. norm   :     0.2528654 α      lambda       -0.1249719E-03
   maximum displ.:     0.1729228 α      in ANC's #2, #1, #11, ...

........................................................................
.............................. CYCLE   15 ..............................
........................................................................
   1    -83.9282773 -0.839283E+02  0.705E-03    2.44       0.0  T
   2    -83.9282794 -0.206016E-05  0.251E-03    2.44       6.1  T
   3    -83.9282795 -0.135983E-06  0.118E-03    2.44      12.9  T
   4    -83.9282795 -0.515743E-08  0.544E-04    2.44      28.0  T
   5    -83.9282795 -0.167979E-08  0.926E-05    2.44     164.7  T
   6    -83.9282795 -0.168953E-09  0.270E-05    2.44     564.2  T
     SCC iter.                  ...        0 min,  0.021 sec
     gradient                   ...        0 min,  0.079 sec
 * total energy  :   -83.1355233 Eh     change       -0.1034221E-03 Eh
   gradient norm :     0.0041679 Eh/α   predicted    -0.6648460E-04 ( -35.72%)
   displ. norm   :     0.3383095 α      lambda       -0.1692198E-03
   maximum displ.:     0.2313257 α      in ANC's #2, #1, #11, ...

........................................................................
.............................. CYCLE   16 ..............................
........................................................................
   1    -83.9285173 -0.839285E+02  0.772E-03    2.44       0.0  T
   2    -83.9285198 -0.244072E-05  0.252E-03    2.44       6.1  T
   3    -83.9285199 -0.137959E-06  0.112E-03    2.44      13.6  T
   4    -83.9285199 -0.529874E-08  0.541E-04    2.44      28.2  T
   5    -83.9285199 -0.157468E-08  0.100E-04    2.44     152.5  T
   6    -83.9285199 -0.113303E-09  0.297E-05    2.44     514.0  T
     SCC iter.                  ...        0 min,  0.021 sec
     gradient                   ...        0 min,  0.079 sec
 * total energy  :   -83.1356573 Eh     change       -0.1340035E-03 Eh
   gradient norm :     0.0056909 Eh/α   predicted    -0.9429739E-04 ( -29.63%)
   displ. norm   :     0.4054814 α      lambda       -0.1706004E-03
   maximum displ.:     0.2787533 α      in ANC's #2, #1, #11, ...

........................................................................
.............................. CYCLE   17 ..............................
........................................................................
   1    -83.9280834 -0.839281E+02  0.526E-03    2.44       0.0  T
   2    -83.9280840 -0.674474E-06  0.167E-03    2.44       9.2  T
   3    -83.9280841 -0.400137E-07  0.936E-04    2.44      16.3  T
   4    -83.9280841 -0.462978E-08  0.333E-04    2.44      45.9  T
   5    -83.9280841 -0.744635E-09  0.719E-05    2.44     212.2  T
   6    -83.9280841 -0.519549E-10  0.242E-05    2.44     629.8  T
     SCC iter.                  ...        0 min,  0.021 sec
     gradient                   ...        0 min,  0.079 sec
 * total energy  :   -83.1357966 Eh     change       -0.1393390E-03 Eh
   gradient norm :     0.0066320 Eh/α   predicted    -0.9932813E-04 ( -28.71%)
   displ. norm   :     0.5077034 α      lambda       -0.2184423E-03
   maximum displ.:     0.3528025 α      in ANC's #2, #1, #11, ...

........................................................................
.............................. CYCLE   18 ..............................
........................................................................
   1    -83.9283610 -0.839284E+02  0.641E-03    2.44       0.0  T
   2    -83.9283622 -0.119014E-05  0.171E-03    2.44       8.9  T
   3    -83.9283622 -0.425165E-07  0.959E-04    2.44      15.9  T
   4    -83.9283622 -0.573205E-08  0.363E-04    2.44      42.0  T
   5    -83.9283622 -0.905700E-09  0.760E-05    2.44     200.6  T
   6    -83.9283622 -0.473790E-10  0.295E-05    2.44     516.4  T
     SCC iter.                  ...        0 min,  0.016 sec
     gradient                   ...        0 min,  0.065 sec
 * total energy  :   -83.1359568 Eh     change       -0.1601646E-03 Eh
   gradient norm :     0.0062116 Eh/α   predicted    -0.1373759E-03 ( -14.23%)
   displ. norm   :     0.4202173 α      lambda       -0.1676980E-03
   maximum displ.:     0.2930555 α      in ANC's #2, #1, #11, ...

........................................................................
.............................. CYCLE   19 ..............................
........................................................................
   1    -83.9279922 -0.839280E+02  0.708E-03    2.43       0.0  T
   2    -83.9279944 -0.218564E-05  0.239E-03    2.43       6.4  T
   3    -83.9279945 -0.103634E-06  0.117E-03    2.43      13.0  T
   4    -83.9279945 -0.483958E-08  0.518E-04    2.43      29.5  T
   5    -83.9279945 -0.171219E-08  0.757E-05    2.43     201.5  T
   6    -83.9279945 -0.704716E-10  0.269E-05    2.43     568.0  T
     SCC iter.                  ...        0 min,  0.016 sec
     gradient                   ...        0 min,  0.070 sec
 * total energy  :   -83.1360896 Eh     change       -0.1328699E-03 Eh
   gradient norm :     0.0054695 Eh/α   predicted    -0.9865763E-04 ( -25.75%)
   displ. norm   :     0.4419430 α      lambda       -0.2693515E-03
   maximum displ.:     0.3083360 α      in ANC's #2, #1, #11, ...

........................................................................
.............................. CYCLE   20 ..............................
........................................................................
   1    -83.9319331 -0.839319E+02  0.157E-02    2.42       0.0  T
   2    -83.9319416 -0.847372E-05  0.639E-03    2.42       2.4  T
   3    -83.9319420 -0.380840E-06  0.336E-03    2.42       4.5  T
   4    -83.9319420 -0.247666E-07  0.114E-03    2.42      13.4  T
   5    -83.9319420 -0.123345E-07  0.135E-04    2.42     112.8  T
   6    -83.9319420 -0.277396E-09  0.344E-05    2.42     443.1  T
     SCC iter.                  ...        0 min,  0.023 sec
     gradient                   ...        0 min,  0.084 sec
 * total energy  :   -83.1362042 Eh     change       -0.1145227E-03 Eh
   gradient norm :     0.0076042 Eh/α   predicted    -0.1609804E-03 (  40.57%)
   displ. norm   :     0.5442663 α      lambda       -0.2712385E-03
   maximum displ.:     0.3727467 α      in ANC's #2, #1, #11, ...
 * RMSD in coord.:     0.8206560 α      energy gain  -0.3027651E-01 Eh

generating ANC from model Hessian ...
Using Lindh-Hessian (1995)
 Shifting diagonal of input Hessian by   9.830242377031019E-003
 Lowest  eigenvalues of input Hessian
    0.000000    0.000000    0.000000    0.000000    0.000000    0.000000
    0.010000    0.010149    0.011063    0.011379    0.011817    0.012209
    0.013063    0.013153    0.014332    0.015249    0.016344    0.017225
 Highest eigenvalues
    2.029614    2.195750    2.210250    2.394742    2.407652    2.473699
 

........................................................................
.............................. CYCLE   21 ..............................
........................................................................
   1    -83.9267326 -0.839267E+02  0.127E-02    2.41       0.0  T
   2    -83.9267346 -0.196736E-05  0.694E-03    2.42       2.2  T
   3    -83.9267347 -0.127809E-06  0.356E-03    2.42       4.3  T
   4    -83.9267348 -0.866236E-07  0.607E-04    2.42      25.1  T
   5    -83.9267348 -0.492172E-08  0.161E-04    2.42      95.0  T
   6    -83.9267348 -0.418709E-09  0.462E-05    2.42     330.2  T
     SCC iter.                  ...        0 min,  0.023 sec
     gradient                   ...        0 min,  0.084 sec
 * total energy  :   -83.1363204 Eh     change       -0.1162726E-03 Eh
   gradient norm :     0.0093288 Eh/α   predicted     0.0000000E+00 (-100.00%)
   displ. norm   :     0.0467159 α      lambda       -0.1491195E-03
   maximum displ.:     0.0171742 α      in ANC's #5, #8, #7, ...

........................................................................
.............................. CYCLE   22 ..............................
........................................................................
   1    -83.9290381 -0.839290E+02  0.711E-03    2.42       0.0  T
   2    -83.9290393 -0.120274E-05  0.319E-03    2.42       4.8  T
   3    -83.9290393 -0.417015E-07  0.168E-03    2.42       9.1  T
   4    -83.9290393 -0.879622E-08  0.448E-04    2.42      34.0  T
   5    -83.9290393 -0.300416E-08  0.665E-05    2.42     229.3  T
   6    -83.9290393 -0.685958E-10  0.211E-05    2.42     724.4  T
     SCC iter.                  ...        0 min,  0.023 sec
     gradient                   ...        0 min,  0.084 sec
 * total energy  :   -83.1364303 Eh     change       -0.1098606E-03 Eh
   gradient norm :     0.0043138 Eh/α   predicted    -0.7897078E-04 ( -28.12%)
   displ. norm   :     0.0706412 α      lambda       -0.7673195E-04
   maximum displ.:     0.0289548 α      in ANC's #5, #8, #2, ...

........................................................................
.............................. CYCLE   23 ..............................
........................................................................
   1    -83.9302781 -0.839303E+02  0.673E-03    2.42       0.0  T
   2    -83.9302798 -0.175593E-05  0.251E-03    2.42       6.1  T
   3    -83.9302799 -0.875593E-07  0.129E-03    2.42      11.9  T
   4    -83.9302799 -0.470294E-08  0.512E-04    2.42      29.8  T
   5    -83.9302799 -0.205753E-08  0.726E-05    2.42     210.1  T
   6    -83.9302799 -0.965201E-10  0.248E-05    2.42     615.6  T
     SCC iter.                  ...        0 min,  0.023 sec
     gradient                   ...        0 min,  0.083 sec
 * total energy  :   -83.1364822 Eh     change       -0.5194547E-04 Eh
   gradient norm :     0.0022636 Eh/α   predicted    -0.3855843E-04 ( -25.77%)
   displ. norm   :     0.0837635 α      lambda       -0.4507102E-04
   maximum displ.:     0.0336745 α      in ANC's #5, #2, #12, ...

........................................................................
.............................. CYCLE   24 ..............................
........................................................................
   1    -83.9304341 -0.839304E+02  0.505E-03    2.43       0.0  T
   2    -83.9304352 -0.110632E-05  0.177E-03    2.43       8.6  T
   3    -83.9304353 -0.686810E-07  0.804E-04    2.43      19.0  T
   4    -83.9304353 -0.264664E-08  0.370E-04    2.43      41.2  T
   5    -83.9304353 -0.800725E-09  0.712E-05    2.43     214.3  T
   6    -83.9304353 -0.689653E-10  0.226E-05    2.43     673.8  T
     SCC iter.                  ...        0 min,  0.023 sec
     gradient                   ...        0 min,  0.083 sec
 * total energy  :   -83.1365164 Eh     change       -0.3421672E-04 Eh
   gradient norm :     0.0027195 Eh/α   predicted    -0.2277875E-04 ( -33.43%)
   displ. norm   :     0.1271447 α      lambda       -0.5045463E-04
   maximum displ.:     0.0544806 α      in ANC's #2, #5, #15, ...

........................................................................
.............................. CYCLE   25 ..............................
........................................................................
   1    -83.9299101 -0.839299E+02  0.492E-03    2.44       0.0  T
   2    -83.9299110 -0.852002E-06  0.188E-03    2.44       8.1  T
   3    -83.9299110 -0.682669E-07  0.922E-04    2.44      16.5  T
   4    -83.9299110 -0.373150E-08  0.349E-04    2.44      43.7  T
   5    -83.9299110 -0.894744E-09  0.891E-05    2.44     171.1  T
   6    -83.9299110 -0.858762E-10  0.261E-05    2.44     583.5  T
     SCC iter.                  ...        0 min,  0.023 sec
     gradient                   ...        0 min,  0.083 sec
 * total energy  :   -83.1365511 Eh     change       -0.3467260E-04 Eh
   gradient norm :     0.0033415 Eh/α   predicted    -0.2563948E-04 ( -26.05%)
   displ. norm   :     0.0996080 α      lambda       -0.2850927E-04
   maximum displ.:     0.0500634 α      in ANC's #2, #5, #6, ...

........................................................................
.............................. CYCLE   26 ..............................
........................................................................
   1    -83.9294092 -0.839294E+02  0.251E-03    2.44       0.0  T
   2    -83.9294093 -0.123975E-06  0.103E-03    2.44      14.9  T
   3    -83.9294093 -0.766114E-08  0.548E-04    2.44      27.8  T
   4    -83.9294093 -0.155713E-08  0.174E-04    2.44      87.4  T
   5    -83.9294093 -0.406956E-09  0.495E-05    2.44     307.8  T
     SCC iter.                  ...        0 min,  0.019 sec
     gradient                   ...        0 min,  0.083 sec
 * total energy  :   -83.1365720 Eh     change       -0.2090210E-04 Eh
   gradient norm :     0.0030312 Eh/α   predicted    -0.1441039E-04 ( -31.06%)
   displ. norm   :     0.0926661 α      lambda       -0.2587758E-04
   maximum displ.:     0.0532694 α      in ANC's #2, #6, #1, ...

........................................................................
.............................. CYCLE   27 ..............................
........................................................................
   1    -83.9291897 -0.839292E+02  0.319E-03    2.44       0.0  T
   2    -83.9291902 -0.421971E-06  0.107E-03    2.45      14.2  T
   3    -83.9291902 -0.130332E-07  0.536E-04    2.45      28.4  T
   4    -83.9291902 -0.104905E-08  0.237E-04    2.45      64.5  T
   5    -83.9291902 -0.468560E-09  0.394E-05    2.45     386.8  T
   6    -83.9291902 -0.129745E-10  0.127E-05    2.45    1198.6  T
     SCC iter.                  ...        0 min,  0.023 sec
     gradient                   ...        0 min,  0.083 sec
 * total energy  :   -83.1365914 Eh     change       -0.1936356E-04 Eh
   gradient norm :     0.0021619 Eh/α   predicted    -0.1305121E-04 ( -32.60%)
   displ. norm   :     0.0898000 α      lambda       -0.2356452E-04
   maximum displ.:     0.0569142 α      in ANC's #2, #1, #6, ...

........................................................................
.............................. CYCLE   28 ..............................
........................................................................
   1    -83.9292597 -0.839293E+02  0.357E-03    2.44       0.0  T
   2    -83.9292603 -0.599242E-06  0.121E-03    2.44      12.6  T
   3    -83.9292604 -0.275148E-07  0.550E-04    2.44      27.7  T
   4    -83.9292604 -0.114025E-08  0.279E-04    2.44      54.7  T
   5    -83.9292604 -0.460858E-09  0.380E-05    2.44     401.6  T
   6    -83.9292604 -0.218847E-10  0.157E-05    2.44     971.3  T
     SCC iter.                  ...        0 min,  0.023 sec
     gradient                   ...        0 min,  0.083 sec
 * total energy  :   -83.1366092 Eh     change       -0.1777425E-04 Eh
   gradient norm :     0.0018698 Eh/α   predicted    -0.1188748E-04 ( -33.12%)
   displ. norm   :     0.1346121 α      lambda       -0.2008153E-04
   maximum displ.:     0.0893130 α      in ANC's #2, #1, #6, ...

........................................................................
.............................. CYCLE   29 ..............................
........................................................................
   1    -83.9295058 -0.839295E+02  0.380E-03    2.44       0.0  T
   2    -83.9295065 -0.634354E-06  0.141E-03    2.44      10.8  T
   3    -83.9295065 -0.400412E-07  0.636E-04    2.44      24.0  T
   4    -83.9295065 -0.111740E-08  0.292E-04    2.44      52.3  T
   5    -83.9295065 -0.499227E-09  0.434E-05    2.44     351.7  T
   6    -83.9295065 -0.348734E-10  0.172E-05    2.44     884.6  T
     SCC iter.                  ...        0 min,  0.023 sec
     gradient                   ...        0 min,  0.083 sec
 * total energy  :   -83.1366303 Eh     change       -0.2114374E-04 Eh
   gradient norm :     0.0026106 Eh/α   predicted    -0.1012183E-04 ( -52.13%)
   displ. norm   :     0.0794008 α      lambda       -0.1523979E-04
   maximum displ.:     0.0534900 α      in ANC's #2, #1, #6, ...

........................................................................
.............................. CYCLE   30 ..............................
........................................................................
   1    -83.9295081 -0.839295E+02  0.101E-03    2.44       0.0  T
   2    -83.9295081 -0.287243E-07  0.403E-04    2.44      37.8  T
   3    -83.9295081 -0.843627E-09  0.216E-04    2.44      70.7  T
   4    -83.9295081 -0.800355E-10  0.671E-05    2.44     227.3  T
   5    -83.9295081 -0.428315E-10  0.117E-05    2.44    1299.9  T
     SCC iter.                  ...        0 min,  0.020 sec
     gradient                   ...        0 min,  0.083 sec
 * total energy  :   -83.1366438 Eh     change       -0.1348073E-04 Eh
   gradient norm :     0.0022162 Eh/α   predicted    -0.7671400E-05 ( -43.09%)
   displ. norm   :     0.1211232 α      lambda       -0.2416207E-04
   maximum displ.:     0.0834121 α      in ANC's #2, #1, #12, ...

........................................................................
.............................. CYCLE   31 ..............................
........................................................................
   1    -83.9296560 -0.839297E+02  0.227E-03    2.44       0.0  T
   2    -83.9296562 -0.198923E-06  0.908E-04    2.44      16.8  T
   3    -83.9296562 -0.809675E-08  0.479E-04    2.44      31.9  T
   4    -83.9296562 -0.568932E-09  0.202E-04    2.44      75.3  T
   5    -83.9296562 -0.334893E-09  0.234E-05    2.44     651.0  T
   6    -83.9296562 -0.174936E-10  0.908E-06    2.44    1678.9  T
     SCC iter.                  ...        0 min,  0.023 sec
     gradient                   ...        0 min,  0.083 sec
 * total energy  :   -83.1366630 Eh     change       -0.1917405E-04 Eh
   gradient norm :     0.0013257 Eh/α   predicted    -0.1226068E-04 ( -36.06%)
   displ. norm   :     0.1873023 α      lambda       -0.1735961E-04
   maximum displ.:     0.1302449 α      in ANC's #2, #1, #12, ...

........................................................................
.............................. CYCLE   32 ..............................
........................................................................
   1    -83.9294432 -0.839294E+02  0.324E-03    2.44       0.0  T
   2    -83.9294437 -0.419966E-06  0.134E-03    2.44      11.4  T
   3    -83.9294437 -0.279392E-07  0.694E-04    2.44      22.0  T
   4    -83.9294437 -0.165524E-08  0.301E-04    2.44      50.6  T
   5    -83.9294437 -0.547573E-09  0.395E-05    2.44     386.5  T
   6    -83.9294437 -0.431299E-10  0.151E-05    2.44    1009.7  T
     SCC iter.                  ...        0 min,  0.023 sec
     gradient                   ...        0 min,  0.083 sec
 * total energy  :   -83.1366804 Eh     change       -0.1744577E-04 Eh
   gradient norm :     0.0013948 Eh/α   predicted    -0.8817621E-05 ( -49.46%)
   displ. norm   :     0.0794453 α      lambda       -0.7418075E-05
   maximum displ.:     0.0590860 α      in ANC's #2, #1, #12, ...

........................................................................
.............................. CYCLE   33 ..............................
........................................................................
   1    -83.9297383 -0.839297E+02  0.153E-03    2.44       0.0  T
   2    -83.9297384 -0.646167E-07  0.662E-04    2.44      23.0  T
   3    -83.9297384 -0.945332E-08  0.341E-04    2.44      44.7  T
   4    -83.9297384 -0.673808E-09  0.910E-05    2.44     167.6  T
   5    -83.9297384 -0.650431E-10  0.267E-05    2.44     571.0  T
     SCC iter.                  ...        0 min,  0.019 sec
     gradient                   ...        0 min,  0.084 sec
 * total energy  :   -83.1366895 Eh     change       -0.9064550E-05 Eh
   gradient norm :     0.0011695 Eh/α   predicted    -0.3721115E-05 ( -58.95%)
   displ. norm   :     0.1003316 α      lambda       -0.9969056E-05
   maximum displ.:     0.0718715 α      in ANC's #2, #1, #12, ...

........................................................................
.............................. CYCLE   34 ..............................
........................................................................
   1    -83.9296725 -0.839297E+02  0.190E-03    2.44       0.0  T
   2    -83.9296726 -0.106400E-06  0.680E-04    2.44      22.4  T
   3    -83.9296727 -0.120128E-07  0.369E-04    2.44      41.3  T
   4    -83.9296727 -0.858392E-09  0.123E-04    2.44     124.3  T
   5    -83.9296727 -0.105842E-09  0.311E-05    2.44     489.9  T
     SCC iter.                  ...        0 min,  0.019 sec
     gradient                   ...        0 min,  0.084 sec
 * total energy  :   -83.1367007 Eh     change       -0.1119621E-04 Eh
   gradient norm :     0.0009107 Eh/α   predicted    -0.5007385E-05 ( -55.28%)
   displ. norm   :     0.0953938 α      lambda       -0.7899591E-05
   maximum displ.:     0.0692356 α      in ANC's #2, #1, #7, ...

........................................................................
.............................. CYCLE   35 ..............................
........................................................................
   1    -83.9300362 -0.839300E+02  0.169E-03    2.44       0.0  T
   2    -83.9300363 -0.808101E-07  0.579E-04    2.44      26.4  T
   3    -83.9300363 -0.371979E-08  0.342E-04    2.44      44.6  T
   4    -83.9300363 -0.511690E-09  0.108E-04    2.44     141.2  T
   5    -83.9300363 -0.166779E-09  0.316E-05    2.44     483.2  T
     SCC iter.                  ...        0 min,  0.019 sec
     gradient                   ...        0 min,  0.083 sec
 * total energy  :   -83.1367091 Eh     change       -0.8450996E-05 Eh
   gradient norm :     0.0010059 Eh/α   predicted    -0.3969980E-05 ( -53.02%)
   displ. norm   :     0.0819190 α      lambda       -0.4987323E-05
   maximum displ.:     0.0588045 α      in ANC's #2, #1, #7, ...

........................................................................
.............................. CYCLE   36 ..............................
........................................................................
   1    -83.9299410 -0.839299E+02  0.889E-04    2.43       0.0  T
   2    -83.9299410 -0.339208E-07  0.422E-04    2.43      36.1  T
   3    -83.9299410 -0.213346E-08  0.219E-04    2.43      69.6  T
   4    -83.9299410 -0.725038E-10  0.820E-05    2.43     185.9  T
   5    -83.9299410 -0.602824E-10  0.124E-05    2.43    1225.6  T
     SCC iter.                  ...        0 min,  0.019 sec
     gradient                   ...        0 min,  0.083 sec
 * total energy  :   -83.1367152 Eh     change       -0.6067774E-05 Eh
   gradient norm :     0.0008625 Eh/α   predicted    -0.2502341E-05 ( -58.76%)
   displ. norm   :     0.0801830 α      lambda       -0.5206743E-05
   maximum displ.:     0.0569779 α      in ANC's #2, #1, #7, ...

........................................................................
.............................. CYCLE   37 ..............................
........................................................................
   1    -83.9299606 -0.839300E+02  0.110E-03    2.43       0.0  T
   2    -83.9299607 -0.662214E-07  0.559E-04    2.43      27.3  T
   3    -83.9299607 -0.859663E-08  0.233E-04    2.43      65.5  T
   4    -83.9299607 -0.102986E-09  0.101E-04    2.43     151.4  T
   5    -83.9299607 -0.616183E-10  0.168E-05    2.43     909.4  T
     SCC iter.                  ...        0 min,  0.019 sec
     gradient                   ...        0 min,  0.083 sec
 * total energy  :   -83.1367215 Eh     change       -0.6298838E-05 Eh
   gradient norm :     0.0005863 Eh/α   predicted    -0.2613115E-05 ( -58.51%)
   displ. norm   :     0.0976900 α      lambda       -0.5476772E-05
   maximum displ.:     0.0685221 α      in ANC's #2, #1, #3, ...

........................................................................
.............................. CYCLE   38 ..............................
........................................................................
   1    -83.9298762 -0.839299E+02  0.124E-03    2.43       0.0  T
   2    -83.9298763 -0.544755E-07  0.587E-04    2.43      26.0  T
   3    -83.9298763 -0.951515E-08  0.268E-04    2.43      56.8  T
   4    -83.9298763 -0.399552E-09  0.811E-05    2.43     188.1  T
   5    -83.9298763 -0.275975E-10  0.256E-05    2.43     595.4  T
     SCC iter.                  ...        0 min,  0.019 sec
     gradient                   ...        0 min,  0.083 sec
 * total energy  :   -83.1367274 Eh     change       -0.5945821E-05 Eh
   gradient norm :     0.0006412 Eh/α   predicted    -0.2754651E-05 ( -53.67%)
   displ. norm   :     0.0886900 α      lambda       -0.4004721E-05
   maximum displ.:     0.0619012 α      in ANC's #2, #1, #3, ...

........................................................................
.............................. CYCLE   39 ..............................
........................................................................
   1    -83.9297926 -0.839298E+02  0.106E-03    2.43       0.0  T
   2    -83.9297927 -0.435545E-07  0.369E-04    2.43      41.4  T
   3    -83.9297927 -0.344275E-08  0.193E-04    2.44      79.0  T
   4    -83.9297927 -0.532395E-09  0.794E-05    2.44     192.0  T
     SCC iter.                  ...        0 min,  0.016 sec
     gradient                   ...        0 min,  0.083 sec
 * total energy  :   -83.1367317 Eh     change       -0.4270782E-05 Eh
   gradient norm :     0.0007568 Eh/α   predicted    -0.2011272E-05 ( -52.91%)
   displ. norm   :     0.0804984 α      lambda       -0.3050633E-05
   maximum displ.:     0.0556135 α      in ANC's #2, #1, #3, ...

   *** GEOMETRY OPTIMIZATION CONVERGED AFTER 39 ITERATIONS ***

------------------------------------------------------------------------
 total energy gain   :        -0.0308041 Eh      -19.3298 kcal/mol
 total RMSD          :         0.9993851 a0        0.5289 Å
 total power (kW/mol):        -2.0737449 (step)  -14.6555 (real)
------------------------------------------------------------------------

 ANCopt (total)                0 d,  0 h,  0 min,  5.519 sec
 optimizer setup                ...        0 min,  0.001 sec (  0.016%)
 model hessian                  ...        0 min,  0.048 sec (  0.872%)
 ANC generation                 ...        0 min,  0.006 sec (  0.100%)
 coordinate transformation      ...        0 min,  0.001 sec (  0.027%)
 single point calculation       ...        0 min,  5.439 sec ( 98.556%)
 optimization log               ...        0 min,  0.012 sec (  0.221%)
 hessian update                 ...        0 min,  0.001 sec (  0.023%)
 rational function              ...        0 min,  0.006 sec (  0.108%)

================
 final structure:
================
43
 xtb: 6.5.1 (579679a)
C           -5.47593961068889       -2.58479345103518       -0.36254429669743
O           -4.46308639735206       -1.55889810984046       -0.49597727814504
C           -3.33780080246014       -1.74091110669349        0.20967761730823
O           -3.13441600802909       -2.68794216545849        0.91195008408098
C           -2.36500090199898       -0.60487642549789        0.01644049620036
N           -1.19382896638116       -0.76411796711689        0.67431919475449
C           -0.27606161127735        0.15892959401077        0.57477227774239
C            1.01542836517629       -0.00508675137749        1.35756909186688
C            1.06065973923149        1.04614368765926        2.47734277114805
C            1.08622320048780       -1.41355491877985        1.94916246143580
N            2.17301587981696        0.14320441582374        0.46861695257574
C            2.60492111882275        1.29034521714440       -0.09046803375236
O            2.00986674256250        2.36219599144971       -0.05532833238462
C            3.88853165452224        1.13218837615259       -0.80277981852331
N            4.55513560879948        2.03061668132630       -1.45879068108736
N            5.66859310565582        1.41874868142532       -1.94243943967672
C            5.61690695538103        0.18146910215646       -1.55336474879682
C            6.59066808957751       -0.89831825765708       -1.82073562985522
O            4.51450002436735       -0.06485218526095       -0.82740165400492
N           -0.45769065271341        1.27458912028427       -0.15340636864403
C           -1.59824986458415        1.56048962782053       -0.88524809633828
O           -1.70970088947065        2.57723483598230       -1.53862501339918
C           -2.58733617543011        0.50930281552807       -0.74210974025861
O           -3.78405841851576        0.67098167174529       -1.49486329239418
C           -4.61000445196326        1.85794838562813       -1.23617371610750
H           -6.34443050067093       -2.22559968108571       -0.90717466412191
H           -5.10256912371705       -3.51553065938423       -0.79182220836913
H           -5.70764064395598       -2.72314851085909        0.69433405942084
H            0.98752859393396        2.05296660173451        2.07215652949832
H            1.99817027281699        0.94741984579483        3.02187243081503
H            0.23015486490580        0.87867680992909        3.16100324051315
H            0.24253384582225       -1.57344118965155        2.61809534821467
H            2.01227455640738       -1.52976042627864        2.50885780404606
H            1.04921574352172       -2.15841238429340        1.15591565218379
H            2.75204354788553       -0.67551928467312        0.36239634194440
H            7.37932939983171       -0.53054037254130       -2.47305908100259
H            6.08617178509882       -1.74213244615438       -2.29066912075522
H            7.02326130275569       -1.24670421967652       -0.88277745928094
H            0.31342892447490        1.96106398261291       -0.19158391200173
H           -4.32913423786294       -0.16870924275796       -1.37539165657807
H           -4.92240901242688        1.85746567131267       -0.19362611671106
H           -5.45835752055514        1.77413845019845       -1.90962661156677
H           -4.00084653176524        2.72673019040662       -1.47517638325505
 
 Bond Distances (Angstroems)
 ---------------------------
C1-O2=1.4478         C1-H26=1.0862        C1-H27=1.0909        C1-H28=1.0908        O2-C1=1.4478         O2-C3=1.3407         
C3-O2=1.3407         C3-O4=1.1964         C3-C5=1.5081         O4-C3=1.1964         C5-C3=1.5081         C5-N6=1.3527         
C5-C23=1.3661        N6-C5=1.3527         N6-C7=1.3055         C7-N6=1.3055         C7-C8=1.5191         C7-N20=1.3446        
C8-C7=1.5191         C8-C9=1.5366         C8-C10=1.5293        C8-N11=1.4670        C9-C8=1.5366         C9-H29=1.0878        
C9-H30=1.0887        C9-H31=1.0887        C10-C8=1.5293        C10-H32=1.0885       C10-H33=1.0883       C10-H34=1.0888       
N11-C8=1.4670        N11-C12=1.3472       N11-H35=1.0084       C12-N11=1.3472       C12-O13=1.2265       C12-C14=1.4765       
O13-C12=1.2265       C14-C12=1.4765       C14-N15=1.2969       C14-O19=1.3511       N15-C14=1.2969       N15-N16=1.3594       
N16-N15=1.3594       N16-C17=1.2980       C17-N16=1.2980       C17-C18=1.4784       C17-O19=1.3428       C18-C17=1.4784       
C18-H36=1.0876       C18-H37=1.0897       C18-H38=1.0901       O19-C14=1.3511       O19-C17=1.3428       N20-C7=1.3446        
N20-C21=1.3850       N20-H39=1.0331       C21-N20=1.3850       C21-O22=1.2137       C21-C23=1.4504       O22-C21=1.2137       
C23-C5=1.3661        C23-C21=1.4504       C23-O24=1.4230       O24-C23=1.4230       O24-C25=1.4690       O24-H40=1.0082       
C25-O24=1.4690       C25-H41=1.0883       C25-H42=1.0864       C25-H43=1.0876       H26-C1=1.0862        H27-C1=1.0909        
H28-C1=1.0908        H29-C9=1.0878        H30-C9=1.0887        H31-C9=1.0887        H32-C10=1.0885       H33-C10=1.0883       
H34-C10=1.0888       H35-N11=1.0084       H36-C18=1.0876       H37-C18=1.0897       H38-C18=1.0901       H39-N20=1.0331       
H40-O24=1.0082       H41-C25=1.0883       H42-C25=1.0864       H43-C25=1.0876       
 C  H  Rav=1.0885 sigma=0.0013  Rmin=1.0862  Rmax=1.0909    15
 C  C  Rav=1.4831 sigma=0.0521  Rmin=1.3661  Rmax=1.5366     8
 N  H  Rav=1.0208 sigma=0.0124  Rmin=1.0084  Rmax=1.0331     2
 N  C  Rav=1.3496 sigma=0.0530  Rmin=1.2969  Rmax=1.4670     8
 N  N  Rav=1.3594 sigma=0.0000  Rmin=1.3594  Rmax=1.3594     1
 O  H  Rav=1.0082 sigma=0.0000  Rmin=1.0082  Rmax=1.0082     1
 O  C  Rav=1.3345 sigma=0.0969  Rmin=1.1964  Rmax=1.4690     9
 
 selected bond angles (degree)
 --------------------
H26-C1-O2=106.19               H27-C1-O2=109.20               H27-C1-H26=111.01              H28-C1-O2=109.13               
H28-C1-H26=110.97              H28-C1-H27=110.23              C3-O2-C1=116.26                O4-C3-O2=123.99                
C5-C3-O2=111.82                C5-C3-O4=124.18                N6-C5-C3=114.05                C23-C5-C3=125.49               
C23-C5-N6=120.46               C7-N6-C5=119.23                C8-C7-N6=118.82                N20-C7-N6=122.21               
N20-C7-C8=118.91               C9-C8-C7=109.07                C10-C8-C7=109.76               C10-C8-C9=110.29               
N11-C8-C7=110.35               N11-C8-C9=110.44               N11-C8-C10=106.92              H29-C9-C8=111.09               
H30-C9-C8=109.14               H30-C9-H29=109.16              H31-C9-C8=109.27               H31-C9-H29=108.97              
H31-C9-H30=109.20              H32-C10-C8=109.70              H33-C10-C8=109.67              H33-C10-H32=109.14             
H34-C10-C8=110.28              H34-C10-H32=108.72             H34-C10-H33=109.30             
 
 selected dihedral angles (degree)
 ---------------------------------
C3-O2-C1-H26=174.02           C3-O2-C1-H27=293.78           C3-O2-C1-H28= 54.34           O4-C3-O2-C1=  0.70            
C5-C3-O2-C1=181.02            N6-C5-C3-O2=182.08            N6-C5-C3-O4=  2.39            C23-C5-C3-O2=  2.02           
C23-C5-C3-O4=182.33           C7-N6-C5-C3=179.84            C7-N6-C5-C23=359.90           C8-C7-N6-C5=177.80            
N20-C7-N6-C5=  0.57           C9-C8-C7-N6=249.40            C9-C8-C7-N20= 66.72           C10-C8-C7-N6= 10.34           
C10-C8-C7-N20=187.66          N11-C8-C7-N6=127.92           N11-C8-C7-N20=305.24          H29-C9-C8-C7=301.95           
H29-C9-C8-C10=181.33          H29-C9-C8-N11= 63.37          H30-C9-C8-C7=181.54           H30-C9-C8-C10= 60.93          
H30-C9-C8-N11=302.97          H31-C9-C8-C7= 62.20           H31-C9-C8-C10=301.58          H31-C9-C8-N11=183.62          
H32-C10-C8-C7=299.81          H32-C10-C8-C9= 60.00          H32-C10-C8-N11=180.11         H33-C10-C8-C7=179.95          
H33-C10-C8-C9=300.15          H33-C10-C8-N11= 60.25         H34-C10-C8-C7= 59.53          H34-C10-C8-C9=179.72          
H34-C10-C8-N11=299.83         
           -------------------------------------------------
          |                Final Singlepoint                |
           -------------------------------------------------

          ...................................................
          :                      SETUP                      :
          :.................................................:
          :  # basis functions                 136          :
          :  # atomic orbitals                 136          :
          :  # shells                           86          :
          :  # electrons                       134          :
          :  # halogen bonds                     0          :
          :  max. iterations                   250          :
          :  Hamiltonian                  GFN1-xTB          :
          :  restarted?                      false          :
          :  GBSA solvation                   true          :
          :  PC potential                    false          :
          :  electronic temp.          300.0000000     K    :
          :  accuracy                    1.0000000          :
          :  -> integral cutoff          0.2500000E+02      :
          :  -> integral neglect         0.1000000E-07      :
          :  -> SCF convergence          0.1000000E-05 Eh   :
          :  -> wf. convergence          0.2000000E-04 e    :
          :  Broyden damping             0.4000000          :
          ...................................................

 iter      E             dE          RMSdq      gap      omega  full diag
   1    -83.9297927 -0.839298E+02  0.260E-05    2.44       0.0  T
   2    -83.9297927 -0.356692E-11  0.132E-05    2.44    1155.0  T
   3    -83.9297927 -0.383693E-12  0.431E-06    2.44    3534.8  T

   *** convergence criteria satisfied after 3 iterations ***

         #    Occupation            Energy/Eh            Energy/eV
      -------------------------------------------------------------
         1        2.0000           -0.9291195             -25.2826
       ...           ...                  ...                  ...
        61        2.0000           -0.4885973             -13.2954
        62        2.0000           -0.4845907             -13.1864
        63        2.0000           -0.4795319             -13.0487
        64        2.0000           -0.4781725             -13.0117
        65        2.0000           -0.4729961             -12.8709
        66        2.0000           -0.4605985             -12.5335
        67        2.0000           -0.4596950             -12.5089 (HOMO)
        68                         -0.3701970             -10.0736 (LUMO)
        69                         -0.3251360              -8.8474
        70                         -0.3193597              -8.6902
        71                         -0.2762027              -7.5159
        72                         -0.2636077              -7.1731
       ...                                ...                  ...
       136                          0.7318711              19.9152
      -------------------------------------------------------------
                  HL-Gap            0.0894980 Eh            2.4354 eV
             Fermi-level           -0.4149460 Eh          -11.2913 eV

 SCC (total)                   0 d,  0 h,  0 min,  0.135 sec
 SCC setup                      ...        0 min,  0.002 sec (  1.357%)
 Dispersion                     ...        0 min,  0.000 sec (  0.280%)
 classical contributions        ...        0 min,  0.000 sec (  0.083%)
 integral evaluation            ...        0 min,  0.035 sec ( 26.149%)
 iterations                     ...        0 min,  0.012 sec (  9.043%)
 molecular gradient             ...        0 min,  0.084 sec ( 62.319%)
 printout                       ...        0 min,  0.001 sec (  0.719%)

         :::::::::::::::::::::::::::::::::::::::::::::::::::::
         ::                     SUMMARY                     ::
         :::::::::::::::::::::::::::::::::::::::::::::::::::::
         :: total energy             -83.136731699018 Eh    ::
         :: total w/o Gsasa/hb       -83.113378917773 Eh    ::
         :: gradient norm              0.000757489321 Eh/a0 ::
         :: HOMO-LUMO gap              2.435364055406 eV    ::
         ::.................................................::
         :: SCC energy               -83.929792689253 Eh    ::
         :: -> electrostatic           0.413505232524 Eh    ::
         :: -> Gsolv                  -0.117300485316 Eh    ::
         ::    -> Gelec               -0.093947704071 Eh    ::
         ::    -> Gsasa               -0.025500073957 Eh    ::
         ::    -> Ghb                 -0.005476986293 Eh    ::
         ::    -> Gshift               0.007624279005 Eh    ::
         :: repulsion energy           0.819291343013 Eh    ::
         :: dispersion energy         -0.026230352779 Eh    ::
         :: halogen bond corr.         0.000000000000 Eh    ::
         :: add. restraining           0.000000000000 Eh    ::
         :: total charge               1.000000000000 e     ::
         :::::::::::::::::::::::::::::::::::::::::::::::::::::

           -------------------------------------------------
          |                Property Printout                |
           -------------------------------------------------

    * Orbital Energies and Occupations

         #    Occupation            Energy/Eh            Energy/eV
      -------------------------------------------------------------
         1        2.0000           -0.9291195             -25.2826
       ...           ...                  ...                  ...
        55        2.0000           -0.5258287             -14.3085
        56        2.0000           -0.5234788             -14.2446
        57        2.0000           -0.5203930             -14.1606
        58        2.0000           -0.5150249             -14.0145
        59        2.0000           -0.5131411             -13.9633
        60        2.0000           -0.4972371             -13.5305
        61        2.0000           -0.4885973             -13.2954
        62        2.0000           -0.4845907             -13.1864
        63        2.0000           -0.4795319             -13.0487
        64        2.0000           -0.4781725             -13.0117
        65        2.0000           -0.4729961             -12.8709
        66        2.0000           -0.4605985             -12.5335
        67        2.0000           -0.4596950             -12.5089 (HOMO)
        68                         -0.3701970             -10.0736 (LUMO)
        69                         -0.3251360              -8.8474
        70                         -0.3193597              -8.6902
        71                         -0.2762027              -7.5159
        72                         -0.2636077              -7.1731
        73                         -0.2118022              -5.7634
        74                         -0.2066273              -5.6226
        75                         -0.1710886              -4.6556
        76                         -0.1693730              -4.6089
        77                         -0.1532076              -4.1690
        78                         -0.1450812              -3.9479
       ...                                ...                  ...
       136                          0.7318711              19.9152
      -------------------------------------------------------------
                  HL-Gap            0.0894980 Eh            2.4354 eV
             Fermi-level           -0.4149460 Eh          -11.2913 eV

  Mulliken/CM5 charges         n(s)   n(p)   n(d)
     1C     0.15849  0.03563   0.994  2.848  0.000
     2O    -0.43501 -0.54796   1.695  4.740  0.000
     3C     0.59053  0.65668   0.967  2.442  0.000
     4O    -0.49879 -0.54424   1.715  4.783  0.000
     5C     0.13326  0.21232   1.057  2.809  0.000
     6N    -0.34670 -0.53274   1.520  3.827  0.000
     7C     0.31028  0.46256   1.033  2.657  0.000
     8C     0.15082  0.19036   1.065  2.784  0.000
     9C    -0.11031 -0.25012   1.024  3.086  0.000
    10C    -0.10958 -0.24881   1.023  3.087  0.000
    11N    -0.34305 -0.69689   1.435  3.909  0.000
    12C     0.46992  0.57810   0.979  2.551  0.000
    13O    -0.57742 -0.64048   1.723  4.854  0.000
    14C     0.33307  0.45887   1.001  2.666  0.000
    15N    -0.20989 -0.31382   1.564  3.645  0.000
    16N    -0.26092 -0.36835   1.562  3.699  0.000
    17C     0.39532  0.50370   1.010  2.595  0.000
    18C    -0.11228 -0.24966   1.013  3.099  0.000
    19O    -0.35638 -0.41398   1.696  4.660  0.000
    20N    -0.26713 -0.60598   1.448  3.820  0.000
    21C     0.47086  0.57228   0.972  2.557  0.000
    22O    -0.55029 -0.59594   1.719  4.831  0.000
    23C     0.15787  0.18718   1.036  2.806  0.000
    24O    -0.32436 -0.54968   1.680  4.644  0.000
    25C     0.13955  0.01074   1.016  2.845  0.000
    26H     0.07384  0.13424   0.926  0.000  0.000
    27H     0.07487  0.13608   0.925  0.000  0.000
    28H     0.07534  0.13773   0.925  0.000  0.000
    29H     0.06586  0.12884   0.934  0.000  0.000
    30H     0.06669  0.12280   0.933  0.000  0.000
    31H     0.05717  0.11196   0.943  0.000  0.000
    32H     0.06047  0.11840   0.940  0.000  0.000
    33H     0.06329  0.11920   0.937  0.000  0.000
    34H     0.05916  0.11779   0.941  0.000  0.000
    35H     0.27796  0.48389   0.722  0.000  0.000
    36H     0.07288  0.12858   0.927  0.000  0.000
    37H     0.08232  0.13700   0.918  0.000  0.000
    38H     0.08395  0.13839   0.916  0.000  0.000
    39H     0.31921  0.53637   0.681  0.000  0.000
    40H     0.46324  0.65644   0.537  0.000  0.000
    41H     0.08669  0.14647   0.913  0.000  0.000
    42H     0.10282  0.16291   0.897  0.000  0.000
    43H     0.10636  0.17316   0.894  0.000  0.000

Wiberg/Mayer (AO) data.
largest (>0.10) Wiberg bond orders for each atom

 ---------------------------------------------------------------------------
     #   Z sym  total        # sym  WBO       # sym  WBO       # sym  WBO
 ---------------------------------------------------------------------------
     1   6 C    3.827 --    26 H    0.985    28 H    0.978    27 H    0.978
                             2 O    0.851
     2   8 O    2.232 --     3 C    1.087     1 C    0.851     4 O    0.138
     3   6 C    3.849 --     4 O    1.730     2 O    1.087     5 C    0.962
     4   8 O    1.989 --     3 C    1.730     2 O    0.138
     5   6 C    3.972 --    23 C    1.536     6 N    1.251     3 C    0.962
     6   7 N    3.028 --     7 C    1.492     5 C    1.251
     7   6 C    3.917 --     6 N    1.492    20 N    1.270     8 C    0.973
     8   6 C    3.932 --    10 C    1.000     7 C    0.973     9 C    0.972
                            11 N    0.923
     9   6 C    3.984 --    31 H    0.984    30 H    0.981    29 H    0.979
                             8 C    0.972
    10   6 C    3.987 --     8 C    1.000    33 H    0.983    34 H    0.983
                            32 H    0.981
    11   7 N    3.350 --    12 C    1.269     8 C    0.923    35 H    0.886
                            13 O    0.169
    12   6 C    3.912 --    13 O    1.544    11 N    1.269    14 C    1.007
    13   8 O    1.927 --    12 C    1.544    11 N    0.169
    14   6 C    3.877 --    15 N    1.614    19 O    1.046    12 C    1.007
    15   7 N    3.004 --    14 C    1.614    16 N    1.207
    16   7 N    2.983 --    17 C    1.601    15 N    1.207
    17   6 C    3.865 --    16 N    1.601    19 O    1.074    18 C    1.033
    18   6 C    3.985 --    17 C    1.033    36 H    0.982    37 H    0.963
                            38 H    0.960
    19   8 O    2.318 --    17 C    1.074    14 C    1.046
    20   7 N    3.500 --     7 C    1.270    21 C    1.104    39 H    0.806
                            22 O    0.126
    21   6 C    3.919 --    22 O    1.606    20 N    1.104    23 C    1.103
    22   8 O    1.929 --    21 C    1.606    20 N    0.126
    23   6 C    3.826 --     5 C    1.536    21 C    1.103    24 O    0.868
    24   8 O    2.438 --    23 C    0.868    25 C    0.792    40 H    0.685
    25   6 C    3.765 --    41 H    0.983    42 H    0.977    43 H    0.973
                            24 O    0.792
    26   1 H    1.004 --     1 C    0.985
    27   1 H    1.000 --     1 C    0.978
    28   1 H    1.001 --     1 C    0.978
    29   1 H    1.005 --     9 C    0.979
    30   1 H    0.997 --     9 C    0.981
    31   1 H    0.998 --     9 C    0.984
    32   1 H    1.005 --    10 C    0.981
    33   1 H    0.996 --    10 C    0.983
    34   1 H    1.000 --    10 C    0.983
    35   1 H    0.930 --    11 N    0.886
    36   1 H    0.997 --    18 C    0.982
    37   1 H    0.996 --    18 C    0.963
    38   1 H    0.996 --    18 C    0.960
    39   1 H    0.911 --    20 N    0.806
    40   1 H    0.800 --    24 O    0.685
    41   1 H    0.993 --    25 C    0.983
    42   1 H    0.992 --    25 C    0.977
    43   1 H    1.006 --    25 C    0.973
 ---------------------------------------------------------------------------

Topologies differ in total number of bonds
Writing topology from bond orders to xtbtopo.mol

 dipole moment from electron density (au)
     X       Y       Z   
  -5.2136  -2.7503  -0.3384  total (Debye):   15.007

           -------------------------------------------------
          |                Geometry Summary                 |
           -------------------------------------------------

      molecular mass/u    :      352.3231817
   center of mass at/Å    :        0.1673866       0.2219201      -0.2769183
  moments of inertia/u·Å² :        0.1177110E+04   0.4929159E+04   0.5350970E+04
rotational constants/cm⁻¹ :        0.1432120E-01   0.3419981E-02   0.3150388E-02

 * 38 selected distances

     #   Z          #   Z                                           value/Å
     2   8 O        3   6 C                                       1.3406512
     3   6 C        4   8 O                                       1.1964197
     5   6 C        6   7 N                                       1.3527033
     6   7 N        7   6 C                                       1.3054592
     8   6 C        9   6 C                                       1.5365627 (max)
     8   6 C       10   6 C                                       1.5293063
     8   6 C       11   7 N                                       1.4670499
    11   7 N       12   6 C                                       1.3472381
    12   6 C       13   8 O                                       1.2264538
    14   6 C       15   7 N                                       1.2968750
    16   7 N       17   6 C                                       1.2980415
    17   6 C       18   6 C                                       1.4783907
    14   6 C       19   8 O                                       1.3510548
    17   6 C       19   8 O                                       1.3427576
     7   6 C       20   7 N                                       1.3445928
    20   7 N       21   6 C                                       1.3849935
    21   6 C       22   8 O                                       1.2137108
     5   6 C       23   6 C                                       1.3660993
    23   6 C       24   8 O                                       1.4229977
    24   8 O       25   6 C                                       1.4690124
     1   6 C       26   1 H                                       1.0862408
     1   6 C       27   1 H                                       1.0908515
     1   6 C       28   1 H                                       1.0907885
     9   6 C       29   1 H                                       1.0877576
     9   6 C       30   1 H                                       1.0886621
     9   6 C       31   1 H                                       1.0886576
    10   6 C       32   1 H                                       1.0885067
    10   6 C       33   1 H                                       1.0882711
    10   6 C       34   1 H                                       1.0887713
    11   7 N       35   1 H                                       1.0083970
    18   6 C       36   1 H                                       1.0875538
    18   6 C       37   1 H                                       1.0896681
    18   6 C       38   1 H                                       1.0900805
    20   7 N       39   1 H                                       1.0331171
    24   8 O       40   1 H                                       1.0081975 (min)
    25   6 C       41   1 H                                       1.0883485
    25   6 C       42   1 H                                       1.0864005
    25   6 C       43   1 H                                       1.0876478

 * 6 distinct bonds (by element types)

   Z      Z             #   av. dist./Å        max./Å        min./Å
   1 H    6 C          15     1.0885471     1.0908515     1.0862408
   6 C    6 C           4     1.4775897     1.5365627     1.3660993
   1 H    7 N           2     1.0207570     1.0331171     1.0083970
   6 C    7 N           8     1.3496192     1.4670499     1.2968750
   1 H    8 O           1     1.0081975     1.0081975     1.0081975
   6 C    8 O           8     1.3203822     1.4690124     1.1964197


optimized geometry written to: xtbopt.xyz


           -------------------------------------------------
          | TOTAL ENERGY              -83.136731699018 Eh   |
          | GRADIENT NORM               0.000757489321 Eh/α |
          | HOMO-LUMO GAP               2.435364055406 eV   |
           -------------------------------------------------

------------------------------------------------------------------------
 * finished run on 2023/06/20 at 15:22:33.197     
------------------------------------------------------------------------
 total:
 * wall-time:     0 d,  0 h,  0 min,  5.910 sec
 *  cpu-time:     0 d,  0 h,  0 min,  5.854 sec
 * ratio c/w:     0.991 speedup
 SCF:
 * wall-time:     0 d,  0 h,  0 min,  0.157 sec
 *  cpu-time:     0 d,  0 h,  0 min,  0.157 sec
 * ratio c/w:     0.999 speedup
 ANC optimizer:
 * wall-time:     0 d,  0 h,  0 min,  5.659 sec
 *  cpu-time:     0 d,  0 h,  0 min,  5.647 sec
 * ratio c/w:     0.998 speedup

