20
 energy: -38.355195987615 gnorm: 0.000689709420 xtb: 6.5.1 (579679a)
C            4.11943711455132       -0.12942719926357       -0.53067728302671
O            2.76229505814312       -0.04061170650762       -0.92578597168047
C            1.84447396933278       -0.07873742891634        0.12364132049807
O            2.24087071448268       -0.16946405398769        1.29370952398264
C            0.52163346806083       -0.00400294431400       -0.34293796012940
N            0.12279686334159        0.08318906919611       -1.61126711750929
N           -1.16563096090965        0.12801449006846       -1.69445379978069
C           -1.70806474159991        0.06391960120713       -0.32545475893991
C           -2.51239538806695        1.33962614101807       -0.02867767130515
C           -2.58711564313629       -1.18819865295408       -0.17628879001382
O           -0.58109111804542       -0.02029012938498        0.53253495366497
H            4.38079446791570        0.67293748876455        0.16894939383364
H            4.32776761238101       -1.09268568026022       -0.05043558803994
H            4.72468650504449       -0.03566531651703       -1.43298225375986
H           -3.35356052581879        1.41162287846578       -0.71496028431197
H           -2.88248156544893        1.32164005002780        0.99486343650456
H           -1.87059736593870        2.20958269495377       -0.15980221199248
H           -3.42398190425841       -1.13521056523035       -0.86953050932096
H           -1.99399063015019       -2.07333750473275       -0.40098294753352
H           -2.96584592987968       -1.26290123163296        0.84149951886024
