43
 energy: -76.174836739491 gnorm: 0.000605686502 xtb: 6.5.1 (579679a)
C           -3.95210404952109       -0.98815719774056        1.67272530808379
N           -2.72624871260553       -0.85435403583607        0.88561916021577
C           -2.42830961101339        0.22659164325750        0.08938892805782
C           -3.35951444381437        1.43117597775191       -0.10604214856093
C           -4.80418357056362        1.04311086625613       -0.44914271067592
C           -3.29432261588858        2.35012514832416        1.12336584920943
N           -2.85743933085549        2.20336086436951       -1.23811559710106
N           -1.30266571276084        0.30474442766101       -0.54656176606880
C           -0.35247769634661       -0.67441108073280       -0.48049483892974
C            0.89266514184582       -0.36240005580964       -1.25885843963184
O            0.96449288598065        0.62549739581879       -1.98102596429231
N            1.91408940715403       -1.22938284403363       -1.11419365704222
C            3.19148339334129       -0.99623823280995       -1.77834362355825
C            4.14887138141062       -0.24495771209466       -0.87653599066189
C            3.88709322213772        1.07973342462959       -0.52829248019821
C            4.75564088780366        1.77753606437317        0.29773892314786
C            5.88520094907212        1.12707171290184        0.76215858590015
F            6.73266095830554        1.79750133777529        1.56086319463781
C            6.17731160369477       -0.18423898024191        0.43589426233912
C            5.29420815576681       -0.86874857136678       -0.38911040948629
C           -0.61295058432164       -1.79650491943970        0.24953781601273
O            0.22596806321540       -2.84693809747849        0.36895353579358
C           -1.86032241562820       -1.92900343783494        0.97643306098263
O           -2.11176754727859       -2.93151434815616        1.64365320411903
H           -4.23191383787473       -0.03375496536694        2.10568154206653
H           -4.75679158859588       -1.36923158626000        1.04516853637243
H           -3.75789144850759       -1.70087670346858        2.47399835673387
H           -5.27119886610595        1.88283916759829       -0.96411652391756
H           -4.82211578640484        0.17793322583354       -1.11063942519988
H           -5.39197905882865        0.82519606538204        0.43877422590741
H           -2.25773922154802        2.61078660393248        1.33538446889403
H           -3.72188277624166        1.87789984498962        2.00471975253842
H           -3.85088763190029        3.26263899368642        0.91190658015229
H           -1.88290448422825        2.43677152313018       -1.06844069142364
H           -2.88241391250566        1.61869995329183       -2.06570450397639
H            1.86743301924470       -1.99221089184180       -0.45999838298650
H            2.99665234432126       -0.41549845243275       -2.68643688353161
H            3.61155646579187       -1.96535188376846       -2.05754055797520
H            2.99837681367482        1.57048111257541       -0.90825024097567
H            4.56562125804631        2.80630741137344        0.57525111758342
H            7.07165356622571       -0.65821346994397        0.81837547717268
H            5.50482960060460       -1.89770359510960       -0.65587140030560
H           -0.19578521429810       -3.51091870313964        0.94812135057450
