47
 energy: -80.185690219275 gnorm: 0.000315150047 xtb: 6.5.1 (579679a)
C           -0.12343773043726       -3.12093542940689       -1.61485168980963
O            0.77962510355838       -2.03424314640197       -1.46994297243416
C            0.97478509543401       -1.58609970795494       -0.15562631165116
N            2.10495058148162       -2.19286705993107        0.47819118711406
C            3.37886583684900       -1.95446872254083       -0.22644568353183
C            3.73553518364388       -0.49023833630348       -0.18986716013017
C            3.12408282955572        0.39781095573683       -1.07962106943989
C            3.37182300831276        1.76158566548418       -1.00279304302458
C            4.23511604743938        2.21678002076402       -0.02428176855452
F            4.48917989024287        3.54067768545373        0.05069075188324
C            4.86074555400389        1.36972077404132        0.87388623081230
C            4.59447235355805        0.01048949823412        0.78735609190673
C            0.07394839968700       -0.75382766956436        0.45133393105393
N           -1.06592153997411       -0.40672569716414       -0.29567060753311
C           -1.97751410182731        0.37899288523444        0.16644859554996
C           -3.16734413471474        0.62517090576348       -0.76909574915967
C           -2.86901363375483        0.01418050154620       -2.14928243727389
C           -4.43448938352084       -0.03591765473624       -0.20872056314084
N           -3.40754229518390        2.06376910844608       -0.92614618789370
N           -1.91866674121882        0.94949149778830        1.40804766246959
C           -2.94706776528733        1.79935808827791        1.99393701049488
C           -0.81366586540391        0.64495763436822        2.28413765874212
O           -0.79965752898541        1.15060197310860        3.44437293662808
C            0.15295788989606       -0.18432753024684        1.76138890479961
O            1.25215003311785       -0.47379325925660        2.60025684380054
H            0.19098123619063       -3.98666570556811       -1.01608117104523
H           -1.13914275646164       -2.83077626487023       -1.31363541788803
H           -0.13098281613715       -3.40150444915363       -2.67062700041778
H            2.19345390484920       -1.84572509237363        1.43284173559536
H            3.27079966352469       -2.30486072684921       -1.25781177517834
H            4.14952113332777       -2.55366337600211        0.26730666320025
H            2.46046850464171        0.01871757723262       -1.84899221176281
H            2.91318350216552        2.45980591809442       -1.69126338107182
H            5.53852198296569        1.76655426678935        1.61817067673610
H            5.07425175476563       -0.66871636697029        1.48333397500332
H           -1.94532005632301        0.42568827782365       -2.55477908733795
H           -2.76232220170064       -1.06738818997073       -2.07030562765806
H           -3.68639753667300        0.23976088239643       -2.83252071199896
H           -5.23980237838426        0.03155443010024       -0.93970865351959
H           -4.24360031955108       -1.08831561983793        0.00131379134159
H           -4.76614790645890        0.44974766795424        0.70667000658018
H           -2.65590158091841        2.47546678076738       -1.46486252398647
H           -4.25923907814265        2.19531427597772       -1.45208576905269
H           -3.45344510244934        2.38124175807114        1.22708156515493
H           -2.47069661237594        2.48451470163689        2.69977720310672
H           -3.68024286224154        1.19954114646633        2.54183441529152
H            1.03814043893315       -0.07043587244969        3.45802373722576
