      -----------------------------------------------------------      
     |                   =====================                   |     
     |                           x T B                           |     
     |                   =====================                   |     
     |                         S. Grimme                         |     
     |          Mulliken Center for Theoretical Chemistry        |     
     |                    University of Bonn                     |     
      -----------------------------------------------------------      

   * xtb version 6.5.1 (579679a) compiled by 'ehlert@majestix' on 2022-07-11

   xtb is free software: you can redistribute it and/or modify it under
   the terms of the GNU Lesser General Public License as published by
   the Free Software Foundation, either version 3 of the License, or
   (at your option) any later version.
   
   xtb is distributed in the hope that it will be useful,
   but WITHOUT ANY WARRANTY; without even the implied warranty of
   MERCHANTABILITY or FITNESS FOR A PARTICULAR PURPOSE.  See the
   GNU Lesser General Public License for more details.
   
   Cite this work as:
   * C. Bannwarth, E. Caldeweyher, S. Ehlert, A. Hansen, P. Pracht,
     J. Seibert, S. Spicher, S. Grimme, WIREs Comput. Mol. Sci., 2020, 11,
     e01493. DOI: 10.1002/wcms.1493
   
   for GFN2-xTB:
   * C. Bannwarth, S. Ehlert and S. Grimme., J. Chem. Theory Comput., 2019,
     15, 1652-1671. DOI: 10.1021/acs.jctc.8b01176
   for GFN1-xTB:
   * S. Grimme, C. Bannwarth, P. Shushkov, J. Chem. Theory Comput., 2017,
     13, 1989-2009. DOI: 10.1021/acs.jctc.7b00118
   for GFN0-xTB:
   * P. Pracht, E. Caldeweyher, S. Ehlert, S. Grimme, ChemRxiv, 2019, preprint.
     DOI: 10.26434/chemrxiv.8326202.v1
   for GFN-FF:
   * S. Spicher and S. Grimme, Angew. Chem. Int. Ed., 2020, 59, 15665-15673.
     DOI: 10.1002/anie.202004239
   
   for ALPB and GBSA implicit solvation:
   * S. Ehlert, M. Stahn, S. Spicher, S. Grimme, J. Chem. Theory Comput.,
     2021, 17, 4250-4261. DOI: 10.1021/acs.jctc.1c00471
   
   for DFT-D4:
   * E. Caldeweyher, C. Bannwarth and S. Grimme, J. Chem. Phys., 2017,
     147, 034112. DOI: 10.1063/1.4993215
   * E. Caldeweyher, S. Ehlert, A. Hansen, H. Neugebauer, S. Spicher,
     C. Bannwarth and S. Grimme, J. Chem. Phys., 2019, 150, 154122.
     DOI: 10.1063/1.5090222
   * E. Caldeweyher, J.-M. Mewes, S. Ehlert and S. Grimme, Phys. Chem. Chem. Phys.
     2020, 22, 8499-8512. DOI: 10.1039/D0CP00502A
   
   for sTDA-xTB:
   * S. Grimme and C. Bannwarth, J. Chem. Phys., 2016, 145, 054103.
     DOI: 10.1063/1.4959605
   
   in the mass-spec context:
   * V. Asgeirsson, C. Bauer and S. Grimme, Chem. Sci., 2017, 8, 4879.
     DOI: 10.1039/c7sc00601b
   * J. Koopman and S. Grimme, ACS Omega 2019, 4, 12, 15120-15133.
     DOI: 10.1021/acsomega.9b02011
   
   for metadynamics refer to:
   * S. Grimme, J. Chem. Theory Comput., 2019, 155, 2847-2862
     DOI: 10.1021/acs.jctc.9b00143
   
   for SPH calculations refer to:
   * S. Spicher and S. Grimme, J. Chem. Theory Comput., 2021, 17, 1701-1714
     DOI: 10.1021/acs.jctc.0c01306
   
   with help from (in alphabetical order)
   P. Atkinson, C. Bannwarth, F. Bohle, G. Brandenburg, E. Caldeweyher
   M. Checinski, S. Dohm, S. Ehlert, S. Ehrlich, I. Gerasimov, C. Hölzer
   A. Katbashev, J. Koopman, C. Lavigne, S. Lehtola, F. März, M. Müller,
   F. Musil, H. Neugebauer, J. Pisarek, C. Plett, P. Pracht, F. Pultar,
   J. Seibert, P. Shushkov, S. Spicher, M. Stahn, M. Steiner, T. Strunk,
   J. Stückrath, T. Rose, and J. Unsleber
   
 * started run on 2023/06/20 at 14:56:01.116     

           -------------------------------------------------
          |                Calculation Setup                |
           -------------------------------------------------

          program call               : /lustre/hpc/kemi/ree/PhD/git/ReactivityQM/dep/xtb-6.5.1/bin/xtb --gfn 1 /lustre/hpc/kemi/ree/PhD/git/ReactivityQM/calculations/RaltegravirCLI/reac02prodE01/conf13/RaltegravirCLI_reac02prodE01_conf13_gfn1.xyz --opt --vfukui --chrg -1 --uhf 0 --alpb DMSO
          hostname                   : node308
          coordinate file            : /lustre/hpc/kemi/ree/PhD/git/ReactivityQM/calculations/RaltegravirCLI/reac02prodE01/conf13/RaltegravirCLI_reac02prodE01_conf13_gfn1.xyz
          omp threads                :                     1

   ID    Z sym.   atoms
    1    6 C      1, 3-6, 9-11, 14-18, 20-22, 24
    2    7 N      2, 7, 8, 13
    3    8 O      12, 23, 25
    4    9 F      19
    5    1 H      26-47

           -------------------------------------------------
          |                 G F N 1 - x T B                 |
           -------------------------------------------------

        Reference                      10.1021/acs.jctc.7b00118
      * Hamiltonian:
        H0-scaling (s, p, d)           1.850000    2.250000    2.000000
        zeta-weighting                 0.000000
      * Dispersion:
        s8                             2.400000
        a1                             0.630000
        a2                             5.000000
        s9                             0.000000
      * Repulsion:
        kExp                           1.500000
        rExp                           1.000000
      * Coulomb:
        alpha                          2.000000
        third order                    atomic
        anisotropic                    false
      * Halogen bond correction:
        rad-scale                      1.300000
        damping                        0.440000

      * Solvation model:               ALPB
        Solvent                        DMSO
        Parameter file                 internal GFN1-xTB/ALPB
        Dielectric constant                4.6680E+01
        Reference state                gsolv [1 M gas/solution]
        Free energy shift                  7.6243E-03 Eh       4.7843E+00 kcal/mol
        Temperature                        2.9815E+02 K
        Density                            1.1000E+00 kg/L
        Solvent mass                       7.8130E+01 g/mol
        Interaction kernel             P16
        Born radius scaling (c1)           1.7672E+00
        Born radii integrator          GBOBC
        Born offset                        0.0000E+00 a0       0.0000E+00 AA
        H-bond correction              true
        Ion screening                  false
        Surface tension                    1.0000E-05 Eh       1.5569E+01 dyn/cm
        Grid points                               230 per atom

          ...................................................
          :                      SETUP                      :
          :.................................................:
          :  # basis functions                 144          :
          :  # atomic orbitals                 144          :
          :  # shells                           94          :
          :  # electrons                       136          :
          :  # halogen bonds                     0          :
          :  max. iterations                   250          :
          :  Hamiltonian                  GFN1-xTB          :
          :  restarted?                      false          :
          :  GBSA solvation                   true          :
          :  PC potential                    false          :
          :  electronic temp.          300.0000000     K    :
          :  accuracy                    1.0000000          :
          :  -> integral cutoff          0.2500000E+02      :
          :  -> integral neglect         0.1000000E-07      :
          :  -> SCF convergence          0.1000000E-05 Eh   :
          :  -> wf. convergence          0.2000000E-04 e    :
          :  Broyden damping             0.4000000          :
          ...................................................

 iter      E             dE          RMSdq      gap      omega  full diag
   1    -80.8449597 -0.808450E+02  0.869E+00    3.38       0.0  T
   2    -81.0421535 -0.197194E+00  0.520E+00    2.17       1.0  T
   3    -81.0306138  0.115397E-01  0.976E-01    1.18       1.0  T
   4    -81.0525404 -0.219266E-01  0.201E-01    1.37       1.0  T
   5    -81.0539885 -0.144809E-02  0.463E-02    1.60       1.0  T
   6    -81.0540645 -0.759897E-04  0.989E-03    1.61       1.5  T
   7    -81.0540678 -0.334786E-05  0.360E-03    1.61       4.1  T
   8    -81.0540682 -0.345178E-06  0.126E-03    1.61      11.6  T
   9    -81.0540682 -0.110400E-07  0.405E-04    1.61      36.0  T
  10    -81.0540682 -0.153132E-08  0.936E-05    1.61     155.9  T
  11    -81.0540682 -0.124771E-09  0.328E-05    1.61     444.9  T

   *** convergence criteria satisfied after 11 iterations ***

         #    Occupation            Energy/Eh            Energy/eV
      -------------------------------------------------------------
         1        2.0000           -0.8493432             -23.1118
       ...           ...                  ...                  ...
        62        2.0000           -0.4194542             -11.4139
        63        2.0000           -0.4115341             -11.1984
        64        2.0000           -0.4030033             -10.9663
        65        2.0000           -0.3818036             -10.3894
        66        2.0000           -0.3577759              -9.7356
        67        2.0000           -0.3336946              -9.0803
        68        2.0000           -0.3255961              -8.8599 (HOMO)
        69                         -0.2663001              -7.2464 (LUMO)
        70                         -0.2576559              -7.0112
        71                         -0.2517828              -6.8514
        72                         -0.2391986              -6.5089
        73                         -0.1349793              -3.6730
       ...                                ...                  ...
       144                          0.7041982              19.1622
      -------------------------------------------------------------
                  HL-Gap            0.0592960 Eh            1.6135 eV
             Fermi-level           -0.2959481 Eh           -8.0532 eV

 SCC (total)                   0 d,  0 h,  0 min,  0.231 sec
 SCC setup                      ...        0 min,  0.002 sec (  0.770%)
 Dispersion                     ...        0 min,  0.000 sec (  0.148%)
 classical contributions        ...        0 min,  0.000 sec (  0.053%)
 integral evaluation            ...        0 min,  0.032 sec ( 14.013%)
 iterations                     ...        0 min,  0.097 sec ( 41.889%)
 molecular gradient             ...        0 min,  0.098 sec ( 42.638%)
 printout                       ...        0 min,  0.001 sec (  0.464%)

         :::::::::::::::::::::::::::::::::::::::::::::::::::::
         ::                     SUMMARY                     ::
         :::::::::::::::::::::::::::::::::::::::::::::::::::::
         :: total energy             -80.192650577460 Eh    ::
         :: total w/o Gsasa/hb       -80.169398251234 Eh    ::
         :: gradient norm              0.085461377704 Eh/a0 ::
         :: HOMO-LUMO gap              1.613526139436 eV    ::
         ::.................................................::
         :: SCC energy               -81.054068188575 Eh    ::
         :: -> electrostatic           0.400299044085 Eh    ::
         :: -> Gsolv                  -0.113863589465 Eh    ::
         ::    -> Gelec               -0.090611263238 Eh    ::
         ::    -> Gsasa               -0.024585892827 Eh    ::
         ::    -> Ghb                 -0.006290712404 Eh    ::
         ::    -> Gshift               0.007624279005 Eh    ::
         :: repulsion energy           0.891840720347 Eh    ::
         :: dispersion energy         -0.030423109232 Eh    ::
         :: halogen bond corr.         0.000000000000 Eh    ::
         :: add. restraining           0.000000000000 Eh    ::
         :: total charge              -1.000000000000 e     ::
         :::::::::::::::::::::::::::::::::::::::::::::::::::::

      ----------------------------------------------------------- 
     |                   =====================                   |
     |                        A N C O P T                        |
     |                   =====================                   |
     |               Approximate Normal Coordinate               |
     |                Rational Function Optimizer                |
      ----------------------------------------------------------- 

          ...................................................
          :                      SETUP                      :
          :.................................................:
          :   optimization level            normal          :
          :   max. optcycles                   200          :
          :   ANC micro-cycles                  20          :
          :   degrees of freedom               135          :
          :.................................................:
          :   RF solver                   davidson          :
          :   write xtbopt.log                true          :
          :   linear?                        false          :
          :   energy convergence         0.5000000E-05 Eh   :
          :   grad. convergence          0.1000000E-02 Eh/α :
          :   maximium RF displ.         1.0000000          :
          :   Hlow (freq-cutoff)         0.1000000E-01      :
          :   Hmax (freq-cutoff)         5.0000000          :
          :   S6 in model hess.         20.0000000          :
          ...................................................

generating ANC from model Hessian ...
Using Lindh-Hessian (1995)
 Shifting diagonal of input Hessian by   9.800454102414992E-003
 Lowest  eigenvalues of input Hessian
    0.000000    0.000000    0.000000    0.000000    0.000000    0.000000
    0.010000    0.010068    0.010474    0.010629    0.010958    0.011677
    0.012030    0.013210    0.013931    0.015073    0.015319    0.016908
 Highest eigenvalues
    1.917650    1.923357    2.020064    2.125113    2.144275    2.339873
 

........................................................................
.............................. CYCLE    1 ..............................
........................................................................
   1    -81.0540682 -0.810541E+02  0.105E-05    1.61       0.0  T
   2    -81.0540682 -0.102318E-11  0.511E-06    1.61    2852.4  T
   3    -81.0540682 -0.994760E-13  0.323E-06    1.61    4518.8  T
     SCC iter.                  ...        0 min,  0.013 sec
     gradient                   ...        0 min,  0.098 sec
 * total energy  :   -80.1926506 Eh     change       -0.1173817E-10 Eh
   gradient norm :     0.0854613 Eh/α   predicted     0.0000000E+00 (-100.00%)
   displ. norm   :     0.2847361 α      lambda       -0.1496933E-01
   maximum displ.:     0.0860088 α      in ANC's #33, #85, #84, ...

........................................................................
.............................. CYCLE    2 ..............................
........................................................................
   1    -81.0506490 -0.810506E+02  0.732E-02    1.80       0.0  T
   2    -81.0508009 -0.151974E-03  0.313E-02    1.88       1.0  T
   3    -81.0508094 -0.843032E-05  0.169E-02    1.90       1.0  T
   4    -81.0508106 -0.127869E-05  0.502E-03    1.91       2.9  T
   5    -81.0508108 -0.205535E-06  0.913E-04    1.91      16.0  T
   6    -81.0508109 -0.339665E-07  0.268E-04    1.91      54.5  T
   7    -81.0508109 -0.131431E-08  0.113E-04    1.91     129.7  T
   8    -81.0508109 -0.144510E-09  0.408E-05    1.91     357.3  T
     SCC iter.                  ...        0 min,  0.032 sec
     gradient                   ...        0 min,  0.098 sec
 * total energy  :   -80.2024424 Eh     change       -0.9791774E-02 Eh
   gradient norm :     0.0376346 Eh/α   predicted    -0.8092808E-02 ( -17.35%)
   displ. norm   :     0.3278537 α      lambda       -0.4846772E-02
   maximum displ.:     0.1194988 α      in ANC's #12, #16, #19, ...

........................................................................
.............................. CYCLE    3 ..............................
........................................................................
   1    -81.0517185 -0.810517E+02  0.554E-02    1.99       0.0  T
   2    -81.0518514 -0.132873E-03  0.205E-02    2.07       1.0  T
   3    -81.0518567 -0.526385E-05  0.113E-02    2.09       1.3  T
   4    -81.0518572 -0.482908E-06  0.460E-03    2.09       3.2  T
   5    -81.0518572 -0.925618E-07  0.622E-04    2.09      23.5  T
   6    -81.0518573 -0.147079E-07  0.175E-04    2.09      83.3  T
   7    -81.0518573 -0.792710E-09  0.627E-05    2.09     232.7  T
     SCC iter.                  ...        0 min,  0.028 sec
     gradient                   ...        0 min,  0.098 sec
 * total energy  :   -80.2058396 Eh     change       -0.3397254E-02 Eh
   gradient norm :     0.0183590 Eh/α   predicted    -0.2683872E-02 ( -21.00%)
   displ. norm   :     0.4405032 α      lambda       -0.3282972E-02
   maximum displ.:     0.1742682 α      in ANC's #12, #8, #29, ...

........................................................................
.............................. CYCLE    4 ..............................
........................................................................
   1    -81.0527212 -0.810527E+02  0.677E-02    2.14       0.0  T
   2    -81.0529856 -0.264413E-03  0.212E-02    2.24       1.0  T
   3    -81.0529944 -0.872911E-05  0.906E-03    2.25       1.6  T
   4    -81.0529950 -0.695525E-06  0.570E-03    2.25       2.6  T
   5    -81.0529953 -0.272910E-06  0.785E-04    2.25      18.6  T
   6    -81.0529953 -0.122248E-07  0.230E-04    2.25      63.5  T
   7    -81.0529953 -0.127692E-08  0.769E-05    2.25     189.7  T
   8    -81.0529953 -0.689369E-10  0.336E-05    2.25     434.4  T
     SCC iter.                  ...        0 min,  0.032 sec
     gradient                   ...        0 min,  0.098 sec
 * total energy  :   -80.2085509 Eh     change       -0.2711266E-02 Eh
   gradient norm :     0.0269644 Eh/α   predicted    -0.1960065E-02 ( -27.71%)
   displ. norm   :     0.6487767 α      lambda       -0.4641396E-02
   maximum displ.:     0.2212121 α      in ANC's #8, #12, #30, ...

........................................................................
.............................. CYCLE    5 ..............................
........................................................................
   1    -81.0509196 -0.810509E+02  0.153E-01    2.31       0.0  T
   2    -81.0522817 -0.136217E-02  0.434E-02    2.41       1.0  T
   3    -81.0523300 -0.482844E-04  0.137E-02    2.43       1.1  T
   4    -81.0523357 -0.573339E-05  0.109E-02    2.43       1.3  T
   5    -81.0523370 -0.124363E-05  0.224E-03    2.43       6.5  T
   6    -81.0523370 -0.244172E-07  0.418E-04    2.43      34.9  T
   7    -81.0523370 -0.523441E-08  0.169E-04    2.43      86.4  T
   8    -81.0523370 -0.308731E-09  0.532E-05    2.43     274.3  T
     SCC iter.                  ...        0 min,  0.032 sec
     gradient                   ...        0 min,  0.098 sec
 * total energy  :   -80.2110995 Eh     change       -0.2548656E-02 Eh
   gradient norm :     0.0589938 Eh/α   predicted    -0.3297533E-02 (  29.38%)
   displ. norm   :     0.1492506 α      lambda       -0.3650527E-02
   maximum displ.:     0.0479242 α      in ANC's #44, #30, #8, ...

........................................................................
.............................. CYCLE    6 ..............................
........................................................................
   1    -81.0576538 -0.810577E+02  0.334E-02    2.46       0.0  T
   2    -81.0576692 -0.153779E-04  0.145E-02    2.46       1.0  T
   3    -81.0576706 -0.139326E-05  0.838E-03    2.46       1.7  T
   4    -81.0576713 -0.683960E-06  0.205E-03    2.46       7.1  T
   5    -81.0576714 -0.578811E-07  0.422E-04    2.46      34.6  T
   6    -81.0576714 -0.406418E-08  0.143E-04    2.46     101.7  T
   7    -81.0576714 -0.363769E-09  0.410E-05    2.46     355.7  T
     SCC iter.                  ...        0 min,  0.028 sec
     gradient                   ...        0 min,  0.098 sec
 * total energy  :   -80.2138684 Eh     change       -0.2768830E-02 Eh
   gradient norm :     0.0455378 Eh/α   predicted    -0.1865945E-02 ( -32.61%)
   displ. norm   :     0.4246629 α      lambda       -0.5887365E-02
   maximum displ.:     0.1631823 α      in ANC's #8, #30, #9, ...

........................................................................
.............................. CYCLE    7 ..............................
........................................................................
   1    -81.0609472 -0.810609E+02  0.113E-01    2.52       0.0  T
   2    -81.0614881 -0.540882E-03  0.299E-02    2.54       1.0  T
   3    -81.0615086 -0.205500E-04  0.145E-02    2.54       1.0  T
   4    -81.0615101 -0.147836E-05  0.741E-03    2.54       2.0  T
   5    -81.0615104 -0.264136E-06  0.163E-03    2.54       9.0  T
   6    -81.0615104 -0.765930E-07  0.396E-04    2.54      36.8  T
   7    -81.0615104 -0.615431E-08  0.179E-04    2.54      81.7  T
   8    -81.0615104 -0.363201E-09  0.713E-05    2.54     204.5  T
     SCC iter.                  ...        0 min,  0.030 sec
     gradient                   ...        0 min,  0.091 sec
 * total energy  :   -80.2177707 Eh     change       -0.3902307E-02 Eh
   gradient norm :     0.0448417 Eh/α   predicted    -0.3474546E-02 ( -10.96%)
   displ. norm   :     0.3571760 α      lambda       -0.5037334E-02
   maximum displ.:     0.1784084 α      in ANC's #8, #11, #9, ...

........................................................................
.............................. CYCLE    8 ..............................
........................................................................
   1    -81.0584056 -0.810584E+02  0.773E-02    2.60       0.0  T
   2    -81.0585599 -0.154340E-03  0.238E-02    2.59       1.0  T
   3    -81.0585780 -0.181256E-04  0.149E-02    2.58       1.0  T
   4    -81.0585813 -0.325238E-05  0.533E-03    2.58       2.7  T
   5    -81.0585814 -0.135156E-06  0.194E-03    2.57       7.5  T
   6    -81.0585815 -0.650917E-07  0.364E-04    2.57      40.1  T
   7    -81.0585815 -0.267696E-08  0.146E-04    2.57      99.9  T
   8    -81.0585815 -0.357389E-09  0.491E-05    2.57     297.4  T
     SCC iter.                  ...        0 min,  0.032 sec
     gradient                   ...        0 min,  0.091 sec
 * total energy  :   -80.2202807 Eh     change       -0.2510068E-02 Eh
   gradient norm :     0.0385256 Eh/α   predicted    -0.2839985E-02 (  13.14%)
   displ. norm   :     0.4511721 α      lambda       -0.4693017E-02
   maximum displ.:     0.1583745 α      in ANC's #8, #9, #5, ...

........................................................................
.............................. CYCLE    9 ..............................
........................................................................
   1    -81.0598276 -0.810598E+02  0.147E-01    2.47       0.0  T
   2    -81.0606864 -0.858770E-03  0.339E-02    2.39       1.0  T
   3    -81.0607327 -0.463444E-04  0.210E-02    2.36       1.0  T
   4    -81.0607404 -0.761429E-05  0.938E-03    2.35       1.6  T
   5    -81.0607405 -0.172283E-06  0.379E-03    2.34       3.8  T
   6    -81.0607408 -0.294537E-06  0.708E-04    2.34      20.6  T
   7    -81.0607408 -0.703734E-08  0.262E-04    2.34      55.6  T
   8    -81.0607408 -0.518355E-09  0.791E-05    2.34     184.3  T
   9    -81.0607408 -0.664073E-10  0.205E-05    2.34     709.9  T
     SCC iter.                  ...        0 min,  0.035 sec
     gradient                   ...        0 min,  0.085 sec
 * total energy  :   -80.2219529 Eh     change       -0.1672185E-02 Eh
   gradient norm :     0.0443606 Eh/α   predicted    -0.2824157E-02 (  68.89%)
   displ. norm   :     0.1753536 α      lambda       -0.4669152E-02
   maximum displ.:     0.0536064 α      in ANC's #30, #32, #12, ...

........................................................................
.............................. CYCLE   10 ..............................
........................................................................
   1    -81.0618520 -0.810619E+02  0.381E-02    2.36       0.0  T
   2    -81.0619117 -0.597074E-04  0.178E-02    2.38       1.0  T
   3    -81.0619170 -0.530802E-05  0.101E-02    2.39       1.4  T
   4    -81.0619177 -0.629988E-06  0.350E-03    2.39       4.2  T
   5    -81.0619177 -0.833488E-07  0.808E-04    2.39      18.0  T
   6    -81.0619178 -0.215304E-07  0.326E-04    2.39      44.7  T
   7    -81.0619178 -0.172697E-08  0.104E-04    2.39     140.8  T
   8    -81.0619178 -0.171596E-09  0.320E-05    2.39     455.4  T
     SCC iter.                  ...        0 min,  0.033 sec
     gradient                   ...        0 min,  0.099 sec
 * total energy  :   -80.2245127 Eh     change       -0.2559759E-02 Eh
   gradient norm :     0.0246937 Eh/α   predicted    -0.2406369E-02 (  -5.99%)
   displ. norm   :     0.2245049 α      lambda       -0.2147914E-02
   maximum displ.:     0.0982347 α      in ANC's #8, #4, #6, ...

........................................................................
.............................. CYCLE   11 ..............................
........................................................................
   1    -81.0671648 -0.810672E+02  0.475E-02    2.35       0.0  T
   2    -81.0672510 -0.861593E-04  0.140E-02    2.33       1.0  T
   3    -81.0672548 -0.382942E-05  0.759E-03    2.32       1.9  T
   4    -81.0672550 -0.238432E-06  0.328E-03    2.31       4.4  T
   5    -81.0672551 -0.406479E-07  0.980E-04    2.31      14.9  T
   6    -81.0672551 -0.345854E-07  0.182E-04    2.31      80.0  T
   7    -81.0672551 -0.945235E-09  0.771E-05    2.31     189.2  T
     SCC iter.                  ...        0 min,  0.029 sec
     gradient                   ...        0 min,  0.099 sec
 * total energy  :   -80.2258717 Eh     change       -0.1359038E-02 Eh
   gradient norm :     0.0222678 Eh/α   predicted    -0.1128094E-02 ( -16.99%)
   displ. norm   :     0.2926948 α      lambda       -0.1714748E-02
   maximum displ.:     0.0951414 α      in ANC's #8, #5, #11, ...

........................................................................
.............................. CYCLE   12 ..............................
........................................................................
   1    -81.0701035 -0.810701E+02  0.658E-02    2.25       0.0  T
   2    -81.0702672 -0.163726E-03  0.175E-02    2.22       1.0  T
   3    -81.0702817 -0.145114E-04  0.110E-02    2.21       1.3  T
   4    -81.0702850 -0.323013E-05  0.442E-03    2.21       3.3  T
   5    -81.0702850 -0.143643E-08  0.149E-03    2.20       9.8  T
   6    -81.0702850 -0.361713E-07  0.240E-04    2.20      60.7  T
   7    -81.0702850 -0.955865E-09  0.832E-05    2.20     175.3  T
   8    -81.0702850 -0.675584E-10  0.289E-05    2.20     504.9  T
     SCC iter.                  ...        0 min,  0.033 sec
     gradient                   ...        0 min,  0.099 sec
 * total energy  :   -80.2269111 Eh     change       -0.1039346E-02 Eh
   gradient norm :     0.0195235 Eh/α   predicted    -0.9308318E-03 ( -10.44%)
   displ. norm   :     0.1903046 α      lambda       -0.9232505E-03
   maximum displ.:     0.0768440 α      in ANC's #1, #6, #4, ...

........................................................................
.............................. CYCLE   13 ..............................
........................................................................
   1    -81.0728102 -0.810728E+02  0.278E-02    2.18       0.0  T
   2    -81.0728514 -0.411811E-04  0.736E-03    2.17       2.0  T
   3    -81.0728533 -0.189698E-05  0.341E-03    2.17       4.3  T
   4    -81.0728536 -0.265824E-06  0.179E-03    2.16       8.1  T
   5    -81.0728536 -0.147593E-07  0.672E-04    2.16      21.7  T
   6    -81.0728536 -0.465151E-08  0.118E-04    2.16     123.7  T
   7    -81.0728536 -0.637968E-09  0.364E-05    2.16     400.9  T
     SCC iter.                  ...        0 min,  0.029 sec
     gradient                   ...        0 min,  0.099 sec
 * total energy  :   -80.2275668 Eh     change       -0.6557008E-03 Eh
   gradient norm :     0.0114363 Eh/α   predicted    -0.4783448E-03 ( -27.05%)
   displ. norm   :     0.2222867 α      lambda       -0.6062428E-03
   maximum displ.:     0.1043654 α      in ANC's #1, #4, #6, ...

........................................................................
.............................. CYCLE   14 ..............................
........................................................................
   1    -81.0747491 -0.810747E+02  0.257E-02    2.15       0.0  T
   2    -81.0747811 -0.319662E-04  0.628E-03    2.13       2.3  T
   3    -81.0747827 -0.160736E-05  0.320E-03    2.13       4.6  T
   4    -81.0747830 -0.292934E-06  0.158E-03    2.13       9.3  T
   5    -81.0747830 -0.917328E-08  0.584E-04    2.13      25.0  T
   6    -81.0747830 -0.336050E-08  0.105E-04    2.13     138.7  T
   7    -81.0747830 -0.399751E-09  0.408E-05    2.13     357.6  T
     SCC iter.                  ...        0 min,  0.029 sec
     gradient                   ...        0 min,  0.100 sec
 * total energy  :   -80.2279713 Eh     change       -0.4045799E-03 Eh
   gradient norm :     0.0070324 Eh/α   predicted    -0.3181009E-03 ( -21.38%)
   displ. norm   :     0.2170045 α      lambda       -0.3224429E-03
   maximum displ.:     0.1185657 α      in ANC's #1, #6, #3, ...

........................................................................
.............................. CYCLE   15 ..............................
........................................................................
   1    -81.0729463 -0.810729E+02  0.152E-02    2.12       0.0  T
   2    -81.0729563 -0.100528E-04  0.500E-03    2.12       2.9  T
   3    -81.0729568 -0.471722E-06  0.215E-03    2.12       6.8  T
   4    -81.0729568 -0.366632E-07  0.125E-03    2.12      11.7  T
   5    -81.0729569 -0.209780E-07  0.259E-04    2.12      56.2  T
   6    -81.0729569 -0.100547E-08  0.459E-05    2.12     317.9  T
   7    -81.0729569 -0.566018E-10  0.167E-05    2.12     872.3  T
     SCC iter.                  ...        0 min,  0.029 sec
     gradient                   ...        0 min,  0.085 sec
 * total energy  :   -80.2281871 Eh     change       -0.2158002E-03 Eh
   gradient norm :     0.0063243 Eh/α   predicted    -0.1688162E-03 ( -21.77%)
   displ. norm   :     0.2651978 α      lambda       -0.2796780E-03
   maximum displ.:     0.1377917 α      in ANC's #1, #3, #6, ...

........................................................................
.............................. CYCLE   16 ..............................
........................................................................
   1    -81.0740765 -0.810741E+02  0.144E-02    2.11       0.0  T
   2    -81.0740849 -0.834949E-05  0.411E-03    2.10       3.5  T
   3    -81.0740853 -0.460598E-06  0.203E-03    2.10       7.2  T
   4    -81.0740854 -0.331576E-07  0.974E-04    2.10      15.0  T
   5    -81.0740854 -0.123211E-08  0.308E-04    2.10      47.3  T
   6    -81.0740854 -0.313510E-08  0.601E-05    2.10     242.8  T
   7    -81.0740854 -0.944596E-10  0.264E-05    2.10     552.9  T
     SCC iter.                  ...        0 min,  0.028 sec
     gradient                   ...        0 min,  0.108 sec
 * total energy  :   -80.2283732 Eh     change       -0.1860102E-03 Eh
   gradient norm :     0.0069588 Eh/α   predicted    -0.1496753E-03 ( -19.53%)
   displ. norm   :     0.2597735 α      lambda       -0.2227225E-03
   maximum displ.:     0.1374796 α      in ANC's #1, #3, #11, ...

........................................................................
.............................. CYCLE   17 ..............................
........................................................................
   1    -81.0735402 -0.810735E+02  0.802E-03    2.09       0.0  T
   2    -81.0735423 -0.210016E-05  0.365E-03    2.09       4.0  T
   3    -81.0735425 -0.201222E-06  0.165E-03    2.09       8.9  T
   4    -81.0735425 -0.332781E-07  0.744E-04    2.09      19.6  T
   5    -81.0735425 -0.800313E-08  0.214E-04    2.09      68.1  T
   6    -81.0735425 -0.413110E-09  0.421E-05    2.09     346.8  T
   7    -81.0735425 -0.321876E-10  0.112E-05    2.09    1298.4  T
     SCC iter.                  ...        0 min,  0.027 sec
     gradient                   ...        0 min,  0.153 sec
 * total energy  :   -80.2285303 Eh     change       -0.1571384E-03 Eh
   gradient norm :     0.0068914 Eh/α   predicted    -0.1188768E-03 ( -24.35%)
   displ. norm   :     0.2467198 α      lambda       -0.1933675E-03
   maximum displ.:     0.1342611 α      in ANC's #1, #3, #11, ...

........................................................................
.............................. CYCLE   18 ..............................
........................................................................
   1    -81.0736644 -0.810737E+02  0.811E-03    2.09       0.0  T
   2    -81.0736664 -0.195007E-05  0.251E-03    2.09       5.8  T
   3    -81.0736664 -0.903596E-07  0.137E-03    2.08      10.6  T
   4    -81.0736665 -0.855094E-08  0.547E-04    2.08      26.7  T
   5    -81.0736665 -0.151245E-08  0.189E-04    2.08      77.1  T
   6    -81.0736665 -0.110307E-08  0.384E-05    2.08     380.0  T
     SCC iter.                  ...        0 min,  0.023 sec
     gradient                   ...        0 min,  0.105 sec
 * total energy  :   -80.2286677 Eh     change       -0.1374133E-03 Eh
   gradient norm :     0.0057775 Eh/α   predicted    -0.1025725E-03 ( -25.35%)
   displ. norm   :     0.2648803 α      lambda       -0.1849663E-03
   maximum displ.:     0.1378798 α      in ANC's #1, #11, #3, ...

........................................................................
.............................. CYCLE   19 ..............................
........................................................................
   1    -81.0743464 -0.810743E+02  0.844E-03    2.08       0.0  T
   2    -81.0743487 -0.227124E-05  0.335E-03    2.08       4.3  T
   3    -81.0743489 -0.165593E-06  0.166E-03    2.08       8.8  T
   4    -81.0743489 -0.252420E-07  0.770E-04    2.08      19.0  T
   5    -81.0743489 -0.376107E-08  0.114E-04    2.08     128.1  T
   6    -81.0743489 -0.279258E-09  0.414E-05    2.08     352.0  T
     SCC iter.                  ...        0 min,  0.023 sec
     gradient                   ...        0 min,  0.093 sec
 * total energy  :   -80.2287872 Eh     change       -0.1195027E-03 Eh
   gradient norm :     0.0050563 Eh/α   predicted    -0.9897664E-04 ( -17.18%)
   displ. norm   :     0.2304259 α      lambda       -0.1364681E-03
   maximum displ.:     0.1285300 α      in ANC's #1, #3, #11, ...

........................................................................
.............................. CYCLE   20 ..............................
........................................................................
   1    -81.0745988 -0.810746E+02  0.586E-03    2.08       0.0  T
   2    -81.0745999 -0.116745E-05  0.306E-03    2.07       4.8  T
   3    -81.0746001 -0.174018E-06  0.164E-03    2.07       8.9  T
   4    -81.0746001 -0.858871E-08  0.541E-04    2.07      27.0  T
   5    -81.0746001 -0.368638E-08  0.148E-04    2.07      98.8  T
   6    -81.0746001 -0.531927E-09  0.301E-05    2.07     484.2  T
     SCC iter.                  ...        0 min,  0.022 sec
     gradient                   ...        0 min,  0.099 sec
 * total energy  :   -80.2288836 Eh     change       -0.9643877E-04 Eh
   gradient norm :     0.0051121 Eh/α   predicted    -0.7185912E-04 ( -25.49%)
   displ. norm   :     0.2213120 α      lambda       -0.1162020E-03
   maximum displ.:     0.1244249 α      in ANC's #1, #3, #5, ...
 * RMSD in coord.:     0.5088160 α      energy gain  -0.3623307E-01 Eh

generating ANC from model Hessian ...
Using Lindh-Hessian (1995)
 Shifting diagonal of input Hessian by   9.805591948423514E-003
 Lowest  eigenvalues of input Hessian
    0.000000    0.000000    0.000000    0.000000    0.000000    0.000000
    0.010000    0.010062    0.010455    0.010629    0.011064    0.011748
    0.011961    0.013557    0.013943    0.015082    0.015823    0.017490
 Highest eigenvalues
    1.882480    1.997718    2.019167    2.092850    2.205369    2.272211
 

........................................................................
.............................. CYCLE   21 ..............................
........................................................................
   1    -81.0749655 -0.810750E+02  0.460E-03    2.07       0.0  T
   2    -81.0749666 -0.111834E-05  0.221E-03    2.07       6.6  T
   3    -81.0749667 -0.105877E-06  0.111E-03    2.07      13.2  T
   4    -81.0749667 -0.173597E-08  0.515E-04    2.07      28.3  T
   5    -81.0749667 -0.304321E-08  0.127E-04    2.07     114.9  T
   6    -81.0749667 -0.373333E-09  0.300E-05    2.07     486.9  T
     SCC iter.                  ...        0 min,  0.024 sec
     gradient                   ...        0 min,  0.099 sec
 * total energy  :   -80.2289711 Eh     change       -0.8749674E-04 Eh
   gradient norm :     0.0045679 Eh/α   predicted     0.0000000E+00 (-100.00%)
   displ. norm   :     0.0496011 α      lambda       -0.5355087E-04
   maximum displ.:     0.0235725 α      in ANC's #8, #5, #1, ...

........................................................................
.............................. CYCLE   22 ..............................
........................................................................
   1    -81.0756168 -0.810756E+02  0.301E-03    2.07       0.0  T
   2    -81.0756171 -0.267063E-06  0.145E-03    2.07      10.1  T
   3    -81.0756171 -0.282537E-07  0.739E-04    2.07      19.7  T
   4    -81.0756171 -0.762924E-09  0.229E-04    2.07      63.7  T
   5    -81.0756171 -0.748599E-09  0.369E-05    2.07     395.5  T
   6    -81.0756171 -0.290754E-10  0.839E-06    2.07    1738.9  T
     SCC iter.                  ...        0 min,  0.024 sec
     gradient                   ...        0 min,  0.099 sec
 * total energy  :   -80.2290167 Eh     change       -0.4557374E-04 Eh
   gradient norm :     0.0024931 Eh/α   predicted    -0.2936466E-04 ( -35.57%)
   displ. norm   :     0.1055910 α      lambda       -0.7135716E-04
   maximum displ.:     0.0528238 α      in ANC's #5, #1, #8, ...

........................................................................
.............................. CYCLE   23 ..............................
........................................................................
   1    -81.0760685 -0.810761E+02  0.507E-03    2.08       0.0  T
   2    -81.0760692 -0.666817E-06  0.237E-03    2.08       6.2  T
   3    -81.0760693 -0.850459E-07  0.120E-03    2.08      12.2  T
   4    -81.0760693 -0.541577E-08  0.358E-04    2.08      40.8  T
   5    -81.0760693 -0.147261E-08  0.804E-05    2.08     181.4  T
   6    -81.0760693 -0.128949E-09  0.177E-05    2.08     823.1  T
     SCC iter.                  ...        0 min,  0.024 sec
     gradient                   ...        0 min,  0.099 sec
 * total energy  :   -80.2290654 Eh     change       -0.4869895E-04 Eh
   gradient norm :     0.0018449 Eh/α   predicted    -0.3607801E-04 ( -25.92%)
   displ. norm   :     0.1603569 α      lambda       -0.4144899E-04
   maximum displ.:     0.0867442 α      in ANC's #1, #5, #8, ...

........................................................................
.............................. CYCLE   24 ..............................
........................................................................
   1    -81.0758354 -0.810758E+02  0.559E-03    2.09       0.0  T
   2    -81.0758363 -0.825460E-06  0.233E-03    2.09       6.3  T
   3    -81.0758364 -0.996436E-07  0.116E-03    2.09      12.6  T
   4    -81.0758364 -0.157160E-07  0.399E-04    2.09      36.6  T
   5    -81.0758364 -0.742077E-09  0.106E-04    2.09     137.5  T
   6    -81.0758364 -0.337351E-09  0.218E-05    2.09     668.3  T
     SCC iter.                  ...        0 min,  0.024 sec
     gradient                   ...        0 min,  0.100 sec
 * total energy  :   -80.2291114 Eh     change       -0.4599468E-04 Eh
   gradient norm :     0.0036528 Eh/α   predicted    -0.2109095E-04 ( -54.14%)
   displ. norm   :     0.1459654 α      lambda       -0.5604845E-04
   maximum displ.:     0.0822098 α      in ANC's #1, #5, #8, ...

........................................................................
.............................. CYCLE   25 ..............................
........................................................................
   1    -81.0753350 -0.810753E+02  0.431E-03    2.09       0.0  T
   2    -81.0753357 -0.721365E-06  0.131E-03    2.10      11.2  T
   3    -81.0753358 -0.512903E-07  0.634E-04    2.10      23.0  T
   4    -81.0753358 -0.792383E-08  0.289E-04    2.10      50.4  T
   5    -81.0753358 -0.192657E-09  0.114E-04    2.10     128.5  T
   6    -81.0753358 -0.231836E-09  0.173E-05    2.10     843.7  T
     SCC iter.                  ...        0 min,  0.024 sec
     gradient                   ...        0 min,  0.092 sec
 * total energy  :   -80.2291613 Eh     change       -0.4989312E-04 Eh
   gradient norm :     0.0034647 Eh/α   predicted    -0.2862172E-04 ( -42.63%)
   displ. norm   :     0.3305843 α      lambda       -0.1179349E-03
   maximum displ.:     0.1874486 α      in ANC's #1, #5, #8, ...

........................................................................
.............................. CYCLE   26 ..............................
........................................................................
   1    -81.0739742 -0.810740E+02  0.996E-03    2.11       0.0  T
   2    -81.0739785 -0.431837E-05  0.269E-03    2.11       5.4  T
   3    -81.0739787 -0.265184E-06  0.130E-03    2.11      11.2  T
   4    -81.0739788 -0.290858E-07  0.651E-04    2.11      22.4  T
   5    -81.0739788 -0.689710E-09  0.290E-04    2.11      50.4  T
   6    -81.0739788 -0.169327E-08  0.391E-05    2.11     373.0  T
   7    -81.0739788 -0.391225E-10  0.182E-05    2.11     802.6  T
     SCC iter.                  ...        0 min,  0.028 sec
     gradient                   ...        0 min,  0.094 sec
 * total energy  :   -80.2292492 Eh     change       -0.8788795E-04 Eh
   gradient norm :     0.0025044 Eh/α   predicted    -0.6541638E-04 ( -25.57%)
   displ. norm   :     0.2628724 α      lambda       -0.6622683E-04
   maximum displ.:     0.1551057 α      in ANC's #1, #5, #3, ...

........................................................................
.............................. CYCLE   27 ..............................
........................................................................
   1    -81.0733942 -0.810734E+02  0.760E-03    2.12       0.0  T
   2    -81.0733967 -0.246804E-05  0.192E-03    2.12       7.6  T
   3    -81.0733968 -0.147268E-06  0.988E-04    2.12      14.8  T
   4    -81.0733969 -0.170200E-07  0.487E-04    2.12      30.0  T
   5    -81.0733969 -0.280806E-09  0.233E-04    2.12      62.6  T
   6    -81.0733969 -0.108490E-08  0.296E-05    2.12     493.1  T
   7    -81.0733969 -0.196962E-10  0.117E-05    2.12    1251.4  T
     SCC iter.                  ...        0 min,  0.027 sec
     gradient                   ...        0 min,  0.093 sec
 * total energy  :   -80.2292986 Eh     change       -0.4937928E-04 Eh
   gradient norm :     0.0022270 Eh/α   predicted    -0.3540205E-04 ( -28.31%)
   displ. norm   :     0.1639750 α      lambda       -0.4664899E-04
   maximum displ.:     0.1014918 α      in ANC's #1, #5, #3, ...

........................................................................
.............................. CYCLE   28 ..............................
........................................................................
   1    -81.0740448 -0.810740E+02  0.401E-03    2.13       0.0  T
   2    -81.0740454 -0.508829E-06  0.127E-03    2.13      11.5  T
   3    -81.0740454 -0.408363E-07  0.706E-04    2.13      20.7  T
   4    -81.0740454 -0.822575E-08  0.294E-04    2.13      49.7  T
   5    -81.0740454 -0.464368E-09  0.109E-04    2.13     133.9  T
   6    -81.0740454 -0.205318E-09  0.147E-05    2.13     994.7  T
     SCC iter.                  ...        0 min,  0.024 sec
     gradient                   ...        0 min,  0.091 sec
 * total energy  :   -80.2293361 Eh     change       -0.3753779E-04 Eh
   gradient norm :     0.0019623 Eh/α   predicted    -0.2395189E-04 ( -36.19%)
   displ. norm   :     0.2375235 α      lambda       -0.4872448E-04
   maximum displ.:     0.1498847 α      in ANC's #1, #5, #6, ...

........................................................................
.............................. CYCLE   29 ..............................
........................................................................
   1    -81.0754831 -0.810755E+02  0.441E-03    2.13       0.0  T
   2    -81.0754836 -0.571676E-06  0.211E-03    2.13       6.9  T
   3    -81.0754837 -0.969780E-07  0.112E-03    2.13      13.0  T
   4    -81.0754837 -0.920411E-08  0.340E-04    2.13      42.9  T
   5    -81.0754837 -0.151343E-08  0.818E-05    2.13     178.4  T
   6    -81.0754837 -0.115065E-09  0.207E-05    2.13     704.4  T
     SCC iter.                  ...        0 min,  0.023 sec
     gradient                   ...        0 min,  0.084 sec
 * total energy  :   -80.2293845 Eh     change       -0.4843774E-04 Eh
   gradient norm :     0.0025013 Eh/α   predicted    -0.2497364E-04 ( -48.44%)
   displ. norm   :     0.1094452 α      lambda       -0.2595875E-04
   maximum displ.:     0.0708157 α      in ANC's #1, #5, #6, ...

........................................................................
.............................. CYCLE   30 ..............................
........................................................................
   1    -81.0753869 -0.810754E+02  0.130E-03    2.13       0.0  T
   2    -81.0753870 -0.738954E-07  0.505E-04    2.13      28.9  T
   3    -81.0753870 -0.576378E-08  0.234E-04    2.13      62.5  T
   4    -81.0753870 -0.840515E-09  0.123E-04    2.13     118.5  T
   5    -81.0753870 -0.157584E-09  0.380E-05    2.13     384.2  T
     SCC iter.                  ...        0 min,  0.033 sec
     gradient                   ...        0 min,  0.174 sec
 * total energy  :   -80.2294078 Eh     change       -0.2329141E-04 Eh
   gradient norm :     0.0021211 Eh/α   predicted    -0.1313526E-04 ( -43.60%)
   displ. norm   :     0.1674189 α      lambda       -0.4754219E-04
   maximum displ.:     0.1086550 α      in ANC's #1, #5, #6, ...

........................................................................
.............................. CYCLE   31 ..............................
........................................................................
   1    -81.0754657 -0.810755E+02  0.405E-03    2.12       0.0  T
   2    -81.0754663 -0.675660E-06  0.117E-03    2.12      12.5  T
   3    -81.0754664 -0.364085E-07  0.575E-04    2.12      25.4  T
   4    -81.0754664 -0.260809E-08  0.286E-04    2.12      51.0  T
   5    -81.0754664 -0.374172E-10  0.989E-05    2.12     147.5  T
   6    -81.0754664 -0.360444E-09  0.154E-05    2.12     944.2  T
     SCC iter.                  ...        0 min,  0.048 sec
     gradient                   ...        0 min,  0.190 sec
 * total energy  :   -80.2294454 Eh     change       -0.3755451E-04 Eh
   gradient norm :     0.0013229 Eh/α   predicted    -0.2443945E-04 ( -34.92%)
   displ. norm   :     0.2584801 α      lambda       -0.3362969E-04
   maximum displ.:     0.1724074 α      in ANC's #1, #5, #6, ...

........................................................................
.............................. CYCLE   32 ..............................
........................................................................
   1    -81.0751010 -0.810751E+02  0.611E-03    2.12       0.0  T
   2    -81.0751024 -0.137367E-05  0.177E-03    2.11       8.2  T
   3    -81.0751025 -0.953876E-07  0.105E-03    2.11      14.0  T
   4    -81.0751025 -0.173793E-07  0.479E-04    2.11      30.5  T
   5    -81.0751025 -0.594270E-09  0.181E-04    2.11      80.6  T
   6    -81.0751025 -0.644974E-09  0.232E-05    2.11     629.1  T
     SCC iter.                  ...        0 min,  0.024 sec
     gradient                   ...        0 min,  0.099 sec
 * total energy  :   -80.2294743 Eh     change       -0.2890260E-04 Eh
   gradient norm :     0.0015372 Eh/α   predicted    -0.1731740E-04 ( -40.08%)
   displ. norm   :     0.0662607 α      lambda       -0.7744309E-05
   maximum displ.:     0.0490328 α      in ANC's #1, #5, #3, ...

........................................................................
.............................. CYCLE   33 ..............................
........................................................................
   1    -81.0753562 -0.810754E+02  0.135E-03    2.11       0.0  T
   2    -81.0753563 -0.582615E-07  0.647E-04    2.11      22.5  T
   3    -81.0753563 -0.145660E-07  0.344E-04    2.11      42.4  T
   4    -81.0753563 -0.767301E-09  0.943E-05    2.11     154.6  T
   5    -81.0753563 -0.585487E-10  0.198E-05    2.11     738.2  T
     SCC iter.                  ...        0 min,  0.020 sec
     gradient                   ...        0 min,  0.099 sec
 * total energy  :   -80.2294842 Eh     change       -0.9892255E-05 Eh
   gradient norm :     0.0009367 Eh/α   predicted    -0.3883924E-05 ( -60.74%)
   displ. norm   :     0.0772543 α      lambda       -0.1073646E-04
   maximum displ.:     0.0570810 α      in ANC's #1, #5, #8, ...

........................................................................
.............................. CYCLE   34 ..............................
........................................................................
   1    -81.0756110 -0.810756E+02  0.199E-03    2.11       0.0  T
   2    -81.0756112 -0.177530E-06  0.828E-04    2.11      17.6  T
   3    -81.0756112 -0.187394E-07  0.409E-04    2.11      35.7  T
   4    -81.0756112 -0.285578E-08  0.195E-04    2.11      74.8  T
   5    -81.0756112 -0.216744E-09  0.542E-05    2.11     269.3  T
     SCC iter.                  ...        0 min,  0.019 sec
     gradient                   ...        0 min,  0.082 sec
 * total energy  :   -80.2294959 Eh     change       -0.1166680E-04 Eh
   gradient norm :     0.0005523 Eh/α   predicted    -0.5386683E-05 ( -53.83%)
   displ. norm   :     0.0659871 α      lambda       -0.5793733E-05
   maximum displ.:     0.0527780 α      in ANC's #1, #5, #8, ...

........................................................................
.............................. CYCLE   35 ..............................
........................................................................
   1    -81.0756755 -0.810757E+02  0.113E-03    2.11       0.0  T
   2    -81.0756756 -0.601565E-07  0.413E-04    2.11      35.3  T
   3    -81.0756756 -0.456404E-08  0.198E-04    2.11      73.8  T
   4    -81.0756756 -0.723873E-09  0.110E-04    2.11     132.9  T
     SCC iter.                  ...        0 min,  0.016 sec
     gradient                   ...        0 min,  0.093 sec
 * total energy  :   -80.2295028 Eh     change       -0.6989767E-05 Eh
   gradient norm :     0.0007675 Eh/α   predicted    -0.2903848E-05 ( -58.46%)
   displ. norm   :     0.0509077 α      lambda       -0.4651919E-05
   maximum displ.:     0.0413579 α      in ANC's #1, #5, #3, ...

........................................................................
.............................. CYCLE   36 ..............................
........................................................................
   1    -81.0756766 -0.810757E+02  0.771E-04    2.11       0.0  T
   2    -81.0756766 -0.224096E-07  0.221E-04    2.11      66.0  T
   3    -81.0756766 -0.119815E-08  0.109E-04    2.11     134.1  T
   4    -81.0756766 -0.139366E-09  0.500E-05    2.11     292.0  T
     SCC iter.                  ...        0 min,  0.016 sec
     gradient                   ...        0 min,  0.093 sec
 * total energy  :   -80.2295092 Eh     change       -0.6404428E-05 Eh
   gradient norm :     0.0007587 Eh/α   predicted    -0.2330896E-05 ( -63.60%)
   displ. norm   :     0.0601020 α      lambda       -0.6302754E-05
   maximum displ.:     0.0462847 α      in ANC's #1, #3, #6, ...

........................................................................
.............................. CYCLE   37 ..............................
........................................................................
   1    -81.0756292 -0.810756E+02  0.869E-04    2.12       0.0  T
   2    -81.0756292 -0.211505E-07  0.342E-04    2.12      42.7  T
   3    -81.0756292 -0.343121E-08  0.220E-04    2.12      66.2  T
   4    -81.0756292 -0.691458E-09  0.731E-05    2.12     199.6  T
   5    -81.0756292 -0.105302E-10  0.144E-05    2.12    1011.5  T
     SCC iter.                  ...        0 min,  0.021 sec
     gradient                   ...        0 min,  0.092 sec
 * total energy  :   -80.2295179 Eh     change       -0.8633568E-05 Eh
   gradient norm :     0.0005085 Eh/α   predicted    -0.3157419E-05 ( -63.43%)
   displ. norm   :     0.0869681 α      lambda       -0.8443161E-05
   maximum displ.:     0.0641834 α      in ANC's #1, #3, #14, ...

........................................................................
.............................. CYCLE   38 ..............................
........................................................................
   1    -81.0754827 -0.810755E+02  0.114E-03    2.12       0.0  T
   2    -81.0754827 -0.381225E-07  0.484E-04    2.12      30.1  T
   3    -81.0754827 -0.890712E-08  0.294E-04    2.12      49.6  T
   4    -81.0754827 -0.922597E-09  0.938E-05    2.12     155.5  T
   5    -81.0754827 -0.201226E-10  0.165E-05    2.12     885.2  T
     SCC iter.                  ...        0 min,  0.020 sec
     gradient                   ...        0 min,  0.086 sec
 * total energy  :   -80.2295291 Eh     change       -0.1125298E-04 Eh
   gradient norm :     0.0004107 Eh/α   predicted    -0.4237308E-05 ( -62.35%)
   displ. norm   :     0.1010895 α      lambda       -0.8458288E-05
   maximum displ.:     0.0726552 α      in ANC's #1, #3, #7, ...

........................................................................
.............................. CYCLE   39 ..............................
........................................................................
   1    -81.0753887 -0.810754E+02  0.986E-04    2.12       0.0  T
   2    -81.0753887 -0.233595E-07  0.416E-04    2.12      35.1  T
   3    -81.0753888 -0.376932E-08  0.273E-04    2.12      53.5  T
   4    -81.0753888 -0.686754E-09  0.794E-05    2.12     183.7  T
   5    -81.0753888 -0.653557E-10  0.172E-05    2.12     849.8  T
     SCC iter.                  ...        0 min,  0.030 sec
     gradient                   ...        0 min,  0.099 sec
 * total energy  :   -80.2295403 Eh     change       -0.1117826E-04 Eh
   gradient norm :     0.0005894 Eh/α   predicted    -0.4249202E-05 ( -61.99%)
   displ. norm   :     0.0924408 α      lambda       -0.7182087E-05
   maximum displ.:     0.0669765 α      in ANC's #1, #3, #9, ...

........................................................................
.............................. CYCLE   40 ..............................
........................................................................
   1    -81.0753023 -0.810753E+02  0.661E-04    2.12       0.0  T
   2    -81.0753023 -0.136591E-07  0.258E-04    2.12      56.5  T
   3    -81.0753023 -0.119883E-08  0.164E-04    2.12      89.2  T
   4    -81.0753023 -0.150976E-09  0.594E-05    2.12     245.5  T
     SCC iter.                  ...        0 min,  0.017 sec
     gradient                   ...        0 min,  0.099 sec
 * total energy  :   -80.2295502 Eh     change       -0.9922593E-05 Eh
   gradient norm :     0.0006553 Eh/α   predicted    -0.3608682E-05 ( -63.63%)
   displ. norm   :     0.0853127 α      lambda       -0.6972150E-05
   maximum displ.:     0.0620428 α      in ANC's #1, #3, #9, ...

........................................................................
.............................. CYCLE   41 ..............................
........................................................................
   1    -81.0753246 -0.810753E+02  0.482E-04    2.12       0.0  T
   2    -81.0753246 -0.102492E-07  0.225E-04    2.12      64.9  T
   3    -81.0753246 -0.110332E-08  0.103E-04    2.12     141.7  T
   4    -81.0753246 -0.701448E-10  0.538E-05    2.12     270.9  T
     SCC iter.                  ...        0 min,  0.017 sec
     gradient                   ...        0 min,  0.099 sec
 * total energy  :   -80.2295600 Eh     change       -0.9742447E-05 Eh
   gradient norm :     0.0005576 Eh/α   predicted    -0.3500897E-05 ( -64.07%)
   displ. norm   :     0.0871632 α      lambda       -0.7356548E-05
   maximum displ.:     0.0639837 α      in ANC's #1, #3, #7, ...

........................................................................
.............................. CYCLE   42 ..............................
........................................................................
   1    -81.0753344 -0.810753E+02  0.531E-04    2.12       0.0  T
   2    -81.0753344 -0.127909E-07  0.281E-04    2.12      52.0  T
   3    -81.0753344 -0.279134E-08  0.126E-04    2.12     115.8  T
   4    -81.0753344 -0.661942E-10  0.497E-05    2.12     293.2  T
     SCC iter.                  ...        0 min,  0.017 sec
     gradient                   ...        0 min,  0.099 sec
 * total energy  :   -80.2295701 Eh     change       -0.1013562E-04 Eh
   gradient norm :     0.0004047 Eh/α   predicted    -0.3694244E-05 ( -63.55%)
   displ. norm   :     0.0865060 α      lambda       -0.7162529E-05
   maximum displ.:     0.0650932 α      in ANC's #1, #3, #5, ...
 * RMSD in coord.:     0.3324138 α      energy gain  -0.6864672E-03 Eh

generating ANC from model Hessian ...
Using Lindh-Hessian (1995)
 Shifting diagonal of input Hessian by   9.806986732360006E-003
 Lowest  eigenvalues of input Hessian
    0.000000    0.000000    0.000000    0.000000    0.000000    0.000000
    0.010000    0.010060    0.010471    0.010665    0.011079    0.011801
    0.011988    0.013509    0.014037    0.015069    0.015677    0.017573
 Highest eigenvalues
    1.881821    1.998040    2.018428    2.093172    2.205897    2.276145
 

........................................................................
.............................. CYCLE   43 ..............................
........................................................................
   1    -81.0753590 -0.810754E+02  0.636E-04    2.12       0.0  T
   2    -81.0753590 -0.180322E-07  0.348E-04    2.12      41.9  T
   3    -81.0753591 -0.557073E-08  0.145E-04    2.12     100.9  T
   4    -81.0753591 -0.623714E-10  0.446E-05    2.12     327.0  T
     SCC iter.                  ...        0 min,  0.017 sec
     gradient                   ...        0 min,  0.100 sec
 * total energy  :   -80.2295800 Eh     change       -0.9858459E-05 Eh
   gradient norm :     0.0003104 Eh/α   predicted     0.0000000E+00 (-100.00%)
   displ. norm   :     0.0232117 α      lambda       -0.1233825E-06
   maximum displ.:     0.0208232 α      in ANC's #1, #9, #7, ...

........................................................................
.............................. CYCLE   44 ..............................
........................................................................
   1    -81.0753583 -0.810754E+02  0.311E-04    2.12       0.0  T
   2    -81.0753583 -0.171667E-08  0.132E-04    2.12     110.3  T
   3    -81.0753583 -0.125326E-09  0.690E-05    2.12     211.4  T
     SCC iter.                  ...        0 min,  0.014 sec
     gradient                   ...        0 min,  0.119 sec
 * total energy  :   -80.2295840 Eh     change       -0.4007468E-05 Eh
   gradient norm :     0.0002128 Eh/α   predicted    -0.1395877E-05 ( -65.17%)
   displ. norm   :     0.0459821 α      lambda       -0.5256399E-05
   maximum displ.:     0.0361869 α      in ANC's #1, #9, #5, ...

   *** GEOMETRY OPTIMIZATION CONVERGED AFTER 44 ITERATIONS ***

------------------------------------------------------------------------
 total energy gain   :        -0.0369334 Eh      -23.1761 kcal/mol
 total RMSD          :         0.7722154 a0        0.4086 Å
 total power (kW/mol):        -2.2038325 (step)  -12.4817 (real)
------------------------------------------------------------------------

 ANCopt (total)                0 d,  0 h,  0 min,  7.769 sec
 optimizer setup                ...        0 min,  0.001 sec (  0.011%)
 model hessian                  ...        0 min,  0.116 sec (  1.499%)
 ANC generation                 ...        0 min,  0.009 sec (  0.116%)
 coordinate transformation      ...        0 min,  0.002 sec (  0.022%)
 single point calculation       ...        0 min,  7.602 sec ( 97.856%)
 optimization log               ...        0 min,  0.013 sec (  0.162%)
 hessian update                 ...        0 min,  0.001 sec (  0.019%)
 rational function              ...        0 min,  0.007 sec (  0.091%)

================
 final structure:
================
47
 xtb: 6.5.1 (579679a)
C           -3.80506881230821        1.14156946429851        2.08863229860940
N           -2.66056577368671        0.39170422742219        1.57267797894982
C           -2.52338263353749        0.08834769663602        0.23045770905560
C           -3.55785734628373        0.48868991573346       -0.81676631750969
C           -3.34237638412848        1.94948984298958       -1.24213758947525
C           -3.38716240527138       -0.41422476193823       -2.05143347979537
N           -4.91878543088565        0.33566411613476       -0.29748627919139
N           -1.47222988124469       -0.53461467010591       -0.20526766735905
C           -0.49551810597856       -0.95545958544091        0.64208382512782
C            0.70664731500842       -1.65783226441821        0.01191017795219
C            0.28246887838525       -2.43771921419789       -1.24769594058935
O            1.28591046169631       -2.54571600346587        0.92093913885709
N            1.68643319059173       -0.58599121250043       -0.32852360187981
C            2.95232161507838       -1.10634034697306       -0.86732991026947
C            4.03472983634068       -0.07068956063892       -0.67140801396112
C            4.80828004066070       -0.07003789992644        0.48813174346711
C            5.78834977791687        0.89211592926267        0.68991849784883
C            5.97241194644247        1.85313284939095       -0.28723759548988
F            6.92204900114383        2.79085489316698       -0.10099393617195
C            5.22527395029908        1.88666695208177       -1.45000144048241
C            4.25102780290494        0.91426384832403       -1.63316610788148
C           -0.55919824867088       -0.76825439298916        2.01987167837953
O            0.32394762270279       -1.19431752040320        2.84562118896433
C           -1.73810681894593       -0.02839109936962        2.52596525440374
O           -1.92410621322773        0.24165305374018        3.72260911713682
H           -4.65805319960752        0.47778303127711        2.23604800019457
H           -3.52772833942948        1.58684450610992        3.04609667450207
H           -4.08830123697795        1.93062961570800        1.39896767201001
H           -4.04225444845046        2.21023965542315       -2.03519881131453
H           -3.49655789886571        2.63398344205733       -0.40934345326973
H           -2.32723847003397        2.07753314807437       -1.61672634137115
H           -2.39709588182375       -0.28135844236365       -2.48608658251235
H           -3.50635310332293       -1.46022320615477       -1.77071076484163
H           -4.13925438094718       -0.16127429269277       -2.79687569017102
H           -5.15805763115532       -0.64769668403888       -0.27121091966485
H           -5.56317911362645        0.77876226818037       -0.93611251255454
H           -0.10907840277486       -1.75430798747805       -1.99853074178376
H           -0.49528943658377       -3.15086651574638       -0.97631405874377
H            1.12890069873017       -2.98341798686438       -1.65992095811476
H            1.25913456414149        0.01170190093013       -1.03232711118604
H            3.21373448898543       -2.01849438825652       -0.32057994478153
H            2.86226237982441       -1.34704996971051       -1.93563694526450
H            4.65286198362026       -0.83518095052240        1.24157575675562
H            6.40148880345268        0.89706576159257        1.58191815257897
H            5.40521411874878        2.65226367874061       -2.19293796226211
H            3.65869560229987        0.92151102882197       -2.54090276509427
H            1.07065651880505       -2.14300986991261        1.83627357818204
 
 Bond Distances (Angstroems)
 ---------------------------
C1-N2=1.4623         C1-H26=1.0908        C1-H27=1.0918        C1-H28=1.0856        N2-C1=1.4623         N2-C3=1.3829         
N2-C24=1.3915        C3-N2=1.3829         C3-C4=1.5255         C3-N8=1.2973         C4-C3=1.5255         C4-C5=1.5367         
C4-C6=1.5391         C4-N7=1.4646         C5-C4=1.5367         C5-H29=1.0894        C5-H30=1.0890        C5-H31=1.0896        
C6-C4=1.5391         C6-H32=1.0894        C6-H33=1.0896        C6-H34=1.0887        N7-C4=1.4646         N7-H35=1.0124        
N7-H36=1.0097        N8-C3=1.2973         N8-C9=1.3598         C9-N8=1.3598         C9-C10=1.5283        C9-C22=1.3919        
C10-C9=1.5283        C10-C11=1.5410       C10-O12=1.3965       C10-N13=1.4915       C11-C10=1.5410       C11-H37=1.0882       
C11-H38=1.0896       C11-H39=1.0882       O12-C10=1.3965       O12-H47=1.0229       N13-C10=1.4915       N13-C14=1.4709       
N13-H40=1.0174       C14-N13=1.4709       C14-C15=1.5108       C14-H41=1.0951       C14-H42=1.0988       C15-C14=1.5108       
C15-C16=1.3939       C15-C21=1.3935       C16-C15=1.3939       C16-C17=1.3882       C16-H43=1.0850       C17-C16=1.3882       
C17-C18=1.3828       C17-H44=1.0824       C18-C17=1.3828       C18-F19=1.3475       C18-C20=1.3825       F19-C18=1.3475       
C20-C18=1.3825       C20-C21=1.3886       C20-H45=1.0819       C21-C15=1.3935       C21-C20=1.3886       C21-H46=1.0839       
C22-C9=1.3919        C22-O23=1.2819       C22-C24=1.4810       O23-C22=1.2819       C24-N2=1.3915        C24-C22=1.4810       
C24-O25=1.2408       O25-C24=1.2408       H26-C1=1.0908        H27-C1=1.0918        H28-C1=1.0856        H29-C5=1.0894        
H30-C5=1.0890        H31-C5=1.0896        H32-C6=1.0894        H33-C6=1.0896        H34-C6=1.0887        H35-N7=1.0124        
H36-N7=1.0097        H37-C11=1.0882       H38-C11=1.0896       H39-C11=1.0882       H40-N13=1.0174       H41-C14=1.0951       
H42-C14=1.0988       H43-C16=1.0850       H44-C17=1.0824       H45-C20=1.0819       H46-C21=1.0839       H47-O12=1.0229       
 C  H  Rav=1.0887 sigma=0.0040  Rmin=1.0819  Rmax=1.0988    18
 C  C  Rav=1.4560 sigma=0.0687  Rmin=1.3825  Rmax=1.5410    14
 N  H  Rav=1.0132 sigma=0.0032  Rmin=1.0097  Rmax=1.0174     3
 N  C  Rav=1.4151 sigma=0.0634  Rmin=1.2973  Rmax=1.4915     8
 O  H  Rav=1.0229 sigma=0.0000  Rmin=1.0229  Rmax=1.0229     1
 O  C  Rav=1.3064 sigma=0.0659  Rmin=1.2408  Rmax=1.3965     3
 F  C  Rav=1.3475 sigma=0.0000  Rmin=1.3475  Rmax=1.3475     1
 
 selected bond angles (degree)
 --------------------
H26-C1-N2=110.34               H27-C1-N2=108.65               H27-C1-H26=109.17              H28-C1-N2=110.66               
H28-C1-H26=108.91              H28-C1-H27=109.09              C3-N2-C1=122.18                C24-N2-C1=115.59               
C24-N2-C3=122.21               C4-C3-N2=122.78                N8-C3-N2=120.78                N8-C3-C4=116.42                
C5-C4-C3=110.15                C6-C4-C3=108.76                C6-C4-C5=108.67                N7-C4-C3=111.06                
N7-C4-C5=109.13                N7-C4-C6=109.04                H29-C5-C4=109.81               H30-C5-C4=111.47               
H30-C5-H29=108.38              H31-C5-C4=109.73               H31-C5-H29=108.67              H31-C5-H30=108.72              
H32-C6-C4=110.45               H33-C6-C4=110.14               H33-C6-H32=108.62              H34-C6-C4=109.65               
H34-C6-H32=109.04              H34-C6-H33=108.90              H35-N7-C4=109.29               H36-N7-C4=108.84               
H36-N7-H35=106.97              C9-N8-C3=121.42                C10-C9-N8=116.76               C22-C9-N8=122.84               
C22-C9-C10=120.40              C11-C10-C9=110.68              O12-C10-C9=110.49              O12-C10-C11=108.93             
N13-C10-C9=106.29              N13-C10-C11=110.97             N13-C10-O12=109.45             
 
 selected dihedral angles (degree)
 ---------------------------------
C3-N2-C1-H26= 82.04           C3-N2-C1-H27=201.69           C3-N2-C1-H28=321.43           C24-N2-C1-H26=263.76          
C24-N2-C1-H27= 23.41          C24-N2-C1-H28=143.15          C4-C3-N2-C1=359.04            C4-C3-N2-C24=177.21           
N8-C3-N2-C1=177.39            N8-C3-N2-C24=355.55           C5-C4-C3-N2= 81.81            C5-C4-C3-N8=263.40            
C6-C4-C3-N2=200.80            C6-C4-C3-N8= 22.39            N7-C4-C3-N2=320.79            N7-C4-C3-N8=142.38            
H29-C5-C4-C3=176.40           H29-C5-C4-C6= 57.35           H29-C5-C4-N7=298.56           H30-C5-C4-C3=296.52           
H30-C5-C4-C6=177.48           H30-C5-C4-N7= 58.68           H31-C5-C4-C3= 57.01           H31-C5-C4-C6=297.97           
H31-C5-C4-N7=179.17           H32-C6-C4-C3=298.45           H32-C6-C4-C5= 58.36           H32-C6-C4-N7=177.22           
H33-C6-C4-C3= 58.43           H33-C6-C4-C5=178.34           H33-C6-C4-N7=297.20           H34-C6-C4-C3=178.26           
H34-C6-C4-C5=298.17           H34-C6-C4-N7= 57.02           H35-N7-C4-C3=285.21           H35-N7-C4-C5=163.60           
H35-N7-C4-C6= 45.04           H36-N7-C4-C3=168.72           H36-N7-C4-C5= 47.10           H36-N7-C4-C6=288.54           
C9-N8-C3-N2=  2.53            C9-N8-C3-C4=180.97            C10-C9-N8-C3=180.98           C22-C9-N8-C3=  0.90           
C11-C10-C9-N8=328.13          C11-C10-C9-C22=148.21         O12-C10-C9-N8=207.38          O12-C10-C9-C22= 27.46         
N13-C10-C9-N8= 88.72          N13-C10-C9-C22=268.80         
           -------------------------------------------------
          |                Final Singlepoint                |
           -------------------------------------------------

          ...................................................
          :                      SETUP                      :
          :.................................................:
          :  # basis functions                 144          :
          :  # atomic orbitals                 144          :
          :  # shells                           94          :
          :  # electrons                       136          :
          :  # halogen bonds                     0          :
          :  max. iterations                   250          :
          :  Hamiltonian                  GFN1-xTB          :
          :  restarted?                      false          :
          :  GBSA solvation                   true          :
          :  PC potential                    false          :
          :  electronic temp.          300.0000000     K    :
          :  accuracy                    1.0000000          :
          :  -> integral cutoff          0.2500000E+02      :
          :  -> integral neglect         0.1000000E-07      :
          :  -> SCF convergence          0.1000000E-05 Eh   :
          :  -> wf. convergence          0.2000000E-04 e    :
          :  Broyden damping             0.4000000          :
          ...................................................

 iter      E             dE          RMSdq      gap      omega  full diag
   1    -81.0753583 -0.810754E+02  0.215E-05    2.12       0.0  T
   2    -81.0753583 -0.518696E-11  0.130E-05    2.12    1118.8  T
   3    -81.0753583 -0.881073E-12  0.738E-06    2.12    1975.2  T

   *** convergence criteria satisfied after 3 iterations ***

         #    Occupation            Energy/Eh            Energy/eV
      -------------------------------------------------------------
         1        2.0000           -0.8556719             -23.2840
       ...           ...                  ...                  ...
        62        2.0000           -0.4199739             -11.4281
        63        2.0000           -0.4121057             -11.2140
        64        2.0000           -0.4048014             -11.0152
        65        2.0000           -0.3939574             -10.7201
        66        2.0000           -0.3771510             -10.2628
        67        2.0000           -0.3575412              -9.7292
        68        2.0000           -0.3412629              -9.2862 (HOMO)
        69                         -0.2633167              -7.1652 (LUMO)
        70                         -0.2543452              -6.9211
        71                         -0.2367862              -6.4433
        72                         -0.2205690              -6.0020
        73                         -0.1347215              -3.6660
       ...                                ...                  ...
       144                          0.7227592              19.6673
      -------------------------------------------------------------
                  HL-Gap            0.0779461 Eh            2.1210 eV
             Fermi-level           -0.3022898 Eh           -8.2257 eV

 SCC (total)                   0 d,  0 h,  0 min,  0.148 sec
 SCC setup                      ...        0 min,  0.002 sec (  1.436%)
 Dispersion                     ...        0 min,  0.000 sec (  0.278%)
 classical contributions        ...        0 min,  0.000 sec (  0.097%)
 integral evaluation            ...        0 min,  0.040 sec ( 26.769%)
 iterations                     ...        0 min,  0.012 sec (  8.375%)
 molecular gradient             ...        0 min,  0.092 sec ( 62.392%)
 printout                       ...        0 min,  0.001 sec (  0.629%)

         :::::::::::::::::::::::::::::::::::::::::::::::::::::
         ::                     SUMMARY                     ::
         :::::::::::::::::::::::::::::::::::::::::::::::::::::
         :: total energy             -80.229583978078 Eh    ::
         :: total w/o Gsasa/hb       -80.206029948375 Eh    ::
         :: gradient norm              0.000214041753 Eh/a0 ::
         :: HOMO-LUMO gap              2.121022540940 eV    ::
         ::.................................................::
         :: SCC energy               -81.075358258974 Eh    ::
         :: -> electrostatic           0.366510651499 Eh    ::
         :: -> Gsolv                  -0.111509922402 Eh    ::
         ::    -> Gelec               -0.087955892699 Eh    ::
         ::    -> Gsasa               -0.024704706670 Eh    ::
         ::    -> Ghb                 -0.006473602038 Eh    ::
         ::    -> Gshift               0.007624279005 Eh    ::
         :: repulsion energy           0.876172485129 Eh    ::
         :: dispersion energy         -0.030398204234 Eh    ::
         :: halogen bond corr.         0.000000000000 Eh    ::
         :: add. restraining           0.000000000000 Eh    ::
         :: total charge              -1.000000000000 e     ::
         :::::::::::::::::::::::::::::::::::::::::::::::::::::

           -------------------------------------------------
          |                Property Printout                |
           -------------------------------------------------

    * Orbital Energies and Occupations

         #    Occupation            Energy/Eh            Energy/eV
      -------------------------------------------------------------
         1        2.0000           -0.8556719             -23.2840
       ...           ...                  ...                  ...
        56        2.0000           -0.4613899             -12.5551
        57        2.0000           -0.4592080             -12.4957
        58        2.0000           -0.4502635             -12.2523
        59        2.0000           -0.4412348             -12.0066
        60        2.0000           -0.4325125             -11.7693
        61        2.0000           -0.4275182             -11.6334
        62        2.0000           -0.4199739             -11.4281
        63        2.0000           -0.4121057             -11.2140
        64        2.0000           -0.4048014             -11.0152
        65        2.0000           -0.3939574             -10.7201
        66        2.0000           -0.3771510             -10.2628
        67        2.0000           -0.3575412              -9.7292
        68        2.0000           -0.3412629              -9.2862 (HOMO)
        69                         -0.2633167              -7.1652 (LUMO)
        70                         -0.2543452              -6.9211
        71                         -0.2367862              -6.4433
        72                         -0.2205690              -6.0020
        73                         -0.1347215              -3.6660
        74                         -0.1182954              -3.2190
        75                         -0.1108256              -3.0157
        76                         -0.1102131              -2.9991
        77                         -0.1043810              -2.8404
        78                         -0.1027011              -2.7946
        79                         -0.0985360              -2.6813
       ...                                ...                  ...
       144                          0.7227592              19.6673
      -------------------------------------------------------------
                  HL-Gap            0.0779461 Eh            2.1210 eV
             Fermi-level           -0.3022898 Eh           -8.2257 eV

  Mulliken/CM5 charges         n(s)   n(p)   n(d)
     1C     0.06092 -0.02472   0.983  2.956  0.000
     2N    -0.23235 -0.47607   1.455  3.777  0.000
     3C     0.22376  0.37292   1.009  2.767  0.000
     4C     0.14648  0.18030   1.065  2.789  0.000
     5C    -0.10177 -0.24346   1.018  3.084  0.000
     6C    -0.10029 -0.24025   1.019  3.082  0.000
     7N    -0.51887 -0.97817   1.475  4.044  0.000
     8N    -0.40863 -0.60395   1.534  3.875  0.000
     9C     0.01626  0.09392   1.051  2.933  0.000
    10C     0.35917  0.41652   1.021  2.620  0.000
    11C    -0.10458 -0.24239   1.015  3.090  0.000
    12O    -0.63469 -0.81515   1.722  4.913  0.000
    13N    -0.43951 -0.77807   1.489  3.950  0.000
    14C     0.09401  0.04741   1.005  2.901  0.000
    15C     0.00064 -0.00927   1.090  2.910  0.000
    16C    -0.02626 -0.07875   1.061  2.965  0.000
    17C    -0.07126 -0.12218   1.058  3.014  0.000
    18C     0.23813  0.24913   1.045  2.717  0.000
    19F    -0.28393 -0.30783   1.832  5.452  0.000
    20C    -0.07060 -0.12159   1.058  3.013  0.000
    21C    -0.03339 -0.08614   1.062  2.971  0.000
    22C     0.23904  0.27921   1.023  2.738  0.000
    23O    -0.68697 -0.75863   1.747  4.939  0.000
    24C     0.39902  0.50047   1.009  2.592  0.000
    25O    -0.64614 -0.68850   1.740  4.906  0.000
    26H     0.03263  0.09864   0.967  0.000  0.000
    27H     0.04995  0.12022   0.950  0.000  0.000
    28H     0.02903  0.09771   0.971  0.000  0.000
    29H     0.03661  0.09177   0.963  0.000  0.000
    30H     0.03241  0.08886   0.968  0.000  0.000
    31H     0.03272  0.08749   0.967  0.000  0.000
    32H     0.03101  0.08947   0.969  0.000  0.000
    33H     0.03007  0.08775   0.970  0.000  0.000
    34H     0.02920  0.08474   0.971  0.000  0.000
    35H     0.21173  0.40228   0.788  0.000  0.000
    36H     0.21450  0.40561   0.785  0.000  0.000
    37H     0.02161  0.08118   0.978  0.000  0.000
    38H     0.02555  0.08245   0.974  0.000  0.000
    39H     0.02566  0.08300   0.974  0.000  0.000
    40H     0.18629  0.38131   0.814  0.000  0.000
    41H     0.03218  0.10371   0.968  0.000  0.000
    42H     0.01282  0.07715   0.987  0.000  0.000
    43H     0.04159  0.09896   0.958  0.000  0.000
    44H     0.05074  0.10781   0.949  0.000  0.000
    45H     0.05215  0.10929   0.948  0.000  0.000
    46H     0.04087  0.09826   0.959  0.000  0.000
    47H     0.36245  0.55757   0.638  0.000  0.000

Wiberg/Mayer (AO) data.
largest (>0.10) Wiberg bond orders for each atom

 ---------------------------------------------------------------------------
     #   Z sym  total        # sym  WBO       # sym  WBO       # sym  WBO
 ---------------------------------------------------------------------------
     1   6 C    3.947 --    28 H    0.980    26 H    0.980    27 H    0.977
                             2 N    0.946
     2   7 N    3.473 --    24 C    1.134     3 C    1.124     1 C    0.946
                            25 O    0.131
     3   6 C    3.927 --     8 N    1.545     2 N    1.124     4 C    0.977
     4   6 C    3.966 --     6 C    0.990     5 C    0.987     7 N    0.978
                             3 C    0.977
     5   6 C    3.994 --     4 C    0.987    31 H    0.986    29 H    0.984
                            30 H    0.979
     6   6 C    3.996 --     4 C    0.990    34 H    0.987    33 H    0.985
                            32 H    0.982
     7   7 N    2.977 --     4 C    0.978    35 H    0.946    36 H    0.946
     8   7 N    3.038 --     3 C    1.545     9 C    1.230
     9   6 C    3.939 --    22 C    1.382     8 N    1.230    10 C    0.966
                            23 O    0.134
    10   6 C    3.903 --    12 O    0.988    11 C    0.978     9 C    0.966
                            13 N    0.922
    11   6 C    3.996 --    37 H    0.986    38 H    0.985    39 H    0.985
                            10 C    0.978
    12   8 O    1.881 --    10 C    0.988    47 H    0.737
    13   7 N    2.975 --    14 C    0.973    40 H    0.954    10 C    0.922
    14   6 C    3.979 --    15 C    1.002    13 N    0.973    42 H    0.973
                            41 H    0.972
    15   6 C    3.986 --    21 C    1.417    16 C    1.415    14 C    1.002
    16   6 C    3.993 --    17 C    1.444    15 C    1.415    43 H    0.972
                            20 C    0.110
    17   6 C    3.992 --    16 C    1.444    18 C    1.402    44 H    0.971
                            21 C    0.110
    18   6 C    3.856 --    20 C    1.403    17 C    1.402    19 F    0.915
    19   9 F    1.040 --    18 C    0.915
    20   6 C    3.992 --    21 C    1.442    18 C    1.403    45 H    0.970
                            16 C    0.110
    21   6 C    3.993 --    20 C    1.442    15 C    1.417    46 H    0.972
                            17 C    0.110
    22   6 C    3.957 --     9 C    1.382    23 O    1.340    24 C    1.041
    23   8 O    1.806 --    22 C    1.340    47 H    0.144     9 C    0.134
    24   6 C    3.893 --    25 O    1.512     2 N    1.134    22 C    1.041
    25   8 O    1.827 --    24 C    1.512     2 N    0.131
    26   1 H    1.023 --     1 C    0.980
    27   1 H    1.019 --     1 C    0.977
    28   1 H    1.025 --     1 C    0.980
    29   1 H    1.002 --     5 C    0.984
    30   1 H    1.008 --     5 C    0.979
    31   1 H    1.007 --     5 C    0.986
    32   1 H    1.020 --     6 C    0.982
    33   1 H    1.011 --     6 C    0.985
    34   1 H    1.005 --     6 C    0.987
    35   1 H    0.963 --     7 N    0.946
    36   1 H    0.961 --     7 N    0.946
    37   1 H    1.018 --    11 C    0.986
    38   1 H    1.012 --    11 C    0.985
    39   1 H    1.008 --    11 C    0.985
    40   1 H    0.984 --    13 N    0.954
    41   1 H    1.023 --    14 C    0.972
    42   1 H    1.006 --    14 C    0.973
    43   1 H    1.002 --    16 C    0.972
    44   1 H    1.000 --    17 C    0.971
    45   1 H    0.999 --    20 C    0.970
    46   1 H    1.001 --    21 C    0.972
    47   1 H    0.895 --    12 O    0.737    23 O    0.144
 ---------------------------------------------------------------------------

Topologies differ in total number of bonds
Writing topology from bond orders to xtbtopo.mol

 dipole moment from electron density (au)
     X       Y       Z   
  -2.2374   1.6109  -6.4414  total (Debye):   17.809

           -------------------------------------------------
          |                Geometry Summary                 |
           -------------------------------------------------

      molecular mass/u    :      349.3806376
   center of mass at/Å    :        0.5291195       0.0326712       0.2738617
  moments of inertia/u·Å² :        0.1393546E+04   0.5079701E+04   0.5262273E+04
rotational constants/cm⁻¹ :        0.1209693E-01   0.3318627E-02   0.3203489E-02

 * 39 selected distances

     #   Z          #   Z                                           value/Å
     1   6 C        2   7 N                                       1.4623250
     2   7 N        3   6 C                                       1.3828955
     4   6 C        5   6 C                                       1.5366553
     4   6 C        6   6 C                                       1.5390891 (max)
     4   6 C        7   7 N                                       1.4646482
     3   6 C        8   7 N                                       1.2972514
     8   7 N        9   6 C                                       1.3598093
    10   6 C       12   8 O                                       1.3965018
    13   7 N       14   6 C                                       1.4709009
    15   6 C       16   6 C                                       1.3938842
    16   6 C       17   6 C                                       1.3881624
    17   6 C       18   6 C                                       1.3828473
    18   6 C       20   6 C                                       1.3825194
    15   6 C       21   6 C                                       1.3935197
    20   6 C       21   6 C                                       1.3886227
     9   6 C       22   6 C                                       1.3919054
     2   7 N       24   6 C                                       1.3914624
    24   6 C       25   8 O                                       1.2407564
     1   6 C       26   1 H                                       1.0908375
     1   6 C       27   1 H                                       1.0917536
     1   6 C       28   1 H                                       1.0855754
     5   6 C       29   1 H                                       1.0893879
     5   6 C       30   1 H                                       1.0889673
     5   6 C       31   1 H                                       1.0895949
     6   6 C       32   1 H                                       1.0894075
     6   6 C       33   1 H                                       1.0895525
     6   6 C       34   1 H                                       1.0887197
     7   7 N       35   1 H                                       1.0123933
     7   7 N       36   1 H                                       1.0096647 (min)
    11   6 C       37   1 H                                       1.0881697
    11   6 C       38   1 H                                       1.0895574
    11   6 C       39   1 H                                       1.0881928
    13   7 N       40   1 H                                       1.0174285
    14   6 C       41   1 H                                       1.0951244
    14   6 C       42   1 H                                       1.0987866
    16   6 C       43   1 H                                       1.0850239
    17   6 C       44   1 H                                       1.0824175
    20   6 C       45   1 H                                       1.0818834
    21   6 C       46   1 H                                       1.0839262

 * 5 distinct bonds (by element types)

   Z      Z             #   av. dist./Å        max./Å        min./Å
   1 H    6 C          18     1.0887155     1.0987866     1.0818834
   6 C    6 C           9     1.4219117     1.5390891     1.3825194
   1 H    7 N           3     1.0131622     1.0174285     1.0096647
   6 C    7 N           7     1.4041847     1.4709009     1.2972514
   6 C    8 O           2     1.3186291     1.3965018     1.2407564


optimized geometry written to: xtbopt.xyz


           -------------------------------------------------
          | TOTAL ENERGY              -80.229583978078 Eh   |
          | GRADIENT NORM               0.000214041753 Eh/α |
          | HOMO-LUMO GAP               2.121022540940 eV   |
           -------------------------------------------------

------------------------------------------------------------------------
 * finished run on 2023/06/20 at 14:56:09.351     
------------------------------------------------------------------------
 total:
 * wall-time:     0 d,  0 h,  0 min,  8.234 sec
 *  cpu-time:     0 d,  0 h,  0 min,  7.705 sec
 * ratio c/w:     0.936 speedup
 SCF:
 * wall-time:     0 d,  0 h,  0 min,  0.232 sec
 *  cpu-time:     0 d,  0 h,  0 min,  0.179 sec
 * ratio c/w:     0.774 speedup
 ANC optimizer:
 * wall-time:     0 d,  0 h,  0 min,  7.923 sec
 *  cpu-time:     0 d,  0 h,  0 min,  7.474 sec
 * ratio c/w:     0.943 speedup

