47
 energy: -80.186671340670 gnorm: 0.000216032438 xtb: 6.5.1 (579679a)
C            5.92825201343616        0.96828144665617       -1.52695634604199
C            5.32143059368027        0.54820243755413       -0.15587588699552
C            3.95847346115385       -0.08501822740204       -0.33010276304615
C            3.71330105537380       -1.41021180558401       -0.09219711839119
C            2.33534589875523       -1.97591535793813       -0.37422465608833
N            1.28602680456904       -1.06189924880156        0.07085726381555
C            0.09677451405239       -0.99313532847126       -0.56519815283911
O           -0.13124303130793       -1.61558585344667       -1.60652273327216
C           -0.93220070691299       -0.11839168879837        0.06091182733775
N           -2.20007155616821       -0.30280454426373       -0.42769944983934
C           -3.21551916696036        0.36052344299901        0.01889965025185
C           -4.56036048045259        0.04295459253809       -0.62701000219157
C           -4.86423646149787        1.08953603724041       -1.70961698925365
C           -4.48717186555110       -1.34770475291357       -1.28120921947674
N           -5.62771375217768        0.05769553314717        0.37132640172492
N           -3.08407921465075        1.33135828211702        0.99023789367538
C           -4.20372616166590        2.10234442693375        1.52369032515530
C           -1.83737770179193        1.59700743510705        1.55768971317627
O           -1.68920729814511        2.44994874512235        2.44575368297424
C           -0.74261131079042        0.82652124413562        1.04775147398769
O            0.46976816150802        1.11107907051764        1.60222107199545
C            4.69002577377698       -2.28039920947462        0.43208424973862
C            5.95253478870894       -1.73592586331574        0.77363079596111
C            6.21303845720691       -0.43293354690244        0.54174529339924
F            7.42891072926782        0.09125519369831        0.93085580074357
H            6.90563661408459        1.42886543267124       -1.37934629377189
H            5.27163802596916        1.68403447210017       -2.02185508539070
H            6.04234104772407        0.09444895180421       -2.16916472929956
H            5.24310403673972        1.47607215055216        0.44163998292340
H            3.17268879327801        0.56636730649184       -0.70106966607525
H            2.21006784540617       -2.94433718380088        0.13038470738303
H            2.19793827722213       -2.14421964126694       -1.45072436648892
H            1.40661411478064       -0.63830107784550        0.97642504081109
H           -5.79006644957718        0.82937149725486       -2.22093193113249
H           -4.97734983972070        2.08254598891367       -1.27856659614908
H           -4.05493178916160        1.11476913589102       -2.43923927484074
H           -4.22866334552970       -2.09915482624107       -0.53617599696768
H           -5.45568680131217       -1.59630092862299       -1.71104423136698
H           -3.73281829248777       -1.36022660802677       -2.06780749884580
H           -6.52211111094493        0.04196306437046       -0.09642792606252
H           -5.57103905486894       -0.77469363576865        0.94409757112420
H           -4.77726161926844        1.49420352817427        2.22266550339132
H           -4.85747964572902        2.43116894187682        0.72137083993899
H           -3.80161959565527        2.97202418599044        2.04460071391955
H            0.32582508875844        1.80679703214194        2.26969845393113
H            4.47396188755304       -3.32400535615050        0.62060217947869
H            6.70084926933024       -2.35817789097448        1.25421147698348
