      -----------------------------------------------------------      
     |                   =====================                   |     
     |                           x T B                           |     
     |                   =====================                   |     
     |                         S. Grimme                         |     
     |          Mulliken Center for Theoretical Chemistry        |     
     |                    University of Bonn                     |     
      -----------------------------------------------------------      

   * xtb version 6.5.1 (579679a) compiled by 'ehlert@majestix' on 2022-07-11

   xtb is free software: you can redistribute it and/or modify it under
   the terms of the GNU Lesser General Public License as published by
   the Free Software Foundation, either version 3 of the License, or
   (at your option) any later version.
   
   xtb is distributed in the hope that it will be useful,
   but WITHOUT ANY WARRANTY; without even the implied warranty of
   MERCHANTABILITY or FITNESS FOR A PARTICULAR PURPOSE.  See the
   GNU Lesser General Public License for more details.
   
   Cite this work as:
   * C. Bannwarth, E. Caldeweyher, S. Ehlert, A. Hansen, P. Pracht,
     J. Seibert, S. Spicher, S. Grimme, WIREs Comput. Mol. Sci., 2020, 11,
     e01493. DOI: 10.1002/wcms.1493
   
   for GFN2-xTB:
   * C. Bannwarth, S. Ehlert and S. Grimme., J. Chem. Theory Comput., 2019,
     15, 1652-1671. DOI: 10.1021/acs.jctc.8b01176
   for GFN1-xTB:
   * S. Grimme, C. Bannwarth, P. Shushkov, J. Chem. Theory Comput., 2017,
     13, 1989-2009. DOI: 10.1021/acs.jctc.7b00118
   for GFN0-xTB:
   * P. Pracht, E. Caldeweyher, S. Ehlert, S. Grimme, ChemRxiv, 2019, preprint.
     DOI: 10.26434/chemrxiv.8326202.v1
   for GFN-FF:
   * S. Spicher and S. Grimme, Angew. Chem. Int. Ed., 2020, 59, 15665-15673.
     DOI: 10.1002/anie.202004239
   
   for ALPB and GBSA implicit solvation:
   * S. Ehlert, M. Stahn, S. Spicher, S. Grimme, J. Chem. Theory Comput.,
     2021, 17, 4250-4261. DOI: 10.1021/acs.jctc.1c00471
   
   for DFT-D4:
   * E. Caldeweyher, C. Bannwarth and S. Grimme, J. Chem. Phys., 2017,
     147, 034112. DOI: 10.1063/1.4993215
   * E. Caldeweyher, S. Ehlert, A. Hansen, H. Neugebauer, S. Spicher,
     C. Bannwarth and S. Grimme, J. Chem. Phys., 2019, 150, 154122.
     DOI: 10.1063/1.5090222
   * E. Caldeweyher, J.-M. Mewes, S. Ehlert and S. Grimme, Phys. Chem. Chem. Phys.
     2020, 22, 8499-8512. DOI: 10.1039/D0CP00502A
   
   for sTDA-xTB:
   * S. Grimme and C. Bannwarth, J. Chem. Phys., 2016, 145, 054103.
     DOI: 10.1063/1.4959605
   
   in the mass-spec context:
   * V. Asgeirsson, C. Bauer and S. Grimme, Chem. Sci., 2017, 8, 4879.
     DOI: 10.1039/c7sc00601b
   * J. Koopman and S. Grimme, ACS Omega 2019, 4, 12, 15120-15133.
     DOI: 10.1021/acsomega.9b02011
   
   for metadynamics refer to:
   * S. Grimme, J. Chem. Theory Comput., 2019, 155, 2847-2862
     DOI: 10.1021/acs.jctc.9b00143
   
   for SPH calculations refer to:
   * S. Spicher and S. Grimme, J. Chem. Theory Comput., 2021, 17, 1701-1714
     DOI: 10.1021/acs.jctc.0c01306
   
   with help from (in alphabetical order)
   P. Atkinson, C. Bannwarth, F. Bohle, G. Brandenburg, E. Caldeweyher
   M. Checinski, S. Dohm, S. Ehlert, S. Ehrlich, I. Gerasimov, C. Hölzer
   A. Katbashev, J. Koopman, C. Lavigne, S. Lehtola, F. März, M. Müller,
   F. Musil, H. Neugebauer, J. Pisarek, C. Plett, P. Pracht, F. Pultar,
   J. Seibert, P. Shushkov, S. Spicher, M. Stahn, M. Steiner, T. Strunk,
   J. Stückrath, T. Rose, and J. Unsleber
   
 * started run on 2023/06/20 at 15:13:23.995     

           -------------------------------------------------
          |                Calculation Setup                |
           -------------------------------------------------

          program call               : /lustre/hpc/kemi/ree/PhD/git/ReactivityQM/dep/xtb-6.5.1/bin/xtb --gfn 1 /lustre/hpc/kemi/ree/PhD/git/ReactivityQM/calculations/R03/reac01prodE03/conf02/R03_reac01prodE03_conf02_gfn1.xyz --opt --vfukui --chrg -1 --uhf 0 --alpb DMSO
          hostname                   : node068
          coordinate file            : /lustre/hpc/kemi/ree/PhD/git/ReactivityQM/calculations/R03/reac01prodE03/conf02/R03_reac01prodE03_conf02_gfn1.xyz
          omp threads                :                     1

   ID    Z sym.   atoms
    1    6 C      1-5, 7-9
    2    7 N      6
    3    9 F      10
    4    1 H      11-21

           -------------------------------------------------
          |                 G F N 1 - x T B                 |
           -------------------------------------------------

        Reference                      10.1021/acs.jctc.7b00118
      * Hamiltonian:
        H0-scaling (s, p, d)           1.850000    2.250000    2.000000
        zeta-weighting                 0.000000
      * Dispersion:
        s8                             2.400000
        a1                             0.630000
        a2                             5.000000
        s9                             0.000000
      * Repulsion:
        kExp                           1.500000
        rExp                           1.000000
      * Coulomb:
        alpha                          2.000000
        third order                    atomic
        anisotropic                    false
      * Halogen bond correction:
        rad-scale                      1.300000
        damping                        0.440000

      * Solvation model:               ALPB
        Solvent                        DMSO
        Parameter file                 internal GFN1-xTB/ALPB
        Dielectric constant                4.6680E+01
        Reference state                gsolv [1 M gas/solution]
        Free energy shift                  7.6243E-03 Eh       4.7843E+00 kcal/mol
        Temperature                        2.9815E+02 K
        Density                            1.1000E+00 kg/L
        Solvent mass                       7.8130E+01 g/mol
        Interaction kernel             P16
        Born radius scaling (c1)           1.7672E+00
        Born radii integrator          GBOBC
        Born offset                        0.0000E+00 a0       0.0000E+00 AA
        H-bond correction              true
        Ion screening                  false
        Surface tension                    1.0000E-05 Eh       1.5569E+01 dyn/cm
        Grid points                               230 per atom

          ...................................................
          :                      SETUP                      :
          :.................................................:
          :  # basis functions                  62          :
          :  # atomic orbitals                  62          :
          :  # shells                           42          :
          :  # electrons                        56          :
          :  # halogen bonds                     0          :
          :  max. iterations                   250          :
          :  Hamiltonian                  GFN1-xTB          :
          :  restarted?                      false          :
          :  GBSA solvation                   true          :
          :  PC potential                    false          :
          :  electronic temp.          300.0000000     K    :
          :  accuracy                    1.0000000          :
          :  -> integral cutoff          0.2500000E+02      :
          :  -> integral neglect         0.1000000E-07      :
          :  -> SCF convergence          0.1000000E-05 Eh   :
          :  -> wf. convergence          0.2000000E-04 e    :
          :  Broyden damping             0.4000000          :
          ...................................................

 iter      E             dE          RMSdq      gap      omega  full diag
   1    -31.7886893 -0.317887E+02  0.908E+00    2.68       0.0  T
   2    -31.8267570 -0.380677E-01  0.544E+00    2.45       1.0  T
   3    -31.8167620  0.999495E-02  0.108E+00    2.40       1.0  T
   4    -31.8309623 -0.142003E-01  0.177E-01    2.40       1.0  T
   5    -31.8312851 -0.322829E-03  0.381E-02    2.40       1.0  T
   6    -31.8313008 -0.156261E-04  0.695E-03    2.40       3.1  T
   7    -31.8313012 -0.411410E-06  0.186E-03    2.40      11.7  T
   8    -31.8313012 -0.136349E-07  0.521E-04    2.40      41.9  T
   9    -31.8313012 -0.813575E-09  0.182E-04    2.40     119.8  T
  10    -31.8313012 -0.114454E-09  0.356E-05    2.40     613.2  T

   *** convergence criteria satisfied after 10 iterations ***

         #    Occupation            Energy/Eh            Energy/eV
      -------------------------------------------------------------
         1        2.0000           -0.7899552             -21.4958
       ...           ...                  ...                  ...
        22        2.0000           -0.4279751             -11.6458
        23        2.0000           -0.4225424             -11.4980
        24        2.0000           -0.3999888             -10.8843
        25        2.0000           -0.3908222             -10.6348
        26        2.0000           -0.3723004             -10.1308
        27        2.0000           -0.3567741              -9.7083
        28        2.0000           -0.2622590              -7.1364 (HOMO)
        29                         -0.1738840              -4.7316 (LUMO)
        30                         -0.1035569              -2.8179
        31                         -0.0823652              -2.2413
        32                         -0.0762520              -2.0749
        33                         -0.0677925              -1.8447
       ...                                ...                  ...
        62                          0.6731857              18.3183
      -------------------------------------------------------------
                  HL-Gap            0.0883750 Eh            2.4048 eV
             Fermi-level           -0.2180715 Eh           -5.9340 eV

 SCC (total)                   0 d,  0 h,  0 min,  0.036 sec
 SCC setup                      ...        0 min,  0.001 sec (  2.014%)
 Dispersion                     ...        0 min,  0.000 sec (  0.268%)
 classical contributions        ...        0 min,  0.000 sec (  0.103%)
 integral evaluation            ...        0 min,  0.008 sec ( 23.514%)
 iterations                     ...        0 min,  0.009 sec ( 23.866%)
 molecular gradient             ...        0 min,  0.018 sec ( 49.523%)
 printout                       ...        0 min,  0.000 sec (  0.656%)

         :::::::::::::::::::::::::::::::::::::::::::::::::::::
         ::                     SUMMARY                     ::
         :::::::::::::::::::::::::::::::::::::::::::::::::::::
         :: total energy             -31.450185124780 Eh    ::
         :: total w/o Gsasa/hb       -31.440089086525 Eh    ::
         :: gradient norm              0.072960172644 Eh/a0 ::
         :: HOMO-LUMO gap              2.404807169932 eV    ::
         ::.................................................::
         :: SCC energy               -31.831301198478 Eh    ::
         :: -> electrostatic           0.129765543087 Eh    ::
         :: -> Gsolv                  -0.077164171799 Eh    ::
         ::    -> Gelec               -0.067068133543 Eh    ::
         ::    -> Gsasa               -0.014112169559 Eh    ::
         ::    -> Ghb                 -0.003608147700 Eh    ::
         ::    -> Gshift               0.007624279005 Eh    ::
         :: repulsion energy           0.391101448850 Eh    ::
         :: dispersion energy         -0.009985375152 Eh    ::
         :: halogen bond corr.         0.000000000000 Eh    ::
         :: add. restraining           0.000000000000 Eh    ::
         :: total charge              -1.000000000000 e     ::
         :::::::::::::::::::::::::::::::::::::::::::::::::::::

      ----------------------------------------------------------- 
     |                   =====================                   |
     |                        A N C O P T                        |
     |                   =====================                   |
     |               Approximate Normal Coordinate               |
     |                Rational Function Optimizer                |
      ----------------------------------------------------------- 

          ...................................................
          :                      SETUP                      :
          :.................................................:
          :   optimization level            normal          :
          :   max. optcycles                   200          :
          :   ANC micro-cycles                  20          :
          :   degrees of freedom                57          :
          :.................................................:
          :   RF solver                   davidson          :
          :   write xtbopt.log                true          :
          :   linear?                        false          :
          :   energy convergence         0.5000000E-05 Eh   :
          :   grad. convergence          0.1000000E-02 Eh/α :
          :   maximium RF displ.         1.0000000          :
          :   Hlow (freq-cutoff)         0.1000000E-01      :
          :   Hmax (freq-cutoff)         5.0000000          :
          :   S6 in model hess.         20.0000000          :
          ...................................................

generating ANC from model Hessian ...
Using Lindh-Hessian (1995)
 Shifting diagonal of input Hessian by   7.985277166987097E-003
 Lowest  eigenvalues of input Hessian
    0.000000    0.000000    0.000000    0.000000    0.000000    0.000000
    0.010000    0.010720    0.014073    0.016218    0.016352    0.020721
    0.021681    0.024138    0.029505    0.031364    0.041317    0.050018
 Highest eigenvalues
    1.399784    1.470241    1.584619    1.753884    1.898784    2.001882
 

........................................................................
.............................. CYCLE    1 ..............................
........................................................................
   1    -31.8313012 -0.318313E+02  0.137E-05    2.40       0.0  T
   2    -31.8313012 -0.401457E-12  0.641E-06    2.40    3406.0  T
   3    -31.8313012  0.355271E-14  0.368E-06    2.40    5927.2  T
     SCC iter.                  ...        0 min,  0.003 sec
     gradient                   ...        0 min,  0.018 sec
 * total energy  :   -31.4501851 Eh     change       -0.2973621E-11 Eh
   gradient norm :     0.0729604 Eh/α   predicted     0.0000000E+00 (-100.00%)
   displ. norm   :     0.2560528 α      lambda       -0.8985660E-02
   maximum displ.:     0.1495757 α      in ANC's #15, #20, #28, ...

........................................................................
.............................. CYCLE    2 ..............................
........................................................................
   1    -31.8260761 -0.318261E+02  0.756E-02    2.47       0.0  T
   2    -31.8261330 -0.569885E-04  0.326E-02    2.47       1.0  T
   3    -31.8261358 -0.273977E-05  0.189E-02    2.47       1.2  T
   4    -31.8261362 -0.432282E-06  0.400E-03    2.47       5.5  T
   5    -31.8261364 -0.138442E-06  0.153E-03    2.47      14.2  T
   6    -31.8261364 -0.141212E-07  0.440E-04    2.47      49.6  T
   7    -31.8261364 -0.178096E-08  0.656E-05    2.47     332.9  T
   8    -31.8261364 -0.260769E-10  0.149E-05    2.47    1461.8  T
     SCC iter.                  ...        0 min,  0.006 sec
     gradient                   ...        0 min,  0.017 sec
 * total energy  :   -31.4560443 Eh     change       -0.5859161E-02 Eh
   gradient norm :     0.0355435 Eh/α   predicted    -0.4788408E-02 ( -18.27%)
   displ. norm   :     0.1679348 α      lambda       -0.2131947E-02
   maximum displ.:     0.0648850 α      in ANC's #3, #20, #15, ...

........................................................................
.............................. CYCLE    3 ..............................
........................................................................
   1    -31.8248104 -0.318248E+02  0.514E-02    2.52       0.0  T
   2    -31.8248400 -0.295986E-04  0.185E-02    2.52       1.2  T
   3    -31.8248415 -0.156713E-05  0.116E-02    2.52       1.9  T
   4    -31.8248418 -0.269243E-06  0.315E-03    2.52       6.9  T
   5    -31.8248419 -0.377222E-07  0.116E-03    2.52      18.8  T
   6    -31.8248419 -0.554236E-08  0.319E-04    2.52      68.5  T
   7    -31.8248419 -0.988866E-09  0.455E-05    2.52     480.0  T
   8    -31.8248419 -0.140368E-10  0.103E-05    2.52    2118.2  T
     SCC iter.                  ...        0 min,  0.006 sec
     gradient                   ...        0 min,  0.017 sec
 * total energy  :   -31.4573034 Eh     change       -0.1259108E-02 Eh
   gradient norm :     0.0117647 Eh/α   predicted    -0.1096813E-02 ( -12.89%)
   displ. norm   :     0.1055719 α      lambda       -0.3032501E-03
   maximum displ.:     0.0734446 α      in ANC's #3, #1, #8, ...

........................................................................
.............................. CYCLE    4 ..............................
........................................................................
   1    -31.8260210 -0.318260E+02  0.162E-02    2.53       0.0  T
   2    -31.8260248 -0.378007E-05  0.603E-03    2.53       3.6  T
   3    -31.8260250 -0.202223E-06  0.306E-03    2.53       7.1  T
   4    -31.8260250 -0.989901E-08  0.880E-04    2.53      24.8  T
   5    -31.8260250 -0.235787E-08  0.334E-04    2.53      65.2  T
   6    -31.8260250 -0.242075E-09  0.818E-05    2.53     266.7  T
   7    -31.8260250 -0.741238E-10  0.194E-05    2.53    1125.0  T
     SCC iter.                  ...        0 min,  0.006 sec
     gradient                   ...        0 min,  0.017 sec
 * total energy  :   -31.4575250 Eh     change       -0.2216454E-03 Eh
   gradient norm :     0.0043502 Eh/α   predicted    -0.1533380E-03 ( -30.82%)
   displ. norm   :     0.1753927 α      lambda       -0.2503799E-03
   maximum displ.:     0.1324816 α      in ANC's #3, #1, #8, ...

........................................................................
.............................. CYCLE    5 ..............................
........................................................................
   1    -31.8273979 -0.318274E+02  0.124E-02    2.54       0.0  T
   2    -31.8274013 -0.337069E-05  0.636E-03    2.54       3.4  T
   3    -31.8274015 -0.226908E-06  0.268E-03    2.54       8.1  T
   4    -31.8274016 -0.263888E-07  0.156E-03    2.54      14.0  T
   5    -31.8274016 -0.679298E-08  0.301E-04    2.54      72.6  T
   6    -31.8274016 -0.508116E-09  0.105E-04    2.54     207.1  T
   7    -31.8274016 -0.307345E-10  0.144E-05    2.54    1514.4  T
     SCC iter.                  ...        0 min,  0.006 sec
     gradient                   ...        0 min,  0.017 sec
 * total energy  :   -31.4577051 Eh     change       -0.1800305E-03 Eh
   gradient norm :     0.0057602 Eh/α   predicted    -0.1290421E-03 ( -28.32%)
   displ. norm   :     0.2135704 α      lambda       -0.1928717E-03
   maximum displ.:     0.1653051 α      in ANC's #3, #1, #8, ...

........................................................................
.............................. CYCLE    6 ..............................
........................................................................
   1    -31.8278889 -0.318279E+02  0.939E-03    2.54       0.0  T
   2    -31.8278912 -0.228998E-05  0.537E-03    2.54       4.1  T
   3    -31.8278915 -0.277543E-06  0.211E-03    2.54      10.4  T
   4    -31.8278915 -0.176259E-07  0.103E-03    2.54      21.2  T
   5    -31.8278915 -0.227077E-08  0.189E-04    2.54     115.5  T
   6    -31.8278915 -0.768559E-10  0.643E-05    2.54     339.2  T
     SCC iter.                  ...        0 min,  0.005 sec
     gradient                   ...        0 min,  0.017 sec
 * total energy  :   -31.4578594 Eh     change       -0.1543612E-03 Eh
   gradient norm :     0.0083855 Eh/α   predicted    -0.1008367E-03 ( -34.67%)
   displ. norm   :     0.2165513 α      lambda       -0.1948784E-03
   maximum displ.:     0.1594286 α      in ANC's #3, #1, #2, ...

........................................................................
.............................. CYCLE    7 ..............................
........................................................................
   1    -31.8278714 -0.318279E+02  0.922E-03    2.54       0.0  T
   2    -31.8278726 -0.118378E-05  0.356E-03    2.54       6.1  T
   3    -31.8278728 -0.196059E-06  0.155E-03    2.54      14.1  T
   4    -31.8278728 -0.945978E-08  0.571E-04    2.54      38.2  T
   5    -31.8278728 -0.231804E-09  0.923E-05    2.54     236.4  T
   6    -31.8278728 -0.114433E-10  0.238E-05    2.54     915.1  T
     SCC iter.                  ...        0 min,  0.005 sec
     gradient                   ...        0 min,  0.017 sec
 * total energy  :   -31.4580251 Eh     change       -0.1656319E-03 Eh
   gradient norm :     0.0072826 Eh/α   predicted    -0.1020112E-03 ( -38.41%)
   displ. norm   :     0.3007905 α      lambda       -0.2441070E-03
   maximum displ.:     0.2160686 α      in ANC's #3, #1, #2, ...

........................................................................
.............................. CYCLE    8 ..............................
........................................................................
   1    -31.8271460 -0.318271E+02  0.110E-02    2.54       0.0  T
   2    -31.8271469 -0.944071E-06  0.350E-03    2.54       6.2  T
   3    -31.8271470 -0.103744E-06  0.244E-03    2.54       9.0  T
   4    -31.8271471 -0.291141E-07  0.841E-04    2.54      26.0  T
   5    -31.8271471 -0.541377E-09  0.156E-04    2.54     140.0  T
   6    -31.8271471 -0.586766E-10  0.510E-05    2.54     428.2  T
     SCC iter.                  ...        0 min,  0.005 sec
     gradient                   ...        0 min,  0.018 sec
 * total energy  :   -31.4582083 Eh     change       -0.1832615E-03 Eh
   gradient norm :     0.0047004 Eh/α   predicted    -0.1330987E-03 ( -27.37%)
   displ. norm   :     0.2589818 α      lambda       -0.1351617E-03
   maximum displ.:     0.1853615 α      in ANC's #3, #1, #2, ...

........................................................................
.............................. CYCLE    9 ..............................
........................................................................
   1    -31.8268223 -0.318268E+02  0.664E-03    2.54       0.0  T
   2    -31.8268226 -0.343805E-06  0.288E-03    2.54       7.6  T
   3    -31.8268227 -0.304359E-07  0.102E-03    2.54      21.5  T
   4    -31.8268227 -0.174396E-08  0.469E-04    2.54      46.5  T
   5    -31.8268227 -0.716426E-09  0.115E-04    2.54     189.4  T
   6    -31.8268227 -0.632348E-10  0.490E-05    2.54     445.2  T
     SCC iter.                  ...        0 min,  0.005 sec
     gradient                   ...        0 min,  0.018 sec
 * total energy  :   -31.4582931 Eh     change       -0.8475517E-04 Eh
   gradient norm :     0.0037028 Eh/α   predicted    -0.7211476E-04 ( -14.91%)
   displ. norm   :     0.0899052 α      lambda       -0.4293913E-04
   maximum displ.:     0.0618107 α      in ANC's #3, #2, #5, ...

........................................................................
.............................. CYCLE   10 ..............................
........................................................................
   1    -31.8279887 -0.318280E+02  0.594E-03    2.55       0.0  T
   2    -31.8279893 -0.558278E-06  0.333E-03    2.55       6.6  T
   3    -31.8279894 -0.907781E-07  0.153E-03    2.55      14.2  T
   4    -31.8279894 -0.325792E-08  0.407E-04    2.55      53.6  T
   5    -31.8279894 -0.321702E-09  0.862E-05    2.55     253.1  T
   6    -31.8279894 -0.462954E-10  0.215E-05    2.55    1012.8  T
     SCC iter.                  ...        0 min,  0.005 sec
     gradient                   ...        0 min,  0.018 sec
 * total energy  :   -31.4583225 Eh     change       -0.2940743E-04 Eh
   gradient norm :     0.0025132 Eh/α   predicted    -0.2164382E-04 ( -26.40%)
   displ. norm   :     0.0798747 α      lambda       -0.2111935E-04
   maximum displ.:     0.0535951 α      in ANC's #3, #2, #5, ...

........................................................................
.............................. CYCLE   11 ..............................
........................................................................
   1    -31.8282972 -0.318283E+02  0.621E-03    2.56       0.0  T
   2    -31.8282979 -0.622250E-06  0.262E-03    2.56       8.3  T
   3    -31.8282980 -0.110712E-06  0.792E-04    2.56      27.6  T
   4    -31.8282980 -0.180254E-08  0.291E-04    2.56      74.9  T
   5    -31.8282980 -0.590425E-10  0.658E-05    2.56     331.8  T
   6    -31.8282980 -0.202292E-10  0.205E-05    2.56    1066.3  T
     SCC iter.                  ...        0 min,  0.005 sec
     gradient                   ...        0 min,  0.017 sec
 * total energy  :   -31.4583364 Eh     change       -0.1392505E-04 Eh
   gradient norm :     0.0012698 Eh/α   predicted    -0.1063117E-04 ( -23.65%)
   displ. norm   :     0.0525107 α      lambda       -0.7993741E-05
   maximum displ.:     0.0356564 α      in ANC's #2, #1, #3, ...

........................................................................
.............................. CYCLE   12 ..............................
........................................................................
   1    -31.8286872 -0.318287E+02  0.616E-03    2.56       0.0  T
   2    -31.8286877 -0.581561E-06  0.250E-03    2.56       8.7  T
   3    -31.8286878 -0.104928E-06  0.824E-04    2.56      26.5  T
   4    -31.8286878 -0.156872E-08  0.277E-04    2.56      78.8  T
   5    -31.8286878 -0.319282E-10  0.495E-05    2.56     440.5  T
   6    -31.8286878 -0.204778E-10  0.129E-05    2.56    1692.7  T
     SCC iter.                  ...        0 min,  0.005 sec
     gradient                   ...        0 min,  0.018 sec
 * total energy  :   -31.4583432 Eh     change       -0.6794724E-05 Eh
   gradient norm :     0.0010726 Eh/α   predicted    -0.4005814E-05 ( -41.05%)
   displ. norm   :     0.0266232 α      lambda       -0.3308357E-05
   maximum displ.:     0.0173918 α      in ANC's #1, #2, #8, ...

........................................................................
.............................. CYCLE   13 ..............................
........................................................................
   1    -31.8283350 -0.318283E+02  0.125E-03    2.56       0.0  T
   2    -31.8283350 -0.146106E-07  0.665E-04    2.56      32.8  T
   3    -31.8283350 -0.121728E-08  0.333E-04    2.56      65.5  T
   4    -31.8283350 -0.229342E-09  0.110E-04    2.56     199.2  T
   5    -31.8283350 -0.280593E-10  0.235E-05    2.56     928.2  T
     SCC iter.                  ...        0 min,  0.004 sec
     gradient                   ...        0 min,  0.018 sec
 * total energy  :   -31.4583467 Eh     change       -0.3536663E-05 Eh
   gradient norm :     0.0008437 Eh/α   predicted    -0.1659283E-05 ( -53.08%)
   displ. norm   :     0.0346234 α      lambda       -0.2986720E-05
   maximum displ.:     0.0273765 α      in ANC's #1, #2, #3, ...

   *** GEOMETRY OPTIMIZATION CONVERGED AFTER 13 ITERATIONS ***

------------------------------------------------------------------------
 total energy gain   :        -0.0081616 Eh       -5.1215 kcal/mol
 total RMSD          :         0.3425901 a0        0.1813 Å
 total power (kW/mol):        -1.6483328 (step)  -50.9093 (real)
------------------------------------------------------------------------

 ANCopt (total)                0 d,  0 h,  0 min,  0.421 sec
 optimizer setup                ...        0 min,  0.001 sec (  0.134%)
 model hessian                  ...        0 min,  0.006 sec (  1.488%)
 ANC generation                 ...        0 min,  0.001 sec (  0.143%)
 coordinate transformation      ...        0 min,  0.000 sec (  0.022%)
 single point calculation       ...        0 min,  0.408 sec ( 96.879%)
 optimization log               ...        0 min,  0.003 sec (  0.675%)
 hessian update                 ...        0 min,  0.000 sec (  0.026%)
 rational function              ...        0 min,  0.001 sec (  0.177%)

================
 final structure:
================
21
 xtb: 6.5.1 (579679a)
C            2.09828859056692       -1.21550486582982        0.85160750196235
C            1.54493349406330       -0.53306176090111       -0.44127226874668
C            0.06083284835194       -0.79620674377941       -0.61731021661096
C           -0.89777815165512        0.16624165137978       -0.43101102586792
C           -2.36402482561044       -0.22276296854413       -0.51520164670861
N           -2.98731814464700       -0.29802691967088        0.81749271551274
C           -0.58497180250961        1.52046275258559       -0.18996017100436
C            0.78313018088608        1.89155120829838       -0.22790014010444
C            1.73830582196263        0.95255551710468       -0.39785824050308
F            3.06957201779218        1.35428583784740       -0.51627792218523
H            1.57347731705818       -0.83356151150367        1.72767399462462
H            3.16491065111756       -1.01299239593612        0.96280376313182
H            1.94793112289365       -2.29450474068001        0.79783537279245
H            2.12271217120888       -0.96727277467827       -1.28246836610495
H           -0.21780014675483       -1.82077090667606       -0.85294728050550
H           -2.92724243721748        0.51312958707501       -1.10595890591610
H           -2.48602003492605       -1.20128566342069       -0.99777758244966
H           -2.50086525503456       -1.00083046242864        1.36196130036413
H           -2.84595610580927        0.58923579877296        1.28814449531156
H           -1.35773468697357        2.26957284865180       -0.06665265054204
H            1.06561837523648        2.93974551233359       -0.16492272645013
 
 Bond Distances (Angstroems)
 ---------------------------
C1-C2=1.5632         C1-H11=1.0903        C1-H12=1.0914        C1-H13=1.0908        C2-C1=1.5632         C2-C3=1.5175         
C2-C9=1.4988         C2-H14=1.1090        C3-C2=1.5175         C3-C4=1.3711         C3-H15=1.0876        C4-C3=1.3711         
C4-C5=1.5193         C4-C7=1.4106         C5-C4=1.5193         C5-N6=1.4732         C5-H16=1.0990        C5-H17=1.0978        
N6-C5=1.4732         N6-H18=1.0134        N6-H19=1.0143        C7-C4=1.4106         C7-C8=1.4180         C7-H20=1.0833        
C8-C7=1.4180         C8-C9=1.3502         C8-H21=1.0874        C9-C2=1.4988         C9-C8=1.3502         C9-F10=1.3956        
F10-C9=1.3956        H11-C1=1.0903        H12-C1=1.0914        H13-C1=1.0908        H14-C2=1.1090        H15-C3=1.0876        
H16-C5=1.0990        H17-C5=1.0978        H18-N6=1.0134        H19-N6=1.0143        H20-C7=1.0833        H21-C8=1.0874        
 C  H  Rav=1.0930 sigma=0.0073  Rmin=1.0833  Rmax=1.1090     9
 C  C  Rav=1.4561 sigma=0.0733  Rmin=1.3502  Rmax=1.5632     8
 N  H  Rav=1.0138 sigma=0.0004  Rmin=1.0134  Rmax=1.0143     2
 N  C  Rav=1.4732 sigma=0.0000  Rmin=1.4732  Rmax=1.4732     1
 F  C  Rav=1.3956 sigma=0.0000  Rmin=1.3956  Rmax=1.3956     1
 
 selected bond angles (degree)
 --------------------
H11-C1-C2=109.95               H12-C1-C2=110.44               H12-C1-H11=108.88              H13-C1-C2=110.02               
H13-C1-H11=108.65              H13-C1-H12=108.86              C3-C2-C1=111.50                C9-C2-C1=111.29                
C9-C2-C3=107.54                H14-C2-C1=105.78               H14-C2-C3=110.71               H14-C2-C9=110.05               
C4-C3-C2=123.11                H15-C3-C2=116.04               H15-C3-C4=120.77               C5-C4-C3=119.17                
C7-C4-C3=122.82                C7-C4-C5=117.99                N6-C5-C4=111.79                H16-C5-C4=110.67               
H16-C5-N6=107.68               H17-C5-C4=111.09               H17-C5-N6=107.76               H17-C5-H16=107.67              
H18-N6-C5=108.56               H19-N6-C5=108.43               H19-N6-H18=106.89              C8-C7-C4=117.43                
H20-C7-C4=121.68               H20-C7-C8=120.68               C9-C8-C7=120.26                H21-C8-C7=120.09               
H21-C8-C9=119.60               C8-C9-C2=126.99                F10-C9-C2=113.95               F10-C9-C8=119.03               
 
 selected dihedral angles (degree)
 ---------------------------------
C3-C2-C1-H11=300.34           C3-C2-C1-H12=180.17           C3-C2-C1-H13= 59.97           C9-C2-C1-H11= 60.42           
C9-C2-C1-H12=300.25           C9-C2-C1-H13=180.05           H14-C2-C1-H11=179.93          H14-C2-C1-H12= 59.75          
H14-C2-C1-H13=299.55          C4-C3-C2-C1=108.04            C4-C3-C2-C9=345.78            C4-C3-C2-H14=225.52           
H15-C3-C2-C1=291.20           H15-C3-C2-C9=168.93           H15-C3-C2-H14= 48.68          C5-C4-C3-C2=185.17            
C5-C4-C3-H15=  1.87           C7-C4-C3-C2=  6.55            C7-C4-C3-H15=183.25           N6-C5-C4-C3=104.42            
N6-C5-C4-C7=283.11            H16-C5-C4-C3=224.44           H16-C5-C4-C7= 43.13           H17-C5-C4-C3=344.00           
H17-C5-C4-C7=162.69           H18-N6-C5-C4=299.52           H18-N6-C5-H16=177.76          H18-N6-C5-H17= 61.86          
H19-N6-C5-C4= 55.29           H19-N6-C5-H16=293.53          H19-N6-C5-H17=177.64          C8-C7-C4-C3=  3.93            
C8-C7-C4-C5=185.29            H20-C7-C4-C3=178.65           H20-C7-C4-C5=  0.00           C9-C8-C7-C4=355.56            
C9-C8-C7-H20=180.79           H21-C8-C7-C4=172.81           H21-C8-C7-H20=358.04          C8-C9-C2-C1=251.88            
C8-C9-C2-C3= 14.27            C8-C9-C2-H14=134.95           F10-C9-C2-C1= 70.14           F10-C9-C2-C3=192.53           
F10-C9-C2-H14=313.21          C2-C9-C8-C7=354.16            C2-C9-C8-H21=176.90           F10-C9-C8-C7=175.98           
F10-C9-C8-H21=358.71          
           -------------------------------------------------
          |                Final Singlepoint                |
           -------------------------------------------------

          ...................................................
          :                      SETUP                      :
          :.................................................:
          :  # basis functions                  62          :
          :  # atomic orbitals                  62          :
          :  # shells                           42          :
          :  # electrons                        56          :
          :  # halogen bonds                     0          :
          :  max. iterations                   250          :
          :  Hamiltonian                  GFN1-xTB          :
          :  restarted?                      false          :
          :  GBSA solvation                   true          :
          :  PC potential                    false          :
          :  electronic temp.          300.0000000     K    :
          :  accuracy                    1.0000000          :
          :  -> integral cutoff          0.2500000E+02      :
          :  -> integral neglect         0.1000000E-07      :
          :  -> SCF convergence          0.1000000E-05 Eh   :
          :  -> wf. convergence          0.2000000E-04 e    :
          :  Broyden damping             0.4000000          :
          ...................................................

 iter      E             dE          RMSdq      gap      omega  full diag
   1    -31.8283350 -0.318283E+02  0.710E-06    2.56       0.0  T
   2    -31.8283350 -0.145661E-12  0.311E-06    2.56    7009.4  T
   3    -31.8283350 -0.113687E-12  0.821E-07    2.56   26588.8  T

   *** convergence criteria satisfied after 3 iterations ***

         #    Occupation            Energy/Eh            Energy/eV
      -------------------------------------------------------------
         1        2.0000           -0.7793693             -21.2077
       ...           ...                  ...                  ...
        22        2.0000           -0.4300392             -11.7020
        23        2.0000           -0.4217320             -11.4759
        24        2.0000           -0.4025826             -10.9548
        25        2.0000           -0.3991165             -10.8605
        26        2.0000           -0.3712061             -10.1010
        27        2.0000           -0.3579333              -9.7399
        28        2.0000           -0.2702167              -7.3530 (HOMO)
        29                         -0.1762019              -4.7947 (LUMO)
        30                         -0.1102244              -2.9994
        31                         -0.0830529              -2.2600
        32                         -0.0770684              -2.0971
        33                         -0.0670286              -1.8239
       ...                                ...                  ...
        62                          0.6661470              18.1268
      -------------------------------------------------------------
                  HL-Gap            0.0940148 Eh            2.5583 eV
             Fermi-level           -0.2232093 Eh           -6.0738 eV

 SCC (total)                   0 d,  0 h,  0 min,  0.032 sec
 SCC setup                      ...        0 min,  0.001 sec (  1.822%)
 Dispersion                     ...        0 min,  0.000 sec (  0.206%)
 classical contributions        ...        0 min,  0.000 sec (  0.074%)
 integral evaluation            ...        0 min,  0.010 sec ( 31.516%)
 iterations                     ...        0 min,  0.003 sec ( 10.424%)
 molecular gradient             ...        0 min,  0.018 sec ( 55.216%)
 printout                       ...        0 min,  0.000 sec (  0.680%)

         :::::::::::::::::::::::::::::::::::::::::::::::::::::
         ::                     SUMMARY                     ::
         :::::::::::::::::::::::::::::::::::::::::::::::::::::
         :: total energy             -31.458346743171 Eh    ::
         :: total w/o Gsasa/hb       -31.448319978462 Eh    ::
         :: gradient norm              0.000844639607 Eh/a0 ::
         :: HOMO-LUMO gap              2.558271679501 eV    ::
         ::.................................................::
         :: SCC energy               -31.828335015071 Eh    ::
         :: -> electrostatic           0.132215892718 Eh    ::
         :: -> Gsolv                  -0.077118320558 Eh    ::
         ::    -> Gelec               -0.067091555850 Eh    ::
         ::    -> Gsasa               -0.014154706988 Eh    ::
         ::    -> Ghb                 -0.003496336726 Eh    ::
         ::    -> Gshift               0.007624279005 Eh    ::
         :: repulsion energy           0.380031035976 Eh    ::
         :: dispersion energy         -0.010042764075 Eh    ::
         :: halogen bond corr.         0.000000000000 Eh    ::
         :: add. restraining           0.000000000000 Eh    ::
         :: total charge              -1.000000000000 e     ::
         :::::::::::::::::::::::::::::::::::::::::::::::::::::

           -------------------------------------------------
          |                Property Printout                |
           -------------------------------------------------

    * Orbital Energies and Occupations

         #    Occupation            Energy/Eh            Energy/eV
      -------------------------------------------------------------
         1        2.0000           -0.7793693             -21.2077
       ...           ...                  ...                  ...
        16        2.0000           -0.4821786             -13.1207
        17        2.0000           -0.4770605             -12.9815
        18        2.0000           -0.4666104             -12.6971
        19        2.0000           -0.4619119             -12.5693
        20        2.0000           -0.4539983             -12.3539
        21        2.0000           -0.4453830             -12.1195
        22        2.0000           -0.4300392             -11.7020
        23        2.0000           -0.4217320             -11.4759
        24        2.0000           -0.4025826             -10.9548
        25        2.0000           -0.3991165             -10.8605
        26        2.0000           -0.3712061             -10.1010
        27        2.0000           -0.3579333              -9.7399
        28        2.0000           -0.2702167              -7.3530 (HOMO)
        29                         -0.1762019              -4.7947 (LUMO)
        30                         -0.1102244              -2.9994
        31                         -0.0830529              -2.2600
        32                         -0.0770684              -2.0971
        33                         -0.0670286              -1.8239
        34                         -0.0587438              -1.5985
        35                         -0.0492466              -1.3401
        36                         -0.0447445              -1.2176
        37                         -0.0329602              -0.8969
        38                         -0.0214198              -0.5829
        39                         -0.0163309              -0.4444
       ...                                ...                  ...
        62                          0.6661470              18.1268
      -------------------------------------------------------------
                  HL-Gap            0.0940148 Eh            2.5583 eV
             Fermi-level           -0.2232093 Eh           -6.0738 eV

  Mulliken/CM5 charges         n(s)   n(p)   n(d)
     1C    -0.09916 -0.24594   1.016  3.083  0.000
     2C     0.01519 -0.04157   1.043  2.941  0.000
     3C    -0.20994 -0.26413   1.033  3.177  0.000
     4C    -0.01158 -0.02297   1.078  2.934  0.000
     5C     0.09019  0.03947   1.007  2.903  0.000
     6N    -0.52645 -0.97641   1.477  4.049  0.000
     7C    -0.22638 -0.27937   1.013  3.214  0.000
     8C    -0.08155 -0.13184   1.045  3.037  0.000
     9C     0.11329  0.12042   1.041  2.845  0.000
    10F    -0.36548 -0.38796   1.858  5.508  0.000
    11H    -0.00019  0.05265   1.000  0.000  0.000
    12H     0.00438  0.05666   0.996  0.000  0.000
    13H     0.00271  0.05447   0.997  0.000  0.000
    14H    -0.02482  0.03245   1.025  0.000  0.000
    15H    -0.02118  0.03538   1.021  0.000  0.000
    16H    -0.00717  0.05675   1.007  0.000  0.000
    17H    -0.00627  0.05793   1.006  0.000  0.000
    18H     0.19351  0.38144   0.806  0.000  0.000
    19H     0.19347  0.38147   0.807  0.000  0.000
    20H    -0.02184  0.03523   1.022  0.000  0.000
    21H    -0.01076  0.04587   1.011  0.000  0.000

Wiberg/Mayer (AO) data.
largest (>0.10) Wiberg bond orders for each atom

 ---------------------------------------------------------------------------
     #   Z sym  total        # sym  WBO       # sym  WBO       # sym  WBO
 ---------------------------------------------------------------------------
     1   6 C    3.993 --    11 H    0.989    13 H    0.988    12 H    0.988
                             2 C    0.963
     2   6 C    3.993 --     9 C    1.008     3 C    1.001    14 H    0.967
                             1 C    0.963
     3   6 C    3.905 --     4 C    1.580     2 C    1.001    15 H    0.974
                             7 C    0.116
     4   6 C    3.986 --     3 C    1.580     7 C    1.315     5 C    0.989
     5   6 C    3.967 --     4 C    0.989    17 H    0.982    16 H    0.980
                             6 N    0.977
     6   7 N    2.947 --     5 C    0.977    18 H    0.957    19 H    0.955
     7   6 C    3.881 --     4 C    1.315     8 C    1.271    20 H    0.976
                             3 C    0.116     9 C    0.108
     8   6 C    3.989 --     9 C    1.627     7 C    1.271    21 H    0.972
     9   6 C    3.768 --     8 C    1.627     2 C    1.008    10 F    0.832
                             7 C    0.108
    10   9 F    0.940 --     9 C    0.832
    11   1 H    1.025 --     1 C    0.989
    12   1 H    1.013 --     1 C    0.988
    13   1 H    1.015 --     1 C    0.988
    14   1 H    1.023 --     2 C    0.967
    15   1 H    1.003 --     3 C    0.974
    16   1 H    1.019 --     5 C    0.980
    17   1 H    1.016 --     5 C    0.982
    18   1 H    0.976 --     6 N    0.957
    19   1 H    0.978 --     6 N    0.955
    20   1 H    1.003 --     7 C    0.976
    21   1 H    1.008 --     8 C    0.972
 ---------------------------------------------------------------------------

Topologies differ in total number of bonds
Writing topology from bond orders to xtbtopo.mol

 dipole moment from electron density (au)
     X       Y       Z   
  -0.8839  -1.0779   0.8399  total (Debye):    4.137

           -------------------------------------------------
          |                Geometry Summary                 |
           -------------------------------------------------

      molecular mass/u    :      140.1783418
   center of mass at/Å    :        0.3036426       0.2845746      -0.1449950
  moments of inertia/u·Å² :        0.2006064E+03   0.6033087E+03   0.7225653E+03
rotational constants/cm⁻¹ :        0.8403338E-01   0.2794197E-01   0.2333025E-01

 * 16 selected distances

     #   Z          #   Z                                           value/Å
     3   6 C        4   6 C                                       1.3711126
     5   6 C        6   7 N                                       1.4731714 (max)
     4   6 C        7   6 C                                       1.4106270
     7   6 C        8   6 C                                       1.4180442
     8   6 C        9   6 C                                       1.3501702
     1   6 C       11   1 H                                       1.0903212
     1   6 C       12   1 H                                       1.0913564
     1   6 C       13   1 H                                       1.0907519
     2   6 C       14   1 H                                       1.1090440
     3   6 C       15   1 H                                       1.0876089
     5   6 C       16   1 H                                       1.0989751
     5   6 C       17   1 H                                       1.0978476
     6   7 N       18   1 H                                       1.0134177 (min)
     6   7 N       19   1 H                                       1.0142641
     7   6 C       20   1 H                                       1.0832975
     8   6 C       21   1 H                                       1.0874177

 * 4 distinct bonds (by element types)

   Z      Z             #   av. dist./Å        max./Å        min./Å
   1 H    6 C           9     1.0929578     1.1090440     1.0832975
   6 C    6 C           4     1.3874885     1.4180442     1.3501702
   1 H    7 N           2     1.0138409     1.0142641     1.0134177
   6 C    7 N           1     1.4731714     1.4731714     1.4731714


optimized geometry written to: xtbopt.xyz


           -------------------------------------------------
          | TOTAL ENERGY              -31.458346743171 Eh   |
          | GRADIENT NORM               0.000844639607 Eh/α |
          | HOMO-LUMO GAP               2.558271679501 eV   |
           -------------------------------------------------

------------------------------------------------------------------------
 * finished run on 2023/06/20 at 15:13:24.545     
------------------------------------------------------------------------
 total:
 * wall-time:     0 d,  0 h,  0 min,  0.551 sec
 *  cpu-time:     0 d,  0 h,  0 min,  0.501 sec
 * ratio c/w:     0.910 speedup
 SCF:
 * wall-time:     0 d,  0 h,  0 min,  0.036 sec
 *  cpu-time:     0 d,  0 h,  0 min,  0.036 sec
 * ratio c/w:     1.000 speedup
 ANC optimizer:
 * wall-time:     0 d,  0 h,  0 min,  0.459 sec
 *  cpu-time:     0 d,  0 h,  0 min,  0.444 sec
 * ratio c/w:     0.968 speedup

