43
 energy: -83.120173711733 gnorm: 0.000313446965 xtb: 6.5.1 (579679a)
C            4.00236211144357        3.87869737313170       -0.76309483692895
O            4.00547378317428        2.44604266186744       -0.77150862425732
C            2.84110714508754        1.84371689029997       -0.57565497936587
O            1.79888639385962        2.43121931309891       -0.39426271677067
C            2.93507398201819        0.35084506379667       -0.59832278716678
N            1.73195415683864       -0.26800925223277       -0.37870162305865
C            1.64554274563710       -1.55626401916428       -0.36559686641107
C            0.30449377391794       -2.20525485185892       -0.10080436619687
C            0.35018770513290       -2.99586040399279        1.21521984058566
C           -0.11340006713212       -3.10267691899362       -1.27413075512508
N           -0.64695627664699       -1.10202149443936        0.02583271473420
C           -1.95153488426019       -1.26093813064727        0.27039343969546
O           -2.55649809473474       -2.29545107917767        0.43736058373215
C           -2.64403295172756        0.08212778721964        0.30705385353697
N           -2.01913894876753        1.28971143556927        0.10282520590675
N           -2.89476978323778        2.19285288674792        0.18170132254038
C           -4.17237894949132        1.61833546878824        0.44614273019071
C           -5.13981377583350        1.88902990617005       -0.71371020209911
C           -4.72418437363825        2.10263255546854        1.79248790183955
O           -3.89090407971795        0.22176206132269        0.51325437644699
N            2.72502039959874       -2.35876842813594       -0.56785644698641
C            3.98865192673951       -1.85967792998001       -0.80119726898007
O            4.95604523835207       -2.57600640973165       -0.98471754948070
C            4.06579587470086       -0.39619948533562       -0.80752847674562
O            5.27419005141426        0.11379680073918       -1.02537205157444
H            3.32591765626144        4.25488671784814       -1.53375378901524
H            3.67877738544112        4.24483863806128        0.21382064516606
H            5.02446287440171        4.19166456167559       -0.96710079605359
H           -0.62307409489294       -3.44168622611984        1.41088490137526
H            1.09247346079802       -3.78704381007568        1.13621160883516
H            0.61651623096352       -2.33476683368315        2.03788109845783
H           -0.17200832464329       -2.51683807800910       -2.18945963430248
H            0.61629937905339       -3.89894780608522       -1.40257923721880
H           -1.08565889121533       -3.54643614204402       -1.06863196255721
H           -0.24867748758819       -0.17070080117577       -0.08984543941503
H           -4.70291019809272        1.51984778580530       -1.63890122317942
H           -5.31103387529434        2.96019690434968       -0.78392850104908
H           -6.07578686700794        1.37259681404343       -0.51458629000846
H           -5.65944910901487        1.58543954796926        1.99304640474479
H           -4.89510493311722        3.17469571286947        1.73504792309002
H           -4.00344760693832        1.88268262753906        2.57682667217487
H            2.63496359026707       -3.36392552724978       -0.55842203314144
H            5.91656670788600       -0.61014288623835       -1.15048376595845
