
                                 *****************
                                 * O   R   C   A *
                                 *****************

                                            #,                                       
                                            ###                                      
                                            ####                                     
                                            #####                                    
                                            ######                                   
                                           ########,                                 
                                     ,,################,,,,,                         
                               ,,#################################,,                 
                          ,,##########################################,,             
                       ,#########################################, ''#####,          
                    ,#############################################,,   '####,        
                  ,##################################################,,,,####,       
                ,###########''''           ''''###############################       
              ,#####''   ,,,,##########,,,,          '''####'''          '####       
            ,##' ,,,,###########################,,,                        '##       
           ' ,,###''''                  '''############,,,                           
         ,,##''                                '''############,,,,        ,,,,,,###''
      ,#''                                            '''#######################'''  
     '                                                          ''''####''''         
             ,#######,   #######,   ,#######,      ##                                
            ,#'     '#,  ##    ##  ,#'     '#,    #''#        ######   ,####,        
            ##       ##  ##   ,#'  ##            #'  '#       #        #'  '#        
            ##       ##  #######   ##           ,######,      #####,   #    #        
            '#,     ,#'  ##    ##  '#,     ,#' ,#      #,         ##   #,  ,#        
             '#######'   ##     ##  '#######'  #'      '#     #####' # '####'        



                  #######################################################
                  #                        -***-                        #
                  #          Department of theory and spectroscopy      #
                  #    Directorship and core code : Frank Neese         #
                  #        Max Planck Institute fuer Kohlenforschung    #
                  #                Kaiser Wilhelm Platz 1               #
                  #                 D-45470 Muelheim/Ruhr               #
                  #                      Germany                        #
                  #                                                     #
                  #                  All rights reserved                #
                  #                        -***-                        #
                  #######################################################


                         Program Version 5.0.1 -  RELEASE  -


 With contributions from (in alphabetic order):
   Daniel Aravena         : Magnetic Suceptibility
   Michael Atanasov       : Ab Initio Ligand Field Theory (pilot matlab implementation)
   Alexander A. Auer      : GIAO ZORA, VPT2 properties, NMR spectrum
   Ute Becker             : Parallelization
   Giovanni Bistoni       : ED, misc. LED, open-shell LED, HFLD
   Martin Brehm           : Molecular dynamics
   Dmytro Bykov           : SCF Hessian
   Vijay G. Chilkuri      : MRCI spin determinant printing, contributions to CSF-ICE
   Dipayan Datta          : RHF DLPNO-CCSD density
   Achintya Kumar Dutta   : EOM-CC, STEOM-CC
   Dmitry Ganyushin       : Spin-Orbit,Spin-Spin,Magnetic field MRCI
   Miquel Garcia          : C-PCM and meta-GGA Hessian, CC/C-PCM, Gaussian charge scheme
   Yang Guo               : DLPNO-NEVPT2, F12-NEVPT2, CIM, IAO-localization
   Andreas Hansen         : Spin unrestricted coupled pair/coupled cluster methods
   Benjamin Helmich-Paris : MC-RPA, TRAH-SCF, COSX integrals
   Lee Huntington         : MR-EOM, pCC
   Robert Izsak           : Overlap fitted RIJCOSX, COSX-SCS-MP3, EOM
   Marcus Kettner         : VPT2
   Christian Kollmar      : KDIIS, OOCD, Brueckner-CCSD(T), CCSD density, CASPT2, CASPT2-K
   Simone Kossmann        : Meta GGA functionals, TD-DFT gradient, OOMP2, MP2 Hessian
   Martin Krupicka        : Initial AUTO-CI
   Lucas Lang             : DCDCAS
   Marvin Lechner         : AUTO-CI (C++ implementation), FIC-MRCC
   Dagmar Lenk            : GEPOL surface, SMD
   Dimitrios Liakos       : Extrapolation schemes; Compound Job, initial MDCI parallelization
   Dimitrios Manganas     : Further ROCIS development; embedding schemes
   Dimitrios Pantazis     : SARC Basis sets
   Anastasios Papadopoulos: AUTO-CI, single reference methods and gradients
   Taras Petrenko         : DFT Hessian,TD-DFT gradient, ASA, ECA, R-Raman, ABS, FL, XAS/XES, NRVS
   Peter Pinski           : DLPNO-MP2, DLPNO-MP2 Gradient
   Christoph Reimann      : Effective Core Potentials
   Marius Retegan         : Local ZFS, SOC
   Christoph Riplinger    : Optimizer, TS searches, QM/MM, DLPNO-CCSD(T), (RO)-DLPNO pert. Triples
   Tobias Risthaus        : Range-separated hybrids, TD-DFT gradient, RPA, STAB
   Michael Roemelt        : Original ROCIS implementation
   Masaaki Saitow         : Open-shell DLPNO-CCSD energy and density
   Barbara Sandhoefer     : DKH picture change effects
   Avijit Sen             : IP-ROCIS
   Kantharuban Sivalingam : CASSCF convergence, NEVPT2, FIC-MRCI
   Bernardo de Souza      : ESD, SOC TD-DFT
   Georgi Stoychev        : AutoAux, RI-MP2 NMR, DLPNO-MP2 response
   Willem Van den Heuvel  : Paramagnetic NMR
   Boris Wezisla          : Elementary symmetry handling
   Frank Wennmohs         : Technical directorship


 We gratefully acknowledge several colleagues who have allowed us to
 interface, adapt or use parts of their codes:
   Stefan Grimme, W. Hujo, H. Kruse, P. Pracht,  : VdW corrections, initial TS optimization,
                  C. Bannwarth, S. Ehlert          DFT functionals, gCP, sTDA/sTD-DF
   Ed Valeev, F. Pavosevic, A. Kumar             : LibInt (2-el integral package), F12 methods
   Garnet Chan, S. Sharma, J. Yang, R. Olivares  : DMRG
   Ulf Ekstrom                                   : XCFun DFT Library
   Mihaly Kallay                                 : mrcc  (arbitrary order and MRCC methods)
   Jiri Pittner, Ondrej Demel                    : Mk-CCSD
   Frank Weinhold                                : gennbo (NPA and NBO analysis)
   Christopher J. Cramer and Donald G. Truhlar   : smd solvation model
   Lars Goerigk                                  : TD-DFT with DH, B97 family of functionals
   V. Asgeirsson, H. Jonsson                     : NEB implementation
   FAccTs GmbH                                   : IRC, NEB, NEB-TS, DLPNO-Multilevel, CI-OPT
                                                   MM, QMMM, 2- and 3-layer-ONIOM, Crystal-QMMM,
                                                   LR-CPCM, SF, NACMEs, symmetry and pop. for TD-DFT,
                                                   nearIR, NL-DFT gradient (VV10), updates on ESD,
                                                   ML-optimized integration grids
   S Lehtola, MJT Oliveira, MAL Marques          : LibXC Library
   Liviu Ungur et al                             : ANISO software


 Your calculation uses the libint2 library for the computation of 2-el integrals
 For citations please refer to: http://libint.valeyev.net

 Your ORCA version has been built with support for libXC version: 5.1.0
 For citations please refer to: https://tddft.org/programs/libxc/

 This ORCA versions uses:
   CBLAS   interface :  Fast vector & matrix operations
   LAPACKE interface :  Fast linear algebra routines
   SCALAPACK package :  Parallel linear algebra routines
   Shared memory     :  Shared parallel matrices
   BLAS/LAPACK       :  OpenBLAS 0.3.15  USE64BITINT DYNAMIC_ARCH NO_AFFINITY Haswell SINGLE_THREADED
        Core in use  :  Haswell
   Copyright (c) 2011-2014, The OpenBLAS Project


Your calculation utilizes the geometrical counterpoise correction gCP
Please cite in your paper:
H.Kruse, S. Grimme J.Chem.Phys., 136, (2012), 154101 
   

Your calculation utilizes the atom-pairwise dispersion correction
based on tight binding partial charges (D4)
Cite in your paper:
E.Caldeweyher, C.Bannwarth, S.Grimme, J.Chem.Phys., (2017), 147, 034112.
E.Caldeweyher, S.Ehlert, A.Hansen, H.Neugebauer, S.Grimme, J.Chem.Phys., (2018), in progress.
   

Your calculation utilizes the SMD solvation module
Please cite in your paper:
A.V. Marenich, C.J. Cramer, D.G. Truhlar J. Phys. Chem. B, 113, (2009), 6378 

================================================================================

----- Orbital basis set information -----
Your calculation utilizes the basis: def2-mTZVPP
   Stefan Grimme, Andreas Hansen, Sebastian Ehlert, and Jan-Michael Mewes 
   J. Chem. Phys. 154, 000000 (2021). DOI: 10.1063/5.0040021

----- AuxJ basis set information -----
Your calculation utilizes the basis: def2-mTZVPP/J
   Stefan Grimme, Andreas Hansen, Sebastian Ehlert, and Jan-Michael Mewes 
   J. Chem. Phys. 154, 000000 (2021). DOI: 10.1063/5.0040021

================================================================================
                                        WARNINGS
                       Please study these warnings very carefully!
================================================================================

Using LibXC functional ID 497 : Re-regularized SCAN exchange by Furness et al
[ 1]  J. W. Furness, A. D. Kaplan, J. Ning, J. P. Perdew, and J. Sun, J. Phys. Chem. Lett. 11, 8208 (2020)
[ 2]  J. W. Furness, A. D. Kaplan, J. Ning, J. P. Perdew, and J. Sun, J. Phys. Chem. Lett. 11, 9248 (2020)
Using LibXC functional ID 498 : Re-regularized SCAN correlation by Furness et al
[ 1]  J. W. Furness, A. D. Kaplan, J. Ning, J. P. Perdew, and J. Sun, J. Phys. Chem. Lett. 11, 8208 (2020)
[ 2]  J. W. Furness, A. D. Kaplan, J. Ning, J. P. Perdew, and J. Sun, J. Phys. Chem. Lett. 11, 9248 (2020)
Using LibXC functional ID 497 : Re-regularized SCAN exchange by Furness et al
[ 1]  J. W. Furness, A. D. Kaplan, J. Ning, J. P. Perdew, and J. Sun, J. Phys. Chem. Lett. 11, 8208 (2020)
[ 2]  J. W. Furness, A. D. Kaplan, J. Ning, J. P. Perdew, and J. Sun, J. Phys. Chem. Lett. 11, 9248 (2020)
Using LibXC functional ID 498 : Re-regularized SCAN correlation by Furness et al
[ 1]  J. W. Furness, A. D. Kaplan, J. Ning, J. P. Perdew, and J. Sun, J. Phys. Chem. Lett. 11, 8208 (2020)
[ 2]  J. W. Furness, A. D. Kaplan, J. Ning, J. P. Perdew, and J. Sun, J. Phys. Chem. Lett. 11, 9248 (2020)

INFO   : the flag for use of the SHARK integral package has been found!

================================================================================
                                       INPUT FILE
================================================================================
NAME = /lustre/hpc/kemi/ree/PhD/git/ReactivityQM/calculations/RaltegravirCLI/reac01/conf02/gfn1/orca_calc.inp
|  1> # ORCA input file 
|  2> ! SP r2SCAN-3c CPCM 
|  3> 
|  4> %maxcore 1875.0 
|  5> %pal nprocs 4 end 
|  6> %cpcm smd true SMDsolvent "DMSO" end 
|  7> 
|  8> *xyz 0 1
|  9> C      -2.229453    0.292667    0.135135
| 10> C      -0.859322   -0.255263    0.072021
| 11> N      -0.503268   -1.486157   -0.164331
| 12> N       0.846632   -1.517184   -0.133972
| 13> C       1.247380   -0.302373    0.119239
| 14> C       2.633471    0.151420    0.251728
| 15> O       3.582851   -0.570239    0.148130
| 16> Cl      2.789833    1.838685    0.579483
| 17> O       0.200974    0.537955    0.258730
| 18> H      -2.340356    0.915795    1.021309
| 19> H      -2.418552    0.915674   -0.739939
| 20> H      -2.950190   -0.520980    0.158653
| 21> **                         ****END OF INPUT****
================================================================================

                       ****************************
                       * Single Point Calculation *
                       ****************************

---------------------------------
CARTESIAN COORDINATES (ANGSTROEM)
---------------------------------
  C     -2.229453    0.292667    0.135135
  C     -0.859322   -0.255263    0.072021
  N     -0.503268   -1.486157   -0.164331
  N      0.846632   -1.517184   -0.133972
  C      1.247380   -0.302373    0.119239
  C      2.633471    0.151420    0.251728
  O      3.582851   -0.570239    0.148130
  Cl     2.789833    1.838685    0.579483
  O      0.200974    0.537955    0.258730
  H     -2.340356    0.915795    1.021309
  H     -2.418552    0.915674   -0.739939
  H     -2.950190   -0.520980    0.158653

----------------------------
CARTESIAN COORDINATES (A.U.)
----------------------------
  NO LB      ZA    FRAG     MASS         X           Y           Z
   0 C     6.0000    0    12.011   -4.213056    0.553060    0.255368
   1 C     6.0000    0    12.011   -1.623883   -0.482377    0.136100
   2 N     7.0000    0    14.007   -0.951039   -2.808430   -0.310541
   3 N     7.0000    0    14.007    1.599903   -2.867062   -0.253170
   4 C     6.0000    0    12.011    2.357207   -0.571402    0.225329
   5 C     6.0000    0    12.011    4.976539    0.286142    0.475697
   6 O     8.0000    0    15.999    6.770607   -1.077596    0.279925
   7 Cl   17.0000    0    35.453    5.272020    3.474611    1.095064
   8 O     8.0000    0    15.999    0.379786    1.016588    0.488929
   9 H     1.0000    0     1.008   -4.422632    1.730602    1.929994
  10 H     1.0000    0     1.008   -4.570401    1.730373   -1.398282
  11 H     1.0000    0     1.008   -5.575051   -0.984510    0.299811

--------------------------------
INTERNAL COORDINATES (ANGSTROEM)
--------------------------------
 C      0   0   0     0.000000000000     0.00000000     0.00000000
 C      1   0   0     1.476979897987     0.00000000     0.00000000
 N      2   1   0     1.302972278314   127.71278727     0.00000000
 N      3   2   1     1.350597776398   106.90264038   179.55379146
 C      4   3   2     1.304024745067   106.86520580     0.00000000
 C      5   4   3     1.464489563722   126.66223611   179.78837125
 O      6   5   4     1.197015723491   123.78120090   359.41161358
 Cl     6   5   4     1.725901386318   113.94472243   179.58462878
 O      2   1   3     1.337266859614   120.63089445   179.49203675
 H      1   2   3     1.088986840173   109.96978804   133.00042566
 H      1   2   3     1.090711079675   109.78233011   251.64536183
 H      1   2   3     1.087214955794   109.77054772    11.76595477

---------------------------
INTERNAL COORDINATES (A.U.)
---------------------------
 C      0   0   0     0.000000000000     0.00000000     0.00000000
 C      1   0   0     2.791087512502     0.00000000     0.00000000
 N      2   1   0     2.462260766106   127.71278727     0.00000000
 N      3   2   1     2.552259914474   106.90264038   179.55379146
 C      4   3   2     2.464249640032   106.86520580     0.00000000
 C      5   4   3     2.767484201421   126.66223611   179.78837125
 O      6   5   4     2.262031895396   123.78120090   359.41161358
 Cl     6   5   4     3.261480954296   113.94472243   179.58462878
 O      2   1   3     2.527068132639   120.63089445   179.49203675
 H      1   2   3     2.057886891370   109.96978804   133.00042566
 H      1   2   3     2.061145231819   109.78233011   251.64536183
 H      1   2   3     2.054538515154   109.77054772    11.76595477

---------------------
BASIS SET INFORMATION
---------------------
There are 5 groups of distinct atoms

 Group   1 Type C   : 11s6p1d contracted to 5s3p1d pattern {62111/411/1}
 Group   2 Type N   : 11s6p2d contracted to 5s3p2d pattern {62111/411/11}
 Group   3 Type O   : 11s6p2d contracted to 5s3p2d pattern {62111/411/11}
 Group   4 Type Cl  : 14s9p2d contracted to 5s4p2d pattern {73211/6111/11}
 Group   5 Type H   : 4s1p contracted to 2s1p pattern {31/1}

Atom   0C    basis set group =>   1
Atom   1C    basis set group =>   1
Atom   2N    basis set group =>   2
Atom   3N    basis set group =>   2
Atom   4C    basis set group =>   1
Atom   5C    basis set group =>   1
Atom   6O    basis set group =>   3
Atom   7Cl   basis set group =>   4
Atom   8O    basis set group =>   3
Atom   9H    basis set group =>   5
Atom  10H    basis set group =>   5
Atom  11H    basis set group =>   5
---------------------------------
AUXILIARY/J BASIS SET INFORMATION
---------------------------------
There are 5 groups of distinct atoms

 Group   1 Type C   : 8s3p3d contracted to 6s3p3d pattern {311111/111/111}
 Group   2 Type N   : 8s3p3d contracted to 6s3p3d pattern {311111/111/111}
 Group   3 Type O   : 8s3p3d contracted to 6s3p3d pattern {311111/111/111}
 Group   4 Type Cl  : 14s5p5d2f contracted to 8s4p3d1f pattern {71111111/2111/311/2}
 Group   5 Type H   : 5s2p1d contracted to 3s1p1d pattern {311/2/1}

Atom   0C    basis set group =>   1
Atom   1C    basis set group =>   1
Atom   2N    basis set group =>   2
Atom   3N    basis set group =>   2
Atom   4C    basis set group =>   1
Atom   5C    basis set group =>   1
Atom   6O    basis set group =>   3
Atom   7Cl   basis set group =>   4
Atom   8O    basis set group =>   3
Atom   9H    basis set group =>   5
Atom  10H    basis set group =>   5
Atom  11H    basis set group =>   5


           ************************************************************
           *        Program running with 4 parallel MPI-processes     *
           *              working on a common directory               *
           ************************************************************
------------------------------------------------------------------------------
                           ORCA GTO INTEGRAL CALCULATION
                           -- RI-GTO INTEGRALS CHOSEN --
------------------------------------------------------------------------------
------------------------------------------------------------------------------
                   ___                                                        
                  /   \      - P O W E R E D   B Y -                         
                 /     \                                                     
                 |  |  |   _    _      __       _____    __    __             
                 |  |  |  | |  | |    /  \     |  _  \  |  |  /  |          
                  \  \/   | |  | |   /    \    | | | |  |  | /  /          
                 / \  \   | |__| |  /  /\  \   | |_| |  |  |/  /          
                |  |  |   |  __  | /  /__\  \  |    /   |      \           
                |  |  |   | |  | | |   __   |  |    \   |  |\   \          
                \     /   | |  | | |  |  |  |  | |\  \  |  | \   \       
                 \___/    |_|  |_| |__|  |__|  |_| \__\ |__|  \__/        
                                                                              
                      - O R C A' S   B I G   F R I E N D -                    
                                      &                                       
                       - I N T E G R A L  F E E D E R -                       
                                                                              
 v1 FN, 2020, v2 2021                                                         
------------------------------------------------------------------------------


Reading SHARK input file /lustre/hpc/kemi/ree/PhD/git/ReactivityQM/calculations/RaltegravirCLI/reac01/conf02/gfn1/orca_calc.SHARKINP.tmp ... ok
----------------------
SHARK INTEGRAL PACKAGE
----------------------

Number of atoms                             ...     12
Number of basis functions                   ...    214
Number of shells                            ...     96
Maximum angular momentum                    ...      2
Integral batch strategy                     ... SHARK/LIBINT Hybrid
RI-J (if used) integral strategy            ... SPLIT-RIJ (Revised 2003 algorithm where possible)
Printlevel                                  ...      1
Contraction scheme used                     ... SEGMENTED contraction
Coulomb Range Separation                    ... NOT USED
Exchange Range Separation                   ... NOT USED
Finite Nucleus Model                        ... NOT USED
Auxiliary Coulomb fitting basis             ... AVAILABLE
   # of basis functions in Aux-J            ...    315
   # of shells in Aux-J                     ...    127
   Maximum angular momentum in Aux-J        ...      3
Auxiliary J/K fitting basis                 ... NOT available
Auxiliary Correlation fitting basis         ... NOT available
Auxiliary 'external' fitting basis          ... NOT available
Integral threshold                          ...     1.000000e-10
Primitive cut-off                           ...     1.000000e-11
Primitive pair pre-selection threshold      ...     1.000000e-11

Calculating pre-screening integrals         ... done (  0.2 sec) Dimension = 96
Organizing shell pair data                  ... done (  0.1 sec)
Shell pair information
Total number of shell pairs                 ...      4656
Shell pairs after pre-screening             ...      4058
Total number of primitive shell pairs       ...     17991
Primitive shell pairs kept                  ...     10866
          la=0 lb=0:   1069 shell pairs
          la=1 lb=0:   1390 shell pairs
          la=1 lb=1:    459 shell pairs
          la=2 lb=0:    638 shell pairs
          la=2 lb=1:    403 shell pairs
          la=2 lb=2:     99 shell pairs

Calculating one electron integrals          ... done (  0.1 sec)
Calculating RI/J V-Matrix + Cholesky decomp.... done (  0.0 sec)
Calculating Nuclear repulsion               ... done (  0.0 sec) ENN=    500.850427983473 Eh

SHARK setup successfully completed in   0.6 seconds

Maximum memory used throughout the entire GTOINT-calculation: 9.9 MB


           ************************************************************
           *        Program running with 4 parallel MPI-processes     *
           *              working on a common directory               *
           ************************************************************
-------------------------------------------------------------------------------
                                 ORCA SCF
-------------------------------------------------------------------------------

------------
SCF SETTINGS
------------
Hamiltonian:
 Density Functional     Method          .... DFT(GTOs)
  Functional kind                       .... Exchange
  Functional name                       .... Re-regularized SCAN exchange by Furness et al
  Functional family                     .... MGGA
  Functional refs                              
    [ 0] J. W. Furness, A. D. Kaplan, J. Ning, J. P. Perdew, and J. Sun, J. Phys. Chem. Lett. 11, 8208 (2020)
    [ 1] J. W. Furness, A. D. Kaplan, J. Ning, J. P. Perdew, and J. Sun, J. Phys. Chem. Lett. 11, 9248 (2020)
  Functional external parameters         .... 8
 Parameter  0 :         c1 parameter
 Parameter  1 :         c2 parameter
 Parameter  2 :          d parameter
 Parameter  3 :         k1 parameter
 Parameter  4 :       taur parameter
 Parameter  5 :     alphar parameter
 Parameter  6 :        eta parameter
 Parameter  7 :        dp2 parameter
  Functional kind                       .... Correlation
  Functional name                       .... Re-regularized SCAN correlation by Furness et al
  Functional family                     .... MGGA
  Functional refs                              
    [ 0] J. W. Furness, A. D. Kaplan, J. Ning, J. P. Perdew, and J. Sun, J. Phys. Chem. Lett. 11, 8208 (2020)
    [ 1] J. W. Furness, A. D. Kaplan, J. Ning, J. P. Perdew, and J. Sun, J. Phys. Chem. Lett. 11, 9248 (2020)
  Functional external parameters         .... 0
 Gradients option       PostSCFGGA      .... off
   Density functional embedding theory  .... OFF
 RI-approximation to the Coulomb term is turned on
   Number of AuxJ basis functions       .... 315


General Settings:
 Integral files         IntName         .... /lustre/hpc/kemi/ree/PhD/git/ReactivityQM/calculations/RaltegravirCLI/reac01/conf02/gfn1/orca_calc
 Hartree-Fock type      HFTyp           .... RHF
 Total Charge           Charge          ....    0
 Multiplicity           Mult            ....    1
 Number of Electrons    NEL             ....   74
 Basis Dimension        Dim             ....  214
 Nuclear Repulsion      ENuc            ....    500.8504279835 Eh

Convergence Acceleration:
 DIIS                   CNVDIIS         .... on
   Start iteration      DIISMaxIt       ....    12
   Startup error        DIISStart       ....  0.200000
   # of expansion vecs  DIISMaxEq       ....     5
   Bias factor          DIISBfac        ....   1.050
   Max. coefficient     DIISMaxC        ....  10.000
 Trust-Rad. Augm. Hess. CNVTRAH         .... auto
   Auto Start mean grad. ratio tolernc. ....  1.125000
   Auto Start start iteration           ....    20
   Auto Start num. interpolation iter.  ....    10
   Max. Number of Micro iterations      ....    16
   Max. Number of Macro iterations      .... Maxiter - #DIIS iter
   Number of Davidson start vectors     ....     2
   Converg. threshold I  (grad. norm)   ....   5.000e-05
   Converg. threshold II (energy diff.) ....   1.000e-06
   Grad. Scal. Fac. for Micro threshold ....   0.100
   Minimum threshold for Micro iter.    ....   0.010
   NR start threshold (gradient norm)   ....   0.001
   Initial trust radius                 ....   0.400
   Minimum AH scaling param. (alpha)    ....   1.000
   Maximum AH scaling param. (alpha)    .... 1000.000
   Orbital update algorithm             .... Taylor
   White noise on init. David. guess    .... on
   Maximum white noise                  ....   0.010
   Quad. conv. algorithm                .... NR
   COSX micro iterations for RIJONX calc.... off
 SOSCF                  CNVSOSCF        .... on
   Start iteration      SOSCFMaxIt      ....   150
   Startup grad/error   SOSCFStart      ....  0.003300
 Level Shifting         CNVShift        .... on
   Level shift para.    LevelShift      ....    0.2500
   Turn off err/grad.   ShiftErr        ....    0.0010
 Zerner damping         CNVZerner       .... off
 Static damping         CNVDamp         .... on
   Fraction old density DampFac         ....    0.7000
   Max. Damping (<1)    DampMax         ....    0.9800
   Min. Damping (>=0)   DampMin         ....    0.0000
   Turn off err/grad.   DampErr         ....    0.1000
 Fernandez-Rico         CNVRico         .... off

SCF Procedure:
 Maximum # iterations   MaxIter         ....   125
 SCF integral mode      SCFMode         .... Direct
   Integral package                     .... SHARK and LIBINT hybrid scheme
 Reset frequency        DirectResetFreq ....    20
 Integral Threshold     Thresh          ....  1.000e-10 Eh
 Primitive CutOff       TCut            ....  1.000e-11 Eh

Convergence Tolerance:
 Convergence Check Mode ConvCheckMode   .... Total+1el-Energy
 Convergence forced     ConvForced      .... 0
 Energy Change          TolE            ....  1.000e-06 Eh
 1-El. energy change                    ....  1.000e-03 Eh
 Orbital Gradient       TolG            ....  5.000e-05
 Orbital Rotation angle TolX            ....  5.000e-05
 DIIS Error             TolErr          ....  1.000e-06


Diagonalization of the overlap matrix:
Smallest eigenvalue                        ... 6.866e-05
Time for diagonalization                   ...    0.198 sec
Threshold for overlap eigenvalues          ... 1.000e-08
Number of eigenvalues below threshold      ... 0
Time for construction of square roots      ...    0.016 sec
Total time needed                          ...    0.215 sec

Time for model grid setup =    0.311 sec

------------------------------
INITIAL GUESS: MODEL POTENTIAL
------------------------------
Loading Hartree-Fock densities                     ... done
Calculating cut-offs                               ... done
Initializing the effective Hamiltonian             ... done
Setting up the integral package (SHARK)            ... done
Starting the Coulomb interaction                   ... done (   0.2 sec)
Reading the grid                                   ... done
Mapping shells                                     ... done
Starting the XC term evaluation                    ... done (   0.1 sec)
  promolecular density results
     # of electrons  =     73.998385845
     EX              =    -78.131196191
     EC              =     -2.607197815
     EX+EC           =    -80.738394006
Transforming the Hamiltonian                       ... done (   0.1 sec)
Diagonalizing the Hamiltonian                      ... done (   0.0 sec)
Back transforming the eigenvectors                 ... done (   0.0 sec)
Now organizing SCF variables                       ... done
                      ------------------
                      INITIAL GUESS DONE (   0.8 sec)
                      ------------------
-------------------
DFT GRID GENERATION
-------------------

General Integration Accuracy     IntAcc      ... 4.388
Radial Grid Type                 RadialGrid  ... OptM3 with GC (2021)
Angular Grid (max. ang.)         AngularGrid ... 4 (Lebedev-302)
Angular grid pruning method      GridPruning ... 4 (adaptive)
Weight generation scheme         WeightScheme... Becke
Basis function cutoff            BFCut       ... 1.0000e-10
Integration weight cutoff        WCut        ... 1.0000e-14
Angular grids for H and He will be reduced by one unit
Partially contracted basis set               ... off
Rotationally invariant grid construction     ... off

Total number of grid points                  ...    66098
Total number of batches                      ...     1039
Average number of points per batch           ...       63
Average number of grid points per atom       ...     5508
Time for grid setup =    0.665 sec


--------------------
CPCM SOLVATION MODEL
--------------------
CPCM parameters:
  Epsilon                                         ...      46.8260
  Refrac                                          ...       1.4170
  Rsolv                                           ...       1.3000
  Surface type                                    ... GAUSSIAN VDW
  Epsilon function type                           ...         CPCM
Solvent:                                     ... DMSO
SMD-CDS solvent descriptors:
  Soln                                       ...    1.4170
  Soln25                                     ...    1.4773
  Sola                                       ...    0.0000
  Solb                                       ...    0.8800
  Solg                                       ...   61.7800
  Solc                                       ...    0.0000
  Solh                                       ...    0.0000
Radii:
 Radius for C  used is    3.4960 Bohr (=   1.8500 Ang.)
 Radius for N  used is    3.5716 Bohr (=   1.8900 Ang.)
 Radius for O  used is    4.3350 Bohr (=   2.2940 Ang.)
 Radius for Cl used is    4.4975 Bohr (=   2.3800 Ang.)
 Radius for H  used is    2.2677 Bohr (=   1.2000 Ang.)
Calculating surface                               ...        done! (  0.0s)
GEPOL surface points                              ...          683
GEPOL Volume                                      ...    1195.8976
GEPOL Surface-area                                ...     646.4100
Calculating surface distance matrix               ...        done! (  0.0s)
Performing Cholesky decomposition & store         ...        done! (  0.1s)
Overall time for CPCM initialization              ...                 0.1s
--------------
SCF ITERATIONS
--------------
ITER       Energy         Delta-E        Max-DP      RMS-DP      [F,P]     Damp
               ***  Starting incremental Fock matrix formation  ***
  0   -874.0662475634   0.000000000000 0.11917570  0.00249559  0.2636384 0.7000
  1   -874.1778085109  -0.111560947520 0.06810970  0.00164808  0.0849878 0.7000
                               ***Turning on DIIS***
  2   -874.2071619392  -0.029353428306 0.06069935  0.00207831  0.0335408 0.0000
  3   -874.2740988216  -0.066936882430 0.06167295  0.00140341  0.0466207 0.0000
  4   -874.2813156657  -0.007216844028 0.01355716  0.00041202  0.0330332 0.0000
  5   -874.2839090540  -0.002593388373 0.00548892  0.00015843  0.0040812 0.0000
                      *** Initiating the SOSCF procedure ***
                           *** Shutting down DIIS ***
                      *** Re-Reading the Fockian *** 
                      *** Removing any level shift *** 
ITER      Energy       Delta-E        Grad      Rot      Max-DP    RMS-DP
  6   -874.28399412  -0.0000850652  0.000536  0.000536  0.001853  0.000063
               *** Restarting incremental Fock matrix formation ***
  7   -874.28401030  -0.0000161819  0.000179  0.000560  0.000816  0.000023
  8   -874.28400751   0.0000027881  0.000431  0.000657  0.000389  0.000016
  9   -874.28401127  -0.0000037566  0.000064  0.000364  0.000391  0.000009
 10   -874.28401119   0.0000000777  0.000072  0.000186  0.000148  0.000004
 11   -874.28401136  -0.0000001633  0.000017  0.000062  0.000105  0.000002
                 **** Energy Check signals convergence ****
              ***Rediagonalizing the Fockian in SOSCF/NRSCF***

               *****************************************************
               *                     SUCCESS                       *
               *           SCF CONVERGED AFTER  12 CYCLES          *
               *****************************************************


SMD CDS free energy correction energy :                 0.66888     Kcal/mol
Total Energy after SMD CDS correction =              -874.282945438 Eh

----------------
TOTAL SCF ENERGY
----------------

Total Energy       :         -874.28294544 Eh          -23790.44843 eV

Components:
Nuclear Repulsion  :          500.85042798 Eh           13628.83302 eV
Electronic Energy  :        -1375.13337342 Eh          -37419.28145 eV
One Electron Energy:        -2192.23563316 Eh          -59653.76432 eV
Two Electron Energy:          817.10225974 Eh           22234.48287 eV
CPCM Dielectric    :           -0.01704050 Eh              -0.46370 eV
SMD CDS (Gcds)     :            0.00106592 Eh               0.02901 eV

Virial components:
Potential Energy   :        -1746.05631537 Eh          -47512.60784 eV
Kinetic Energy     :          871.77336994 Eh           23722.15941 eV
Virial Ratio       :            2.00287870


DFT components:
N(Alpha)           :       37.000015269097 electrons
N(Beta)            :       37.000015269097 electrons
N(Total)           :       74.000030538194 electrons
E(X)               :      -79.283978765081 Eh       
E(C)               :       -2.576094274976 Eh       
E(XC)              :      -81.860073040057 Eh       
DFET-embed. en.    :        0.000000000000 Eh       
CPCM Solvation Model Properties:
Surface-charge          :           -0.01446368
Charge-correction       :            0.00005060 Eh               0.00138 eV
Free-energy (cav+disp)  :            0.00106592 Eh               0.02901 eV

---------------
SCF CONVERGENCE
---------------

  Last Energy change         ...   -3.3116e-09  Tolerance :   1.0000e-06
  Last MAX-Density change    ...    6.3350e-05  Tolerance :   1.0000e-05
  Last RMS-Density change    ...    1.3650e-06  Tolerance :   1.0000e-06
  Last Orbital Gradient      ...    2.7309e-05  Tolerance :   5.0000e-05
  Last Orbital Rotation      ...    5.0620e-05  Tolerance :   5.0000e-05

             **** THE GBW FILE WAS UPDATED (/lustre/hpc/kemi/ree/PhD/git/ReactivityQM/calculations/RaltegravirCLI/reac01/conf02/gfn1/orca_calc.gbw) ****
             **** DENSITY /lustre/hpc/kemi/ree/PhD/git/ReactivityQM/calculations/RaltegravirCLI/reac01/conf02/gfn1/orca_calc.scfp WAS UPDATED ****
             **** ENERGY FILE WAS UPDATED (/lustre/hpc/kemi/ree/PhD/git/ReactivityQM/calculations/RaltegravirCLI/reac01/conf02/gfn1/orca_calc.en.tmp) ****
             **** THE GBW FILE WAS UPDATED (/lustre/hpc/kemi/ree/PhD/git/ReactivityQM/calculations/RaltegravirCLI/reac01/conf02/gfn1/orca_calc.gbw) ****
             **** DENSITY /lustre/hpc/kemi/ree/PhD/git/ReactivityQM/calculations/RaltegravirCLI/reac01/conf02/gfn1/orca_calc.scfp WAS UPDATED ****
----------------
ORBITAL ENERGIES
----------------

  NO   OCC          E(Eh)            E(eV) 
   0   2.0000    -101.247975     -2755.0975 
   1   2.0000     -19.077118      -519.1148 
   2   2.0000     -18.992554      -516.8137 
   3   2.0000     -14.223105      -387.0304 
   4   2.0000     -14.209397      -386.6574 
   5   2.0000     -10.207742      -277.7668 
   6   2.0000     -10.161780      -276.5161 
   7   2.0000     -10.160226      -276.4738 
   8   2.0000     -10.049341      -273.4565 
   9   2.0000      -9.404877      -255.9197 
  10   2.0000      -7.151069      -194.5905 
  11   2.0000      -7.141792      -194.3380 
  12   2.0000      -7.139847      -194.2851 
  13   2.0000      -1.168861       -31.8063 
  14   2.0000      -1.070513       -29.1301 
  15   2.0000      -0.990953       -26.9652 
  16   2.0000      -0.861590       -23.4451 
  17   2.0000      -0.834335       -22.7034 
  18   2.0000      -0.723979       -19.7005 
  19   2.0000      -0.684480       -18.6257 
  20   2.0000      -0.614922       -16.7329 
  21   2.0000      -0.583950       -15.8901 
  22   2.0000      -0.509879       -13.8745 
  23   2.0000      -0.507297       -13.8042 
  24   2.0000      -0.463689       -12.6176 
  25   2.0000      -0.453963       -12.3530 
  26   2.0000      -0.434535       -11.8243 
  27   2.0000      -0.412546       -11.2259 
  28   2.0000      -0.393088       -10.6965 
  29   2.0000      -0.386112       -10.5067 
  30   2.0000      -0.357299        -9.7226 
  31   2.0000      -0.336988        -9.1699 
  32   2.0000      -0.322485        -8.7753 
  33   2.0000      -0.316211        -8.6045 
  34   2.0000      -0.289208        -7.8698 
  35   2.0000      -0.276144        -7.5142 
  36   2.0000      -0.273172        -7.4334 
  37   0.0000      -0.129035        -3.5112 
  38   0.0000      -0.034056        -0.9267 
  39   0.0000      -0.001127        -0.0307 
  40   0.0000       0.017534         0.4771 
  41   0.0000       0.060473         1.6455 
  42   0.0000       0.090514         2.4630 
  43   0.0000       0.118647         3.2285 
  44   0.0000       0.131684         3.5833 
  45   0.0000       0.145567         3.9611 
  46   0.0000       0.154578         4.2063 
  47   0.0000       0.172242         4.6869 
  48   0.0000       0.179986         4.8977 
  49   0.0000       0.187092         5.0910 
  50   0.0000       0.198119         5.3911 
  51   0.0000       0.218725         5.9518 
  52   0.0000       0.220368         5.9965 
  53   0.0000       0.231826         6.3083 
  54   0.0000       0.243282         6.6200 
  55   0.0000       0.253490         6.8978 
  56   0.0000       0.257860         7.0167 
  57   0.0000       0.280021         7.6198 
  58   0.0000       0.285399         7.7661 
  59   0.0000       0.304887         8.2964 
  60   0.0000       0.308187         8.3862 
  61   0.0000       0.326962         8.8971 
  62   0.0000       0.333926         9.0866 
  63   0.0000       0.337413         9.1815 
  64   0.0000       0.350424         9.5355 
  65   0.0000       0.355321         9.6688 
  66   0.0000       0.383756        10.4425 
  67   0.0000       0.393576        10.7098 
  68   0.0000       0.398648        10.8478 
  69   0.0000       0.416472        11.3328 
  70   0.0000       0.422734        11.5032 
  71   0.0000       0.435025        11.8376 
  72   0.0000       0.444901        12.1064 
  73   0.0000       0.451354        12.2820 
  74   0.0000       0.467012        12.7080 
  75   0.0000       0.478461        13.0196 
  76   0.0000       0.482663        13.1339 
  77   0.0000       0.519235        14.1291 
  78   0.0000       0.525754        14.3065 
  79   0.0000       0.532005        14.4766 
  80   0.0000       0.552248        15.0274 
  81   0.0000       0.556750        15.1500 
  82   0.0000       0.584378        15.9017 
  83   0.0000       0.603363        16.4183 
  84   0.0000       0.612441        16.6654 
  85   0.0000       0.626108        17.0373 
  86   0.0000       0.633685        17.2434 
  87   0.0000       0.656468        17.8634 
  88   0.0000       0.676554        18.4100 
  89   0.0000       0.678941        18.4749 
  90   0.0000       0.708582        19.2815 
  91   0.0000       0.735474        20.0133 
  92   0.0000       0.758864        20.6497 
  93   0.0000       0.765717        20.8362 
  94   0.0000       0.794174        21.6106 
  95   0.0000       0.797378        21.6978 
  96   0.0000       0.807385        21.9701 
  97   0.0000       0.824935        22.4476 
  98   0.0000       0.828183        22.5360 
  99   0.0000       0.854346        23.2479 
 100   0.0000       0.862108        23.4592 
 101   0.0000       0.872843        23.7513 
 102   0.0000       0.916541        24.9403 
 103   0.0000       0.926568        25.2132 
 104   0.0000       0.948535        25.8109 
 105   0.0000       0.966115        26.2893 
 106   0.0000       0.983305        26.7571 
 107   0.0000       1.024286        27.8722 
 108   0.0000       1.039365        28.2826 
 109   0.0000       1.057603        28.7788 
 110   0.0000       1.071544        29.1582 
 111   0.0000       1.132650        30.8210 
 112   0.0000       1.148800        31.2604 
 113   0.0000       1.181046        32.1379 
 114   0.0000       1.195280        32.5252 
 115   0.0000       1.237483        33.6736 
 116   0.0000       1.282351        34.8946 
 117   0.0000       1.320985        35.9458 
 118   0.0000       1.322695        35.9923 
 119   0.0000       1.344091        36.5746 
 120   0.0000       1.366184        37.1758 
 121   0.0000       1.387921        37.7673 
 122   0.0000       1.472649        40.0728 
 123   0.0000       1.509634        41.0792 
 124   0.0000       1.547749        42.1164 
 125   0.0000       1.552845        42.2551 
 126   0.0000       1.583263        43.0828 
 127   0.0000       1.605490        43.6876 
 128   0.0000       1.680496        45.7286 
 129   0.0000       1.707632        46.4670 
 130   0.0000       1.718555        46.7643 
 131   0.0000       1.733227        47.1635 
 132   0.0000       1.738484        47.3066 
 133   0.0000       1.769940        48.1625 
 134   0.0000       1.783447        48.5301 
 135   0.0000       1.799540        48.9680 
 136   0.0000       1.809513        49.2393 
 137   0.0000       1.814069        49.3633 
 138   0.0000       1.859257        50.5930 
 139   0.0000       1.864773        50.7430 
 140   0.0000       1.891292        51.4647 
 141   0.0000       1.912642        52.0456 
 142   0.0000       1.926046        52.4104 
 143   0.0000       1.999145        54.3995 
 144   0.0000       2.045926        55.6725 
 145   0.0000       2.047170        55.7063 
 146   0.0000       2.066326        56.2276 
 147   0.0000       2.144926        58.3664 
 148   0.0000       2.151884        58.5557 
 149   0.0000       2.167472        58.9799 
 150   0.0000       2.177379        59.2495 
 151   0.0000       2.237747        60.8922 
 152   0.0000       2.255810        61.3837 
 153   0.0000       2.270156        61.7741 
 154   0.0000       2.279649        62.0324 
 155   0.0000       2.330338        63.4117 
 156   0.0000       2.351526        63.9883 
 157   0.0000       2.366277        64.3897 
 158   0.0000       2.376361        64.6641 
 159   0.0000       2.391491        65.0758 
 160   0.0000       2.426918        66.0398 
 161   0.0000       2.466168        67.1078 
 162   0.0000       2.473559        67.3090 
 163   0.0000       2.518891        68.5425 
 164   0.0000       2.551564        69.4316 
 165   0.0000       2.583585        70.3029 
 166   0.0000       2.640577        71.8538 
 167   0.0000       2.654403        72.2300 
 168   0.0000       2.657218        72.3066 
 169   0.0000       2.684467        73.0481 
 170   0.0000       2.697290        73.3970 
 171   0.0000       2.731744        74.3345 
 172   0.0000       2.744892        74.6923 
 173   0.0000       2.754248        74.9469 
 174   0.0000       2.764343        75.2216 
 175   0.0000       2.776683        75.5574 
 176   0.0000       2.811624        76.5082 
 177   0.0000       2.847457        77.4832 
 178   0.0000       2.858605        77.7866 
 179   0.0000       2.865714        77.9801 
 180   0.0000       2.868720        78.0618 
 181   0.0000       2.913846        79.2898 
 182   0.0000       2.950468        80.2863 
 183   0.0000       2.971248        80.8518 
 184   0.0000       3.006931        81.8227 
 185   0.0000       3.022859        82.2562 
 186   0.0000       3.026686        82.3603 
 187   0.0000       3.126474        85.0757 
 188   0.0000       3.132412        85.2373 
 189   0.0000       3.140723        85.4634 
 190   0.0000       3.246857        88.3515 
 191   0.0000       3.259826        88.7044 
 192   0.0000       3.313910        90.1761 
 193   0.0000       3.356089        91.3238 
 194   0.0000       3.423634        93.1618 
 195   0.0000       3.509324        95.4936 
 196   0.0000       3.528086        96.0041 
 197   0.0000       3.573873        97.2500 
 198   0.0000       3.628244        98.7295 
 199   0.0000       3.906741       106.3078 
 200   0.0000       3.942837       107.2900 
 201   0.0000       4.116593       112.0182 
 202   0.0000       4.198621       114.2503 
 203   0.0000       4.401059       119.7589 
 204   0.0000       4.578528       124.5881 
 205   0.0000      21.886506       595.5621 
 206   0.0000      21.989080       598.3533 
 207   0.0000      22.074217       600.6700 
 208   0.0000      22.211858       604.4154 
 209   0.0000      25.264955       687.4944 
 210   0.0000      31.895829       867.9296 
 211   0.0000      31.970441       869.9599 
 212   0.0000      43.584668      1185.9991 
 213   0.0000      43.695030      1189.0022 

                    ********************************
                    * MULLIKEN POPULATION ANALYSIS *
                    ********************************

-----------------------
MULLIKEN ATOMIC CHARGES
-----------------------
   0 C :   -0.631478
   1 C :    0.387654
   2 N :   -0.227041
   3 N :   -0.172008
   4 C :    0.333525
   5 C :    0.075729
   6 O :   -0.287302
   7 Cl:   -0.068115
   8 O :   -0.033595
   9 H :    0.202859
  10 H :    0.211553
  11 H :    0.208221
Sum of atomic charges:   -0.0000000

--------------------------------
MULLIKEN REDUCED ORBITAL CHARGES
--------------------------------
  0 C s       :     3.462596  s :     3.462596
      pz      :     1.111632  p :     3.142234
      px      :     0.914008
      py      :     1.116594
      dz2     :     0.005550  d :     0.026648
      dxz     :     0.002540
      dyz     :     0.006108
      dx2y2   :     0.005458
      dxy     :     0.006992
  1 C s       :     3.105100  s :     3.105100
      pz      :     0.836850  p :     2.416569
      px      :     0.703798
      py      :     0.875921
      dz2     :     0.006380  d :     0.090677
      dxz     :     0.012359
      dyz     :     0.014176
      dx2y2   :     0.025474
      dxy     :     0.032289
  2 N s       :     3.477450  s :     3.477450
      pz      :     1.212066  p :     3.682702
      px      :     1.128446
      py      :     1.342190
      dz2     :     0.005977  d :     0.066890
      dxz     :     0.022823
      dyz     :     0.013992
      dx2y2   :     0.023170
      dxy     :     0.000927
  3 N s       :     3.467347  s :     3.467347
      pz      :     1.134501  p :     3.632301
      px      :     1.137153
      py      :     1.360648
      dz2     :     0.006055  d :     0.072359
      dxz     :     0.025878
      dyz     :     0.015249
      dx2y2   :     0.023517
      dxy     :     0.001660
  4 C s       :     3.072443  s :     3.072443
      pz      :     0.965467  p :     2.508868
      px      :     0.637329
      py      :     0.906071
      dz2     :     0.006599  d :     0.085164
      dxz     :     0.009508
      dyz     :     0.013056
      dx2y2   :     0.025162
      dxy     :     0.030839
  5 C s       :     3.176355  s :     3.176355
      pz      :     0.822325  p :     2.642259
      px      :     0.982271
      py      :     0.837663
      dz2     :     0.005654  d :     0.105657
      dxz     :     0.015432
      dyz     :     0.012964
      dx2y2   :     0.046885
      dxy     :     0.024722
  6 O s       :     3.835756  s :     3.835756
      pz      :     1.387106  p :     4.426885
      px      :     1.470657
      py      :     1.569122
      dz2     :     0.005016  d :     0.024661
      dxz     :     0.006676
      dyz     :     0.003558
      dx2y2   :    -0.003912
      dxy     :     0.013324
  7 Cls       :     5.941789  s :     5.941789
      pz      :     3.836158  p :    11.080072
      px      :     3.945486
      py      :     3.298428
      dz2     :     0.006222  d :     0.046254
      dxz     :     0.001324
      dyz     :     0.013273
      dx2y2   :     0.016585
      dxy     :     0.008850
  8 O s       :     3.707087  s :     3.707087
      pz      :     1.652353  p :     4.270710
      px      :     1.089815
      py      :     1.528542
      dz2     :     0.004420  d :     0.055799
      dxz     :     0.013762
      dyz     :     0.011492
      dx2y2   :     0.008369
      dxy     :     0.017755
  9 H s       :     0.778747  s :     0.778747
      pz      :     0.008838  p :     0.018394
      px      :     0.003353
      py      :     0.006203
 10 H s       :     0.770038  s :     0.770038
      pz      :     0.008588  p :     0.018409
      px      :     0.003600
      py      :     0.006221
 11 H s       :     0.773547  s :     0.773547
      pz      :     0.003513  p :     0.018232
      px      :     0.007011
      py      :     0.007707


                     *******************************
                     * LOEWDIN POPULATION ANALYSIS *
                     *******************************

----------------------
LOEWDIN ATOMIC CHARGES
----------------------
   0 C :   -0.312749
   1 C :    0.395063
   2 N :   -0.337802
   3 N :   -0.309890
   4 C :    0.359035
   5 C :    0.163681
   6 O :   -0.387206
   7 Cl:    0.235166
   8 O :   -0.391347
   9 H :    0.194011
  10 H :    0.198178
  11 H :    0.193862

-------------------------------
LOEWDIN REDUCED ORBITAL CHARGES
-------------------------------
  0 C s       :     2.945548  s :     2.945548
      pz      :     1.156946  p :     3.308793
      px      :     1.012268
      py      :     1.139578
      dz2     :     0.012056  d :     0.058408
      dxz     :     0.004615
      dyz     :     0.014694
      dx2y2   :     0.010863
      dxy     :     0.016180
  1 C s       :     2.736066  s :     2.736066
      pz      :     0.778581  p :     2.679715
      px      :     0.947611
      py      :     0.953523
      dz2     :     0.015173  d :     0.189156
      dxz     :     0.020462
      dyz     :     0.027426
      dx2y2   :     0.054366
      dxy     :     0.071729
  2 N s       :     3.179810  s :     3.179810
      pz      :     1.133501  p :     3.639211
      px      :     1.175322
      py      :     1.330388
      dz2     :     0.055418  d :     0.518781
      dxz     :     0.095430
      dyz     :     0.051132
      dx2y2   :     0.145456
      dxy     :     0.171345
  3 N s       :     3.179525  s :     3.179525
      pz      :     1.068078  p :     3.587850
      px      :     1.177265
      py      :     1.342507
      dz2     :     0.055777  d :     0.542515
      dxz     :     0.114851
      dyz     :     0.053716
      dx2y2   :     0.151770
      dxy     :     0.166402
  4 C s       :     2.727387  s :     2.727387
      pz      :     0.881626  p :     2.733408
      px      :     0.901071
      py      :     0.950711
      dz2     :     0.015632  d :     0.180171
      dxz     :     0.015700
      dyz     :     0.025607
      dx2y2   :     0.053089
      dxy     :     0.070143
  5 C s       :     2.826100  s :     2.826100
      pz      :     0.787665  p :     2.785405
      px      :     1.003590
      py      :     0.994150
      dz2     :     0.014344  d :     0.224814
      dxz     :     0.026959
      dyz     :     0.024254
      dx2y2   :     0.102271
      dxy     :     0.056986
  6 O s       :     3.556192  s :     3.556192
      pz      :     1.383904  p :     4.602623
      px      :     1.588429
      py      :     1.630290
      dz2     :     0.029207  d :     0.228391
      dxz     :     0.032881
      dyz     :     0.025192
      dx2y2   :     0.075722
      dxy     :     0.065391
  7 Cls       :     5.654092  s :     5.654092
      pz      :     3.805198  p :    11.010382
      px      :     3.875482
      py      :     3.329702
      dz2     :     0.016583  d :     0.100360
      dxz     :     0.001633
      dyz     :     0.022587
      dx2y2   :     0.041812
      dxy     :     0.017746
  8 O s       :     3.435548  s :     3.435548
      pz      :     1.599304  p :     4.493349
      px      :     1.308127
      py      :     1.585918
      dz2     :     0.053471  d :     0.462450
      dxz     :     0.103995
      dyz     :     0.044183
      dx2y2   :     0.121813
      dxy     :     0.138988
  9 H s       :     0.761247  s :     0.761247
      pz      :     0.022655  p :     0.044742
      px      :     0.006969
      py      :     0.015118
 10 H s       :     0.756901  s :     0.756901
      pz      :     0.022120  p :     0.044921
      px      :     0.007678
      py      :     0.015123
 11 H s       :     0.761664  s :     0.761664
      pz      :     0.007910  p :     0.044474
      px      :     0.016474
      py      :     0.020090


                      *****************************
                      * MAYER POPULATION ANALYSIS *
                      *****************************

  NA   - Mulliken gross atomic population
  ZA   - Total nuclear charge
  QA   - Mulliken gross atomic charge
  VA   - Mayer's total valence
  BVA  - Mayer's bonded valence
  FA   - Mayer's free valence

  ATOM       NA         ZA         QA         VA         BVA        FA
  0 C      6.6315     6.0000    -0.6315     3.8072     3.8072     0.0000
  1 C      5.6123     6.0000     0.3877     3.6228     3.6228    -0.0000
  2 N      7.2270     7.0000    -0.2270     3.0743     3.0743     0.0000
  3 N      7.1720     7.0000    -0.1720     3.1198     3.1198     0.0000
  4 C      5.6665     6.0000     0.3335     3.7033     3.7033    -0.0000
  5 C      5.9243     6.0000     0.0757     4.0805     4.0805    -0.0000
  6 O      8.2873     8.0000    -0.2873     2.1201     2.1201    -0.0000
  7 Cl    17.0681    17.0000    -0.0681     1.2409     1.2409    -0.0000
  8 O      8.0336     8.0000    -0.0336     2.3310     2.3310     0.0000
  9 H      0.7971     1.0000     0.2029     0.9450     0.9450     0.0000
 10 H      0.7884     1.0000     0.2116     0.9405     0.9405     0.0000
 11 H      0.7918     1.0000     0.2082     0.9464     0.9464     0.0000

  Mayer bond orders larger than 0.100000
B(  0-C ,  1-C ) :   0.8554 B(  0-C ,  9-H ) :   0.9483 B(  0-C , 10-H ) :   0.9267 
B(  0-C , 11-H ) :   0.9801 B(  1-C ,  2-N ) :   1.5682 B(  1-C ,  8-O ) :   1.1146 
B(  2-N ,  3-N ) :   1.2964 B(  3-N ,  4-C ) :   1.5988 B(  4-C ,  5-C ) :   0.9250 
B(  4-C ,  8-O ) :   1.0911 B(  5-C ,  6-O ) :   1.9671 B(  5-C ,  7-Cl) :   1.0808 


-------
TIMINGS
-------

Total SCF time: 0 days 0 hours 0 min 19 sec 

Total time                  ....      19.496 sec
Sum of individual times     ....      18.589 sec  ( 95.3%)

Fock matrix formation       ....      16.733 sec  ( 85.8%)
  Split-RI-J                ....       1.959 sec  ( 11.7% of F)
  XC integration            ....      10.236 sec  ( 61.2% of F)
    Basis function eval.    ....       1.618 sec  ( 15.8% of XC)
    Density eval.           ....       3.251 sec  ( 31.8% of XC)
    XC-Functional eval.     ....       1.650 sec  ( 16.1% of XC)
    XC-Potential eval.      ....       3.105 sec  ( 30.3% of XC)
Diagonalization             ....       0.198 sec  (  1.0%)
Density matrix formation    ....       0.007 sec  (  0.0%)
Population analysis         ....       0.024 sec  (  0.1%)
Initial guess               ....       0.496 sec  (  2.5%)
Orbital Transformation      ....       0.000 sec  (  0.0%)
Orbital Orthonormalization  ....       0.000 sec  (  0.0%)
DIIS solution               ....       0.097 sec  (  0.5%)
SOSCF solution              ....       0.060 sec  (  0.3%)
Grid generation             ....       0.976 sec  (  5.0%)

Maximum memory used throughout the entire SCF-calculation: 23.5 MB


-------------------------------------------------------------------------------
                          DFT DISPERSION CORRECTION                            
                                                                               
                                 DFTD4 V2.5                                    
-------------------------------------------------------------------------------
The R2SCAN3C composite method is recognized
Using three-body term ABC
Active option DFTDOPT                   ...         5   

Starting D4
-------------------------   ----------------
Dispersion correction           -0.003870515
-------------------------   ----------------

------------------   -----------------
gCP correction             0.013713097
------------------   -----------------

-------------------------   --------------------
FINAL SINGLE POINT ENERGY      -874.273102855699
-------------------------   --------------------


                            ***************************************
                            *     ORCA property calculations      *
                            ***************************************

                                    ---------------------
                                    Active property flags
                                    ---------------------
   (+) Dipole Moment


------------------------------------------------------------------------------
                       ORCA ELECTRIC PROPERTIES CALCULATION
------------------------------------------------------------------------------

Dipole Moment Calculation                       ... on
Quadrupole Moment Calculation                   ... off
Polarizability Calculation                      ... off
GBWName                                         ... /lustre/hpc/kemi/ree/PhD/git/ReactivityQM/calculations/RaltegravirCLI/reac01/conf02/gfn1/orca_calc.gbw
Electron density                                ... /lustre/hpc/kemi/ree/PhD/git/ReactivityQM/calculations/RaltegravirCLI/reac01/conf02/gfn1/orca_calc.scfp
The origin for moment calculation is the CENTER OF MASS  = ( 2.140748,  0.290936  0.390277)

-------------
DIPOLE MOMENT
-------------
                                X             Y             Z
Electronic contribution:     10.59928       3.24374       0.94514
Nuclear contribution   :    -12.63306      -1.48837      -0.67305
                        -----------------------------------------
Total Dipole Moment    :     -2.03378       1.75538       0.27209
                        -----------------------------------------
Magnitude (a.u.)       :      2.70030
Magnitude (Debye)      :      6.86363



--------------------
Rotational spectrum 
--------------------
 
Rotational constants in cm-1:     0.102041     0.031235     0.024022 
Rotational constants in MHz :  3059.108330   936.401621   720.148178 

 Dipole components along the rotational axes: 
x,y,z [a.u.] :    -1.348499    -2.339475    -0.007084 
x,y,z [Debye]:    -3.427612    -5.946473    -0.018007 

 

Timings for individual modules:

Sum of individual times         ...       22.826 sec (=   0.380 min)
GTO integral calculation        ...        2.120 sec (=   0.035 min)   9.3 %
SCF iterations                  ...       20.706 sec (=   0.345 min)  90.7 %
                             ****ORCA TERMINATED NORMALLY****
TOTAL RUN TIME: 0 days 0 hours 0 minutes 27 seconds 211 msec
