      -----------------------------------------------------------      
     |                   =====================                   |     
     |                           x T B                           |     
     |                   =====================                   |     
     |                         S. Grimme                         |     
     |          Mulliken Center for Theoretical Chemistry        |     
     |                    University of Bonn                     |     
      -----------------------------------------------------------      

   * xtb version 6.5.1 (579679a) compiled by 'ehlert@majestix' on 2022-07-11

   xtb is free software: you can redistribute it and/or modify it under
   the terms of the GNU Lesser General Public License as published by
   the Free Software Foundation, either version 3 of the License, or
   (at your option) any later version.
   
   xtb is distributed in the hope that it will be useful,
   but WITHOUT ANY WARRANTY; without even the implied warranty of
   MERCHANTABILITY or FITNESS FOR A PARTICULAR PURPOSE.  See the
   GNU Lesser General Public License for more details.
   
   Cite this work as:
   * C. Bannwarth, E. Caldeweyher, S. Ehlert, A. Hansen, P. Pracht,
     J. Seibert, S. Spicher, S. Grimme, WIREs Comput. Mol. Sci., 2020, 11,
     e01493. DOI: 10.1002/wcms.1493
   
   for GFN2-xTB:
   * C. Bannwarth, S. Ehlert and S. Grimme., J. Chem. Theory Comput., 2019,
     15, 1652-1671. DOI: 10.1021/acs.jctc.8b01176
   for GFN1-xTB:
   * S. Grimme, C. Bannwarth, P. Shushkov, J. Chem. Theory Comput., 2017,
     13, 1989-2009. DOI: 10.1021/acs.jctc.7b00118
   for GFN0-xTB:
   * P. Pracht, E. Caldeweyher, S. Ehlert, S. Grimme, ChemRxiv, 2019, preprint.
     DOI: 10.26434/chemrxiv.8326202.v1
   for GFN-FF:
   * S. Spicher and S. Grimme, Angew. Chem. Int. Ed., 2020, 59, 15665-15673.
     DOI: 10.1002/anie.202004239
   
   for ALPB and GBSA implicit solvation:
   * S. Ehlert, M. Stahn, S. Spicher, S. Grimme, J. Chem. Theory Comput.,
     2021, 17, 4250-4261. DOI: 10.1021/acs.jctc.1c00471
   
   for DFT-D4:
   * E. Caldeweyher, C. Bannwarth and S. Grimme, J. Chem. Phys., 2017,
     147, 034112. DOI: 10.1063/1.4993215
   * E. Caldeweyher, S. Ehlert, A. Hansen, H. Neugebauer, S. Spicher,
     C. Bannwarth and S. Grimme, J. Chem. Phys., 2019, 150, 154122.
     DOI: 10.1063/1.5090222
   * E. Caldeweyher, J.-M. Mewes, S. Ehlert and S. Grimme, Phys. Chem. Chem. Phys.
     2020, 22, 8499-8512. DOI: 10.1039/D0CP00502A
   
   for sTDA-xTB:
   * S. Grimme and C. Bannwarth, J. Chem. Phys., 2016, 145, 054103.
     DOI: 10.1063/1.4959605
   
   in the mass-spec context:
   * V. Asgeirsson, C. Bauer and S. Grimme, Chem. Sci., 2017, 8, 4879.
     DOI: 10.1039/c7sc00601b
   * J. Koopman and S. Grimme, ACS Omega 2019, 4, 12, 15120-15133.
     DOI: 10.1021/acsomega.9b02011
   
   for metadynamics refer to:
   * S. Grimme, J. Chem. Theory Comput., 2019, 155, 2847-2862
     DOI: 10.1021/acs.jctc.9b00143
   
   for SPH calculations refer to:
   * S. Spicher and S. Grimme, J. Chem. Theory Comput., 2021, 17, 1701-1714
     DOI: 10.1021/acs.jctc.0c01306
   
   with help from (in alphabetical order)
   P. Atkinson, C. Bannwarth, F. Bohle, G. Brandenburg, E. Caldeweyher
   M. Checinski, S. Dohm, S. Ehlert, S. Ehrlich, I. Gerasimov, C. Hölzer
   A. Katbashev, J. Koopman, C. Lavigne, S. Lehtola, F. März, M. Müller,
   F. Musil, H. Neugebauer, J. Pisarek, C. Plett, P. Pracht, F. Pultar,
   J. Seibert, P. Shushkov, S. Spicher, M. Stahn, M. Steiner, T. Strunk,
   J. Stückrath, T. Rose, and J. Unsleber
   
 * started run on 2023/06/20 at 15:23:38.728     

           -------------------------------------------------
          |                Calculation Setup                |
           -------------------------------------------------

          program call               : /lustre/hpc/kemi/ree/PhD/git/ReactivityQM/dep/xtb-6.5.1/bin/xtb --gfn 1 /lustre/hpc/kemi/ree/PhD/git/ReactivityQM/calculations/R02/reac01prodN05/conf19/R02_reac01prodN05_conf19_gfn1.xyz --opt --vfukui --chrg 1 --uhf 0 --alpb DMSO
          hostname                   : node315
          coordinate file            : /lustre/hpc/kemi/ree/PhD/git/ReactivityQM/calculations/R02/reac01prodN05/conf19/R02_reac01prodN05_conf19_gfn1.xyz
          omp threads                :                     1

   ID    Z sym.   atoms
    1    6 C      1, 3, 5, 6, 8, 11-14, 16, 18, 21, 22, 25
    2    8 O      2, 4, 7, 9, 17, 23
    3    7 N      10, 15, 19, 20, 24
    4    1 H      26-43

           -------------------------------------------------
          |                 G F N 1 - x T B                 |
           -------------------------------------------------

        Reference                      10.1021/acs.jctc.7b00118
      * Hamiltonian:
        H0-scaling (s, p, d)           1.850000    2.250000    2.000000
        zeta-weighting                 0.000000
      * Dispersion:
        s8                             2.400000
        a1                             0.630000
        a2                             5.000000
        s9                             0.000000
      * Repulsion:
        kExp                           1.500000
        rExp                           1.000000
      * Coulomb:
        alpha                          2.000000
        third order                    atomic
        anisotropic                    false
      * Halogen bond correction:
        rad-scale                      1.300000
        damping                        0.440000

      * Solvation model:               ALPB
        Solvent                        DMSO
        Parameter file                 internal GFN1-xTB/ALPB
        Dielectric constant                4.6680E+01
        Reference state                gsolv [1 M gas/solution]
        Free energy shift                  7.6243E-03 Eh       4.7843E+00 kcal/mol
        Temperature                        2.9815E+02 K
        Density                            1.1000E+00 kg/L
        Solvent mass                       7.8130E+01 g/mol
        Interaction kernel             P16
        Born radius scaling (c1)           1.7672E+00
        Born radii integrator          GBOBC
        Born offset                        0.0000E+00 a0       0.0000E+00 AA
        H-bond correction              true
        Ion screening                  false
        Surface tension                    1.0000E-05 Eh       1.5569E+01 dyn/cm
        Grid points                               230 per atom

          ...................................................
          :                      SETUP                      :
          :.................................................:
          :  # basis functions                 136          :
          :  # atomic orbitals                 136          :
          :  # shells                           86          :
          :  # electrons                       134          :
          :  # halogen bonds                     0          :
          :  max. iterations                   250          :
          :  Hamiltonian                  GFN1-xTB          :
          :  restarted?                      false          :
          :  GBSA solvation                   true          :
          :  PC potential                    false          :
          :  electronic temp.          300.0000000     K    :
          :  accuracy                    1.0000000          :
          :  -> integral cutoff          0.2500000E+02      :
          :  -> integral neglect         0.1000000E-07      :
          :  -> SCF convergence          0.1000000E-05 Eh   :
          :  -> wf. convergence          0.2000000E-04 e    :
          :  Broyden damping             0.4000000          :
          ...................................................

 iter      E             dE          RMSdq      gap      omega  full diag
   1    -83.4953503 -0.834954E+02  0.837E+00    2.43       0.0  T
   2    -83.8823524 -0.387002E+00  0.500E+00    1.85       1.0  T
   3    -83.8624320  0.199204E-01  0.172E+00    1.75       1.0  T
   4    -83.8994504 -0.370184E-01  0.316E-01    1.70       1.0  T
   5    -83.9041002 -0.464980E-02  0.606E-02    1.71       1.0  T
   6    -83.9042177 -0.117484E-03  0.214E-02    1.73       1.0  T
   7    -83.9042284 -0.107302E-04  0.550E-03    1.74       2.8  T
   8    -83.9042289 -0.470370E-06  0.158E-03    1.74       9.7  T
   9    -83.9042289 -0.331866E-07  0.541E-04    1.74      28.2  T
  10    -83.9042289 -0.529491E-08  0.155E-04    1.74      98.3  T
  11    -83.9042289 -0.540595E-09  0.383E-05    1.74     398.2  T

   *** convergence criteria satisfied after 11 iterations ***

         #    Occupation            Energy/Eh            Energy/eV
      -------------------------------------------------------------
         1        2.0000           -0.8941023             -24.3298
       ...           ...                  ...                  ...
        61        2.0000           -0.5028648             -13.6836
        62        2.0000           -0.4941296             -13.4460
        63        2.0000           -0.4891177             -13.3096
        64        2.0000           -0.4829156             -13.1408
        65        2.0000           -0.4730558             -12.8725
        66        2.0000           -0.4561120             -12.4114
        67        2.0000           -0.4537749             -12.3478 (HOMO)
        68                         -0.3898158             -10.6074 (LUMO)
        69                         -0.3708989             -10.0927
        70                         -0.3309278              -9.0050
        71                         -0.2887911              -7.8584
        72                         -0.2667705              -7.2592
       ...                                ...                  ...
       136                          0.6785349              18.4639
      -------------------------------------------------------------
                  HL-Gap            0.0639590 Eh            1.7404 eV
             Fermi-level           -0.4217953 Eh          -11.4776 eV

 SCC (total)                   0 d,  0 h,  0 min,  0.171 sec
 SCC setup                      ...        0 min,  0.002 sec (  1.372%)
 Dispersion                     ...        0 min,  0.000 sec (  0.247%)
 classical contributions        ...        0 min,  0.000 sec (  0.080%)
 integral evaluation            ...        0 min,  0.037 sec ( 21.659%)
 iterations                     ...        0 min,  0.043 sec ( 25.236%)
 molecular gradient             ...        0 min,  0.087 sec ( 50.727%)
 printout                       ...        0 min,  0.001 sec (  0.655%)

         :::::::::::::::::::::::::::::::::::::::::::::::::::::
         ::                     SUMMARY                     ::
         :::::::::::::::::::::::::::::::::::::::::::::::::::::
         :: total energy             -83.143247954891 Eh    ::
         :: total w/o Gsasa/hb       -83.117168217078 Eh    ::
         :: gradient norm              0.162266699782 Eh/a0 ::
         :: HOMO-LUMO gap              1.740413234537 eV    ::
         ::.................................................::
         :: SCC energy               -83.904228932140 Eh    ::
         :: -> electrostatic           0.423455295150 Eh    ::
         :: -> Gsolv                  -0.120345246546 Eh    ::
         ::    -> Gelec               -0.094265508733 Eh    ::
         ::    -> Gsasa               -0.023997790779 Eh    ::
         ::    -> Ghb                 -0.009706226039 Eh    ::
         ::    -> Gshift               0.007624279005 Eh    ::
         :: repulsion energy           0.788736675352 Eh    ::
         :: dispersion energy         -0.027755698103 Eh    ::
         :: halogen bond corr.         0.000000000000 Eh    ::
         :: add. restraining           0.000000000000 Eh    ::
         :: total charge               1.000000000000 e     ::
         :::::::::::::::::::::::::::::::::::::::::::::::::::::

      ----------------------------------------------------------- 
     |                   =====================                   |
     |                        A N C O P T                        |
     |                   =====================                   |
     |               Approximate Normal Coordinate               |
     |                Rational Function Optimizer                |
      ----------------------------------------------------------- 

          ...................................................
          :                      SETUP                      :
          :.................................................:
          :   optimization level            normal          :
          :   max. optcycles                   200          :
          :   ANC micro-cycles                  20          :
          :   degrees of freedom               123          :
          :.................................................:
          :   RF solver                   davidson          :
          :   write xtbopt.log                true          :
          :   linear?                        false          :
          :   energy convergence         0.5000000E-05 Eh   :
          :   grad. convergence          0.1000000E-02 Eh/α :
          :   maximium RF displ.         1.0000000          :
          :   Hlow (freq-cutoff)         0.1000000E-01      :
          :   Hmax (freq-cutoff)         5.0000000          :
          :   S6 in model hess.         20.0000000          :
          ...................................................

generating ANC from model Hessian ...
Using Lindh-Hessian (1995)
 Shifting diagonal of input Hessian by   9.804806579737846E-003
 Lowest  eigenvalues of input Hessian
    0.000000    0.000000    0.000000    0.000000    0.000000    0.000000
    0.010000    0.010284    0.010378    0.011550    0.012373    0.012529
    0.012992    0.014114    0.014506    0.015299    0.016313    0.017047
 Highest eigenvalues
    1.983179    2.117452    2.163406    2.259841    2.352786    2.392532
 

........................................................................
.............................. CYCLE    1 ..............................
........................................................................
   1    -83.9042289 -0.839042E+02  0.181E-05    1.74       0.0  T
   2    -83.9042289 -0.243006E-11  0.778E-06    1.74    1961.3  T
   3    -83.9042289 -0.127898E-12  0.566E-06    1.74    2696.4  T
     SCC iter.                  ...        0 min,  0.012 sec
     gradient                   ...        0 min,  0.086 sec
 * total energy  :   -83.1432480 Eh     change       -0.1986677E-10 Eh
   gradient norm :     0.1622661 Eh/α   predicted     0.0000000E+00 (-100.00%)
   displ. norm   :     0.3653219 α      lambda       -0.2614824E-01
   maximum displ.:     0.1048023 α      in ANC's #21, #7, #33, ...

........................................................................
.............................. CYCLE    2 ..............................
........................................................................
   1    -83.9406940 -0.839407E+02  0.110E-01    2.16       0.0  T
   2    -83.9412065 -0.512533E-03  0.548E-02    2.11       1.0  T
   3    -83.9413080 -0.101477E-03  0.199E-02    2.11       1.0  T
   4    -83.9413083 -0.316647E-06  0.916E-03    2.10       1.7  T
   5    -83.9413091 -0.782670E-06  0.168E-03    2.09       9.1  T
   6    -83.9413092 -0.791218E-07  0.538E-04    2.09      28.4  T
   7    -83.9413092 -0.550398E-08  0.154E-04    2.09      98.9  T
   8    -83.9413092 -0.239567E-09  0.413E-05    2.09     369.5  T
     SCC iter.                  ...        0 min,  0.030 sec
     gradient                   ...        0 min,  0.087 sec
 * total energy  :   -83.1623857 Eh     change       -0.1913772E-01 Eh
   gradient norm :     0.0785060 Eh/α   predicted    -0.1485610E-01 ( -22.37%)
   displ. norm   :     0.4172611 α      lambda       -0.1224400E-01
   maximum displ.:     0.1423922 α      in ANC's #10, #16, #5, ...

........................................................................
.............................. CYCLE    3 ..............................
........................................................................
   1    -83.9663616 -0.839664E+02  0.985E-02    2.47       0.0  T
   2    -83.9667688 -0.407187E-03  0.452E-02    2.44       1.0  T
   3    -83.9668298 -0.609763E-04  0.172E-02    2.44       1.0  T
   4    -83.9668299 -0.142890E-06  0.752E-03    2.43       2.0  T
   5    -83.9668304 -0.474199E-06  0.134E-03    2.42      11.4  T
   6    -83.9668304 -0.488874E-07  0.430E-04    2.43      35.4  T
   7    -83.9668304 -0.350644E-08  0.128E-04    2.43     119.6  T
   8    -83.9668304 -0.150905E-09  0.325E-05    2.43     469.6  T
     SCC iter.                  ...        0 min,  0.030 sec
     gradient                   ...        0 min,  0.087 sec
 * total energy  :   -83.1698025 Eh     change       -0.7416852E-02 Eh
   gradient norm :     0.0220028 Eh/α   predicted    -0.7187886E-02 (  -3.09%)
   displ. norm   :     0.3930334 α      lambda       -0.3154850E-02
   maximum displ.:     0.1609675 α      in ANC's #10, #5, #7, ...

........................................................................
.............................. CYCLE    4 ..............................
........................................................................
   1    -83.9678372 -0.839678E+02  0.253E-02    2.50       0.0  T
   2    -83.9678602 -0.229770E-04  0.132E-02    2.50       1.2  T
   3    -83.9678627 -0.251811E-05  0.637E-03    2.50       2.4  T
   4    -83.9678627 -0.291511E-07  0.176E-03    2.50       8.6  T
   5    -83.9678628 -0.312951E-07  0.387E-04    2.50      39.4  T
   6    -83.9678628 -0.227035E-08  0.152E-04    2.50     100.3  T
   7    -83.9678628 -0.470649E-09  0.512E-05    2.50     298.0  T
     SCC iter.                  ...        0 min,  0.026 sec
     gradient                   ...        0 min,  0.087 sec
 * total energy  :   -83.1721735 Eh     change       -0.2370986E-02 Eh
   gradient norm :     0.0186391 Eh/α   predicted    -0.1821114E-02 ( -23.19%)
   displ. norm   :     0.4934055 α      lambda       -0.2557406E-02
   maximum displ.:     0.2123005 α      in ANC's #10, #5, #9, ...

........................................................................
.............................. CYCLE    5 ..............................
........................................................................
   1    -83.9691274 -0.839691E+02  0.274E-02    2.55       0.0  T
   2    -83.9691639 -0.365394E-04  0.138E-02    2.55       1.1  T
   3    -83.9691697 -0.584666E-05  0.534E-03    2.55       2.9  T
   4    -83.9691698 -0.716599E-07  0.228E-03    2.55       6.7  T
   5    -83.9691698 -0.243173E-07  0.552E-04    2.55      27.6  T
   6    -83.9691699 -0.643749E-08  0.137E-04    2.55     111.7  T
   7    -83.9691699 -0.384432E-09  0.575E-05    2.55     265.1  T
     SCC iter.                  ...        0 min,  0.026 sec
     gradient                   ...        0 min,  0.087 sec
 * total energy  :   -83.1740020 Eh     change       -0.1828517E-02 Eh
   gradient norm :     0.0152019 Eh/α   predicted    -0.1590008E-02 ( -13.04%)
   displ. norm   :     0.4443418 α      lambda       -0.1502487E-02
   maximum displ.:     0.1891100 α      in ANC's #9, #5, #10, ...

........................................................................
.............................. CYCLE    6 ..............................
........................................................................
   1    -83.9704879 -0.839705E+02  0.199E-02    2.57       0.0  T
   2    -83.9705042 -0.162623E-04  0.910E-03    2.57       1.7  T
   3    -83.9705070 -0.284857E-05  0.396E-03    2.57       3.8  T
   4    -83.9705071 -0.584199E-07  0.154E-03    2.57       9.9  T
   5    -83.9705071 -0.704816E-08  0.383E-04    2.57      39.8  T
   6    -83.9705071 -0.343047E-08  0.103E-04    2.57     148.7  T
   7    -83.9705071 -0.131749E-09  0.367E-05    2.57     415.1  T
     SCC iter.                  ...        0 min,  0.026 sec
     gradient                   ...        0 min,  0.087 sec
 * total energy  :   -83.1750875 Eh     change       -0.1085426E-02 Eh
   gradient norm :     0.0148344 Eh/α   predicted    -0.8995742E-03 ( -17.12%)
   displ. norm   :     0.4258241 α      lambda       -0.1052743E-02
   maximum displ.:     0.2009815 α      in ANC's #9, #5, #4, ...

........................................................................
.............................. CYCLE    7 ..............................
........................................................................
   1    -83.9741812 -0.839742E+02  0.180E-02    2.59       0.0  T
   2    -83.9741935 -0.122970E-04  0.836E-03    2.59       1.8  T
   3    -83.9741951 -0.165431E-05  0.460E-03    2.59       3.3  T
   4    -83.9741952 -0.116850E-06  0.166E-03    2.59       9.2  T
   5    -83.9741952 -0.683377E-08  0.292E-04    2.59      52.2  T
   6    -83.9741952 -0.238427E-08  0.895E-05    2.59     170.3  T
   7    -83.9741952 -0.201410E-09  0.241E-05    2.59     632.9  T
     SCC iter.                  ...        0 min,  0.026 sec
     gradient                   ...        0 min,  0.088 sec
 * total energy  :   -83.1758150 Eh     change       -0.7275861E-03 Eh
   gradient norm :     0.0108361 Eh/α   predicted    -0.6218182E-03 ( -14.54%)
   displ. norm   :     0.3649684 α      lambda       -0.6277263E-03
   maximum displ.:     0.1806789 α      in ANC's #9, #4, #6, ...

........................................................................
.............................. CYCLE    8 ..............................
........................................................................
   1    -83.9756183 -0.839756E+02  0.122E-02    2.59       0.0  T
   2    -83.9756273 -0.900579E-05  0.592E-03    2.59       2.6  T
   3    -83.9756276 -0.377242E-06  0.327E-03    2.59       4.7  T
   4    -83.9756276 -0.181757E-09  0.961E-04    2.59      15.9  T
   5    -83.9756277 -0.110563E-07  0.183E-04    2.59      83.4  T
   6    -83.9756277 -0.588642E-09  0.568E-05    2.59     268.6  T
     SCC iter.                  ...        0 min,  0.023 sec
     gradient                   ...        0 min,  0.088 sec
 * total energy  :   -83.1762298 Eh     change       -0.4147764E-03 Eh
   gradient norm :     0.0103650 Eh/α   predicted    -0.3556737E-03 ( -14.25%)
   displ. norm   :     0.2841585 α      lambda       -0.3896178E-03
   maximum displ.:     0.1353650 α      in ANC's #4, #9, #6, ...

........................................................................
.............................. CYCLE    9 ..............................
........................................................................
   1    -83.9779253 -0.839779E+02  0.103E-02    2.59       0.0  T
   2    -83.9779288 -0.345010E-05  0.524E-03    2.59       2.9  T
   3    -83.9779290 -0.297546E-06  0.292E-03    2.59       5.2  T
   4    -83.9779291 -0.114228E-07  0.819E-04    2.59      18.6  T
   5    -83.9779291 -0.641234E-08  0.143E-04    2.59     106.5  T
   6    -83.9779291 -0.629356E-09  0.475E-05    2.59     321.1  T
     SCC iter.                  ...        0 min,  0.023 sec
     gradient                   ...        0 min,  0.088 sec
 * total energy  :   -83.1764961 Eh     change       -0.2662687E-03 Eh
   gradient norm :     0.0061897 Eh/α   predicted    -0.2105497E-03 ( -20.93%)
   displ. norm   :     0.2802733 α      lambda       -0.2988175E-03
   maximum displ.:     0.1441775 α      in ANC's #4, #2, #3, ...

........................................................................
.............................. CYCLE   10 ..............................
........................................................................
   1    -83.9778040 -0.839778E+02  0.928E-03    2.59       0.0  T
   2    -83.9778075 -0.348903E-05  0.446E-03    2.59       3.4  T
   3    -83.9778079 -0.410525E-06  0.206E-03    2.59       7.4  T
   4    -83.9778079 -0.301311E-08  0.602E-04    2.59      25.3  T
   5    -83.9778079 -0.289263E-08  0.115E-04    2.59     133.0  T
   6    -83.9778079 -0.345324E-09  0.397E-05    2.59     384.2  T
     SCC iter.                  ...        0 min,  0.022 sec
     gradient                   ...        0 min,  0.088 sec
 * total energy  :   -83.1767119 Eh     change       -0.2158470E-03 Eh
   gradient norm :     0.0071614 Eh/α   predicted    -0.1611577E-03 ( -25.34%)
   displ. norm   :     0.2758486 α      lambda       -0.2638242E-03
   maximum displ.:     0.1447246 α      in ANC's #4, #2, #3, ...

........................................................................
.............................. CYCLE   11 ..............................
........................................................................
   1    -83.9772913 -0.839773E+02  0.765E-03    2.59       0.0  T
   2    -83.9772936 -0.230268E-05  0.362E-03    2.59       4.2  T
   3    -83.9772938 -0.270599E-06  0.165E-03    2.59       9.2  T
   4    -83.9772938 -0.236778E-08  0.613E-04    2.59      24.9  T
   5    -83.9772938 -0.209948E-08  0.105E-04    2.59     145.1  T
   6    -83.9772938 -0.397790E-09  0.322E-05    2.59     474.3  T
     SCC iter.                  ...        0 min,  0.023 sec
     gradient                   ...        0 min,  0.089 sec
 * total energy  :   -83.1768986 Eh     change       -0.1866654E-03 Eh
   gradient norm :     0.0071378 Eh/α   predicted    -0.1419518E-03 ( -23.95%)
   displ. norm   :     0.2286197 α      lambda       -0.1798827E-03
   maximum displ.:     0.1191789 α      in ANC's #4, #2, #3, ...

........................................................................
.............................. CYCLE   12 ..............................
........................................................................
   1    -83.9768785 -0.839769E+02  0.753E-03    2.61       0.0  T
   2    -83.9768807 -0.214029E-05  0.359E-03    2.61       4.2  T
   3    -83.9768808 -0.173519E-06  0.193E-03    2.61       7.9  T
   4    -83.9768808 -0.367609E-08  0.650E-04    2.61      23.5  T
   5    -83.9768808 -0.519854E-08  0.110E-04    2.61     138.8  T
   6    -83.9768808 -0.382940E-09  0.252E-05    2.61     605.7  T
     SCC iter.                  ...        0 min,  0.023 sec
     gradient                   ...        0 min,  0.089 sec
 * total energy  :   -83.1770309 Eh     change       -0.1322601E-03 Eh
   gradient norm :     0.0064695 Eh/α   predicted    -0.9465360E-04 ( -28.43%)
   displ. norm   :     0.2224352 α      lambda       -0.1629426E-03
   maximum displ.:     0.1244872 α      in ANC's #2, #4, #3, ...

........................................................................
.............................. CYCLE   13 ..............................
........................................................................
   1    -83.9767001 -0.839767E+02  0.793E-03    2.63       0.0  T
   2    -83.9767022 -0.211047E-05  0.366E-03    2.63       4.2  T
   3    -83.9767026 -0.378778E-06  0.166E-03    2.63       9.2  T
   4    -83.9767026 -0.118987E-07  0.541E-04    2.63      28.2  T
   5    -83.9767026 -0.157337E-08  0.145E-04    2.63     105.0  T
   6    -83.9767026 -0.468987E-09  0.263E-05    2.63     580.1  T
     SCC iter.                  ...        0 min,  0.023 sec
     gradient                   ...        0 min,  0.090 sec
 * total energy  :   -83.1771519 Eh     change       -0.1210562E-03 Eh
   gradient norm :     0.0051979 Eh/α   predicted    -0.8550743E-04 ( -29.37%)
   displ. norm   :     0.2519747 α      lambda       -0.1556492E-03
   maximum displ.:     0.1587185 α      in ANC's #2, #4, #8, ...

........................................................................
.............................. CYCLE   14 ..............................
........................................................................
   1    -83.9780927 -0.839781E+02  0.872E-03    2.64       0.0  T
   2    -83.9780965 -0.380649E-05  0.413E-03    2.64       3.7  T
   3    -83.9780972 -0.697088E-06  0.145E-03    2.64      10.5  T
   4    -83.9780972 -0.105904E-07  0.681E-04    2.64      22.4  T
   5    -83.9780972 -0.770555E-09  0.196E-04    2.64      78.0  T
   6    -83.9780972 -0.575525E-09  0.299E-05    2.64     510.4  T
     SCC iter.                  ...        0 min,  0.023 sec
     gradient                   ...        0 min,  0.088 sec
 * total energy  :   -83.1772646 Eh     change       -0.1127070E-03 Eh
   gradient norm :     0.0052020 Eh/α   predicted    -0.8276726E-04 ( -26.56%)
   displ. norm   :     0.2945483 α      lambda       -0.1536109E-03
   maximum displ.:     0.1808095 α      in ANC's #2, #4, #8, ...

........................................................................
.............................. CYCLE   15 ..............................
........................................................................
   1    -83.9761004 -0.839761E+02  0.113E-02    2.65       0.0  T
   2    -83.9761056 -0.515615E-05  0.493E-03    2.66       3.1  T
   3    -83.9761063 -0.756730E-06  0.223E-03    2.66       6.8  T
   4    -83.9761063 -0.170919E-07  0.924E-04    2.66      16.5  T
   5    -83.9761063 -0.409712E-08  0.148E-04    2.66     103.3  T
   6    -83.9761063 -0.437424E-09  0.410E-05    2.66     371.6  T
     SCC iter.                  ...        0 min,  0.023 sec
     gradient                   ...        0 min,  0.088 sec
 * total energy  :   -83.1773594 Eh     change       -0.9472885E-04 Eh
   gradient norm :     0.0072054 Eh/α   predicted    -0.8347874E-04 ( -11.88%)
   displ. norm   :     0.2647573 α      lambda       -0.1642229E-03
   maximum displ.:     0.1870686 α      in ANC's #2, #4, #3, ...

........................................................................
.............................. CYCLE   16 ..............................
........................................................................
   1    -83.9792120 -0.839792E+02  0.943E-03    2.67       0.0  T
   2    -83.9792153 -0.321650E-05  0.484E-03    2.67       3.2  T
   3    -83.9792159 -0.585146E-06  0.252E-03    2.67       6.1  T
   4    -83.9792159 -0.100327E-07  0.700E-04    2.67      21.8  T
   5    -83.9792159 -0.527713E-08  0.160E-04    2.67      95.1  T
   6    -83.9792159 -0.109911E-08  0.247E-05    2.67     617.8  T
     SCC iter.                  ...        0 min,  0.023 sec
     gradient                   ...        0 min,  0.089 sec
 * total energy  :   -83.1774667 Eh     change       -0.1073708E-03 Eh
   gradient norm :     0.0060351 Eh/α   predicted    -0.8786749E-04 ( -18.16%)
   displ. norm   :     0.2268347 α      lambda       -0.1133344E-03
   maximum displ.:     0.1541082 α      in ANC's #2, #4, #8, ...

........................................................................
.............................. CYCLE   17 ..............................
........................................................................
   1    -83.9792943 -0.839793E+02  0.552E-03    2.67       0.0  T
   2    -83.9792953 -0.105096E-05  0.252E-03    2.67       6.1  T
   3    -83.9792955 -0.150386E-06  0.123E-03    2.67      12.4  T
   4    -83.9792955 -0.397679E-08  0.419E-04    2.67      36.4  T
   5    -83.9792955 -0.152230E-08  0.789E-05    2.67     193.3  T
   6    -83.9792955 -0.157172E-09  0.288E-05    2.67     529.0  T
     SCC iter.                  ...        0 min,  0.023 sec
     gradient                   ...        0 min,  0.089 sec
 * total energy  :   -83.1775561 Eh     change       -0.8940415E-04 Eh
   gradient norm :     0.0049615 Eh/α   predicted    -0.5958426E-04 ( -33.35%)
   displ. norm   :     0.2877872 α      lambda       -0.1394318E-03
   maximum displ.:     0.2023896 α      in ANC's #2, #4, #5, ...

........................................................................
.............................. CYCLE   18 ..............................
........................................................................
   1    -83.9796731 -0.839797E+02  0.829E-03    2.67       0.0  T
   2    -83.9796759 -0.274022E-05  0.280E-03    2.67       5.4  T
   3    -83.9796761 -0.206327E-06  0.133E-03    2.67      11.4  T
   4    -83.9796761 -0.692556E-08  0.578E-04    2.68      26.4  T
   5    -83.9796761 -0.120198E-08  0.927E-05    2.68     164.4  T
   6    -83.9796761 -0.161393E-09  0.283E-05    2.68     539.0  T
     SCC iter.                  ...        0 min,  0.023 sec
     gradient                   ...        0 min,  0.088 sec
 * total energy  :   -83.1776533 Eh     change       -0.9714513E-04 Eh
   gradient norm :     0.0033947 Eh/α   predicted    -0.7549419E-04 ( -22.29%)
   displ. norm   :     0.2119723 α      lambda       -0.6106464E-04
   maximum displ.:     0.1544113 α      in ANC's #2, #4, #1, ...

........................................................................
.............................. CYCLE   19 ..............................
........................................................................
   1    -83.9792907 -0.839793E+02  0.531E-03    2.68       0.0  T
   2    -83.9792917 -0.104928E-05  0.199E-03    2.68       7.6  T
   3    -83.9792919 -0.108846E-06  0.866E-04    2.68      17.6  T
   4    -83.9792919 -0.320391E-08  0.390E-04    2.68      39.1  T
   5    -83.9792919 -0.694428E-09  0.804E-05    2.68     189.7  T
   6    -83.9792919 -0.169877E-09  0.295E-05    2.68     517.8  T
     SCC iter.                  ...        0 min,  0.023 sec
     gradient                   ...        0 min,  0.088 sec
 * total energy  :   -83.1776973 Eh     change       -0.4405829E-04 Eh
   gradient norm :     0.0029288 Eh/α   predicted    -0.3190576E-04 ( -27.58%)
   displ. norm   :     0.1330431 α      lambda       -0.3587436E-04
   maximum displ.:     0.0992933 α      in ANC's #2, #1, #4, ...

........................................................................
.............................. CYCLE   20 ..............................
........................................................................
   1    -83.9797299 -0.839797E+02  0.352E-03    2.69       0.0  T
   2    -83.9797305 -0.614931E-06  0.126E-03    2.69      12.1  T
   3    -83.9797306 -0.408689E-07  0.576E-04    2.69      26.5  T
   4    -83.9797306 -0.101008E-08  0.256E-04    2.69      59.6  T
   5    -83.9797306 -0.325670E-09  0.499E-05    2.69     305.4  T
   6    -83.9797306 -0.321450E-10  0.128E-05    2.69    1193.2  T
     SCC iter.                  ...        0 min,  0.023 sec
     gradient                   ...        0 min,  0.088 sec
 * total energy  :   -83.1777248 Eh     change       -0.2742890E-04 Eh
   gradient norm :     0.0028166 Eh/α   predicted    -0.1825848E-04 ( -33.43%)
   displ. norm   :     0.1278004 α      lambda       -0.3291510E-04
   maximum displ.:     0.0935310 α      in ANC's #2, #1, #4, ...
 * RMSD in coord.:     0.6416223 α      energy gain  -0.3447681E-01 Eh

generating ANC from model Hessian ...
Using Lindh-Hessian (1995)
 Shifting diagonal of input Hessian by   9.818892297291996E-003
 Lowest  eigenvalues of input Hessian
    0.000000    0.000000    0.000000    0.000000    0.000000    0.000000
    0.010000    0.010043    0.010321    0.011240    0.011545    0.011976
    0.012353    0.013048    0.014046    0.015285    0.016006    0.016910
 Highest eigenvalues
    2.054796    2.202384    2.220513    2.389405    2.404091    2.489900
 

........................................................................
.............................. CYCLE   21 ..............................
........................................................................
   1    -83.9792196 -0.839792E+02  0.338E-03    2.70       0.0  T
   2    -83.9792201 -0.495704E-06  0.142E-03    2.70      10.7  T
   3    -83.9792202 -0.742148E-07  0.581E-04    2.70      26.2  T
   4    -83.9792202 -0.346840E-08  0.255E-04    2.70      59.9  T
   5    -83.9792202 -0.320853E-09  0.793E-05    2.70     192.2  T
   6    -83.9792202 -0.886899E-10  0.221E-05    2.70     689.9  T
     SCC iter.                  ...        0 min,  0.023 sec
     gradient                   ...        0 min,  0.088 sec
 * total energy  :   -83.1777501 Eh     change       -0.2528710E-04 Eh
   gradient norm :     0.0018967 Eh/α   predicted     0.0000000E+00 (-100.00%)
   displ. norm   :     0.0441728 α      lambda       -0.1659145E-04
   maximum displ.:     0.0268044 α      in ANC's #3, #2, #5, ...

........................................................................
.............................. CYCLE   22 ..............................
........................................................................
   1    -83.9796553 -0.839797E+02  0.183E-03    2.70       0.0  T
   2    -83.9796554 -0.129136E-06  0.773E-04    2.70      19.7  T
   3    -83.9796554 -0.532353E-08  0.427E-04    2.70      35.7  T
   4    -83.9796554 -0.746212E-10  0.146E-04    2.70     104.7  T
   5    -83.9796554 -0.323809E-09  0.240E-05    2.70     636.2  T
     SCC iter.                  ...        0 min,  0.019 sec
     gradient                   ...        0 min,  0.088 sec
 * total energy  :   -83.1777686 Eh     change       -0.1859395E-04 Eh
   gradient norm :     0.0010399 Eh/α   predicted    -0.8595660E-05 ( -53.77%)
   displ. norm   :     0.1194015 α      lambda       -0.2912868E-04
   maximum displ.:     0.0652591 α      in ANC's #3, #2, #5, ...

........................................................................
.............................. CYCLE   23 ..............................
........................................................................
   1    -83.9799676 -0.839800E+02  0.341E-03    2.70       0.0  T
   2    -83.9799681 -0.514765E-06  0.126E-03    2.70      12.1  T
   3    -83.9799681 -0.288677E-07  0.661E-04    2.70      23.1  T
   4    -83.9799681 -0.930626E-09  0.290E-04    2.70      52.7  T
   5    -83.9799681 -0.762327E-09  0.505E-05    2.70     301.7  T
   6    -83.9799681 -0.554365E-10  0.127E-05    2.70    1198.3  T
     SCC iter.                  ...        0 min,  0.022 sec
     gradient                   ...        0 min,  0.089 sec
 * total energy  :   -83.1778018 Eh     change       -0.3310984E-04 Eh
   gradient norm :     0.0020222 Eh/α   predicted    -0.1467524E-04 ( -55.68%)
   displ. norm   :     0.1371511 α      lambda       -0.3739744E-04
   maximum displ.:     0.0758199 α      in ANC's #3, #2, #5, ...

........................................................................
.............................. CYCLE   24 ..............................
........................................................................
   1    -83.9796161 -0.839796E+02  0.228E-03    2.70       0.0  T
   2    -83.9796163 -0.178595E-06  0.886E-04    2.70      17.2  T
   3    -83.9796163 -0.154904E-07  0.429E-04    2.70      35.6  T
   4    -83.9796163 -0.985821E-09  0.186E-04    2.70      81.9  T
   5    -83.9796163 -0.213277E-09  0.355E-05    2.70     429.8  T
     SCC iter.                  ...        0 min,  0.014 sec
     gradient                   ...        0 min,  0.060 sec
 * total energy  :   -83.1778332 Eh     change       -0.3144140E-04 Eh
   gradient norm :     0.0026365 Eh/α   predicted    -0.1905135E-04 ( -39.41%)
   displ. norm   :     0.2304111 α      lambda       -0.5274936E-04
   maximum displ.:     0.1278000 α      in ANC's #3, #2, #5, ...

........................................................................
.............................. CYCLE   25 ..............................
........................................................................
   1    -83.9789260 -0.839789E+02  0.243E-03    2.70       0.0  T
   2    -83.9789261 -0.121527E-06  0.107E-03    2.70      14.3  T
   3    -83.9789261 -0.939487E-08  0.557E-04    2.70      27.4  T
   4    -83.9789261 -0.164685E-08  0.176E-04    2.70      86.5  T
   5    -83.9789261 -0.212438E-09  0.379E-05    2.70     402.2  T
     SCC iter.                  ...        0 min,  0.014 sec
     gradient                   ...        0 min,  0.055 sec
 * total energy  :   -83.1778737 Eh     change       -0.4047287E-04 Eh
   gradient norm :     0.0029686 Eh/α   predicted    -0.2779027E-04 ( -31.34%)
   displ. norm   :     0.2086626 α      lambda       -0.3901949E-04
   maximum displ.:     0.1201767 α      in ANC's #3, #2, #1, ...

........................................................................
.............................. CYCLE   26 ..............................
........................................................................
   1    -83.9786366 -0.839786E+02  0.193E-03    2.71       0.0  T
   2    -83.9786367 -0.126865E-06  0.813E-04    2.71      18.7  T
   3    -83.9786368 -0.798704E-08  0.415E-04    2.71      36.7  T
   4    -83.9786368 -0.649521E-09  0.153E-04    2.71      99.7  T
   5    -83.9786368 -0.240789E-09  0.366E-05    2.71     416.4  T
     SCC iter.                  ...        0 min,  0.018 sec
     gradient                   ...        0 min,  0.088 sec
 * total energy  :   -83.1779043 Eh     change       -0.3060133E-04 Eh
   gradient norm :     0.0024381 Eh/α   predicted    -0.2036105E-04 ( -33.46%)
   displ. norm   :     0.1753620 α      lambda       -0.3385604E-04
   maximum displ.:     0.1065319 α      in ANC's #3, #2, #1, ...

........................................................................
.............................. CYCLE   27 ..............................
........................................................................
   1    -83.9790142 -0.839790E+02  0.262E-03    2.71       0.0  T
   2    -83.9790145 -0.296159E-06  0.107E-03    2.71      14.3  T
   3    -83.9790146 -0.251852E-07  0.524E-04    2.71      29.1  T
   4    -83.9790146 -0.773383E-09  0.223E-04    2.71      68.4  T
   5    -83.9790146 -0.353438E-09  0.457E-05    2.71     333.9  T
   6    -83.9790146 -0.432294E-10  0.158E-05    2.71     967.0  T
     SCC iter.                  ...        0 min,  0.021 sec
     gradient                   ...        0 min,  0.087 sec
 * total energy  :   -83.1779309 Eh     change       -0.2664608E-04 Eh
   gradient norm :     0.0012738 Eh/α   predicted    -0.1745026E-04 ( -34.51%)
   displ. norm   :     0.2238462 α      lambda       -0.2715340E-04
   maximum displ.:     0.1423454 α      in ANC's #3, #2, #1, ...

........................................................................
.............................. CYCLE   28 ..............................
........................................................................
   1    -83.9796969 -0.839797E+02  0.398E-03    2.71       0.0  T
   2    -83.9796976 -0.659757E-06  0.158E-03    2.71       9.7  T
   3    -83.9796977 -0.703718E-07  0.688E-04    2.71      22.2  T
   4    -83.9796977 -0.159794E-08  0.312E-04    2.71      48.9  T
   5    -83.9796977 -0.501487E-09  0.662E-05    2.71     230.3  T
   6    -83.9796977 -0.988365E-10  0.224E-05    2.71     681.9  T
     SCC iter.                  ...        0 min,  0.020 sec
     gradient                   ...        0 min,  0.082 sec
 * total energy  :   -83.1779602 Eh     change       -0.2927199E-04 Eh
   gradient norm :     0.0017575 Eh/α   predicted    -0.1390383E-04 ( -52.50%)
   displ. norm   :     0.1584280 α      lambda       -0.1745707E-04
   maximum displ.:     0.1015213 α      in ANC's #3, #2, #1, ...

........................................................................
.............................. CYCLE   29 ..............................
........................................................................
   1    -83.9796135 -0.839796E+02  0.195E-03    2.71       0.0  T
   2    -83.9796136 -0.131871E-06  0.650E-04    2.71      23.4  T
   3    -83.9796137 -0.158318E-07  0.241E-04    2.71      63.3  T
   4    -83.9796137 -0.517062E-09  0.920E-05    2.71     165.7  T
   5    -83.9796137 -0.360671E-10  0.286E-05    2.71     533.7  T
     SCC iter.                  ...        0 min,  0.018 sec
     gradient                   ...        0 min,  0.084 sec
 * total energy  :   -83.1779829 Eh     change       -0.2268959E-04 Eh
   gradient norm :     0.0017750 Eh/α   predicted    -0.8826171E-05 ( -61.10%)
   displ. norm   :     0.2352517 α      lambda       -0.2980764E-04
   maximum displ.:     0.1441157 α      in ANC's #3, #2, #1, ...

........................................................................
.............................. CYCLE   30 ..............................
........................................................................
   1    -83.9800246 -0.839800E+02  0.252E-03    2.71       0.0  T
   2    -83.9800248 -0.235537E-06  0.105E-03    2.71      14.5  T
   3    -83.9800249 -0.344748E-07  0.512E-04    2.71      29.8  T
   4    -83.9800249 -0.182074E-08  0.183E-04    2.71      83.2  T
   5    -83.9800249 -0.120437E-09  0.601E-05    2.71     253.9  T
     SCC iter.                  ...        0 min,  0.018 sec
     gradient                   ...        0 min,  0.084 sec
 * total energy  :   -83.1780174 Eh     change       -0.3452741E-04 Eh
   gradient norm :     0.0017414 Eh/α   predicted    -0.1527089E-04 ( -55.77%)
   displ. norm   :     0.3245512 α      lambda       -0.2873541E-04
   maximum displ.:     0.1975290 α      in ANC's #3, #2, #1, ...

........................................................................
.............................. CYCLE   31 ..............................
........................................................................
   1    -83.9785409 -0.839785E+02  0.414E-03    2.71       0.0  T
   2    -83.9785413 -0.427137E-06  0.199E-03    2.72       7.7  T
   3    -83.9785414 -0.811137E-07  0.106E-03    2.72      14.3  T
   4    -83.9785414 -0.737153E-08  0.275E-04    2.72      55.5  T
   5    -83.9785414 -0.397890E-09  0.714E-05    2.72     213.5  T
   6    -83.9785414 -0.142663E-09  0.175E-05    2.72     872.5  T
     SCC iter.                  ...        0 min,  0.021 sec
     gradient                   ...        0 min,  0.085 sec
 * total energy  :   -83.1780413 Eh     change       -0.2387191E-04 Eh
   gradient norm :     0.0026558 Eh/α   predicted    -0.1504119E-04 ( -36.99%)
   displ. norm   :     0.1244358 α      lambda       -0.2243247E-04
   maximum displ.:     0.0706249 α      in ANC's #3, #2, #1, ...

........................................................................
.............................. CYCLE   32 ..............................
........................................................................
   1    -83.9791154 -0.839791E+02  0.244E-03    2.72       0.0  T
   2    -83.9791156 -0.141269E-06  0.123E-03    2.72      12.4  T
   3    -83.9791156 -0.281042E-07  0.641E-04    2.72      23.8  T
   4    -83.9791156 -0.231454E-08  0.147E-04    2.72     103.6  T
   5    -83.9791156 -0.128651E-09  0.353E-05    2.72     431.5  T
     SCC iter.                  ...        0 min,  0.018 sec
     gradient                   ...        0 min,  0.086 sec
 * total energy  :   -83.1780577 Eh     change       -0.1640295E-04 Eh
   gradient norm :     0.0015590 Eh/α   predicted    -0.1139014E-04 ( -30.56%)
   displ. norm   :     0.3050831 α      lambda       -0.2185599E-04
   maximum displ.:     0.1721773 α      in ANC's #3, #2, #1, ...

........................................................................
.............................. CYCLE   33 ..............................
........................................................................
   1    -83.9798177 -0.839798E+02  0.512E-03    2.73       0.0  T
   2    -83.9798188 -0.107283E-05  0.232E-03    2.73       6.6  T
   3    -83.9798190 -0.204580E-06  0.745E-04    2.73      20.5  T
   4    -83.9798190 -0.401539E-08  0.296E-04    2.73      51.5  T
   5    -83.9798190 -0.319432E-09  0.979E-05    2.73     155.8  T
   6    -83.9798190 -0.158977E-09  0.226E-05    2.73     675.2  T
     SCC iter.                  ...        0 min,  0.021 sec
     gradient                   ...        0 min,  0.088 sec
 * total energy  :   -83.1780804 Eh     change       -0.2270468E-04 Eh
   gradient norm :     0.0014431 Eh/α   predicted    -0.1138387E-04 ( -49.86%)
   displ. norm   :     0.3888506 α      lambda       -0.2282770E-04
   maximum displ.:     0.2175200 α      in ANC's #3, #2, #1, ...

........................................................................
.............................. CYCLE   34 ..............................
........................................................................
   1    -83.9791070 -0.839791E+02  0.617E-03    2.74       0.0  T
   2    -83.9791085 -0.149799E-05  0.282E-03    2.74       5.4  T
   3    -83.9791087 -0.262074E-06  0.111E-03    2.74      13.8  T
   4    -83.9791087 -0.785833E-08  0.421E-04    2.74      36.2  T
   5    -83.9791087 -0.576975E-09  0.109E-04    2.74     140.3  T
   6    -83.9791087 -0.206242E-09  0.287E-05    2.74     530.8  T
     SCC iter.                  ...        0 min,  0.023 sec
     gradient                   ...        0 min,  0.083 sec
 * total energy  :   -83.1781051 Eh     change       -0.2469884E-04 Eh
   gradient norm :     0.0023801 Eh/α   predicted    -0.1218230E-04 ( -50.68%)
   displ. norm   :     0.2186287 α      lambda       -0.3038203E-04
   maximum displ.:     0.1176373 α      in ANC's #2, #3, #1, ...

........................................................................
.............................. CYCLE   35 ..............................
........................................................................
   1    -83.9797018 -0.839797E+02  0.410E-03    2.75       0.0  T
   2    -83.9797026 -0.735557E-06  0.186E-03    2.76       8.2  T
   3    -83.9797027 -0.132602E-06  0.638E-04    2.76      23.9  T
   4    -83.9797027 -0.394841E-08  0.258E-04    2.76      59.2  T
   5    -83.9797027 -0.178588E-09  0.748E-05    2.76     203.8  T
   6    -83.9797027 -0.758149E-10  0.193E-05    2.76     789.3  T
     SCC iter.                  ...        0 min,  0.022 sec
     gradient                   ...        0 min,  0.083 sec
 * total energy  :   -83.1781274 Eh     change       -0.2233412E-04 Eh
   gradient norm :     0.0021458 Eh/α   predicted    -0.1592135E-04 ( -28.71%)
   displ. norm   :     0.2757789 α      lambda       -0.2750766E-04
   maximum displ.:     0.1511632 α      in ANC's #2, #3, #1, ...

........................................................................
.............................. CYCLE   36 ..............................
........................................................................
   1    -83.9795783 -0.839796E+02  0.501E-03    2.77       0.0  T
   2    -83.9795793 -0.104553E-05  0.218E-03    2.77       7.0  T
   3    -83.9795795 -0.185974E-06  0.829E-04    2.77      18.4  T
   4    -83.9795795 -0.600352E-08  0.331E-04    2.77      46.1  T
   5    -83.9795795 -0.201354E-09  0.891E-05    2.77     171.2  T
   6    -83.9795795 -0.131777E-09  0.261E-05    2.77     584.0  T
     SCC iter.                  ...        0 min,  0.022 sec
     gradient                   ...        0 min,  0.084 sec
 * total energy  :   -83.1781478 Eh     change       -0.2040428E-04 Eh
   gradient norm :     0.0023729 Eh/α   predicted    -0.1480013E-04 ( -27.47%)
   displ. norm   :     0.1906598 α      lambda       -0.3230331E-04
   maximum displ.:     0.1004973 α      in ANC's #2, #6, #1, ...

........................................................................
.............................. CYCLE   37 ..............................
........................................................................
   1    -83.9806513 -0.839807E+02  0.475E-03    2.78       0.0  T
   2    -83.9806522 -0.905281E-06  0.215E-03    2.78       7.1  T
   3    -83.9806524 -0.165754E-06  0.923E-04    2.78      16.5  T
   4    -83.9806524 -0.476805E-08  0.338E-04    2.78      45.1  T
   5    -83.9806524 -0.453952E-09  0.107E-04    2.78     142.5  T
   6    -83.9806524 -0.238714E-09  0.207E-05    2.78     737.7  T
     SCC iter.                  ...        0 min,  0.021 sec
     gradient                   ...        0 min,  0.087 sec
 * total energy  :   -83.1781661 Eh     change       -0.1827451E-04 Eh
   gradient norm :     0.0017446 Eh/α   predicted    -0.1673977E-04 (  -8.40%)
   displ. norm   :     0.3804652 α      lambda       -0.2056790E-04
   maximum displ.:     0.2196259 α      in ANC's #2, #3, #1, ...

........................................................................
.............................. CYCLE   38 ..............................
........................................................................
   1    -83.9786757 -0.839787E+02  0.767E-03    2.79       0.0  T
   2    -83.9786777 -0.204056E-05  0.329E-03    2.79       4.6  T
   3    -83.9786781 -0.323736E-06  0.156E-03    2.79       9.8  T
   4    -83.9786781 -0.135023E-07  0.513E-04    2.79      29.7  T
   5    -83.9786781 -0.103961E-08  0.135E-04    2.79     112.6  T
   6    -83.9786781 -0.354447E-09  0.404E-05    2.79     377.5  T
     SCC iter.                  ...        0 min,  0.027 sec
     gradient                   ...        0 min,  0.082 sec
 * total energy  :   -83.1781758 Eh     change       -0.9716977E-05 Eh
   gradient norm :     0.0031880 Eh/α   predicted    -0.1094731E-04 (  12.66%)
   displ. norm   :     0.0447136 α      lambda       -0.2506514E-04
   maximum displ.:     0.0249341 α      in ANC's #3, #9, #1, ...

........................................................................
.............................. CYCLE   39 ..............................
........................................................................
   1    -83.9797785 -0.839798E+02  0.295E-03    2.79       0.0  T
   2    -83.9797787 -0.204693E-06  0.149E-03    2.79      10.2  T
   3    -83.9797787 -0.191388E-07  0.831E-04    2.79      18.3  T
   4    -83.9797787 -0.101318E-08  0.140E-04    2.79     109.1  T
   5    -83.9797787 -0.306869E-09  0.306E-05    2.79     498.8  T
     SCC iter.                  ...        0 min,  0.018 sec
     gradient                   ...        0 min,  0.083 sec
 * total energy  :   -83.1781943 Eh     change       -0.1848232E-04 Eh
   gradient norm :     0.0016728 Eh/α   predicted    -0.1255851E-04 ( -32.05%)
   displ. norm   :     0.1057563 α      lambda       -0.2559331E-04
   maximum displ.:     0.0553145 α      in ANC's #2, #18, #11, ...

........................................................................
.............................. CYCLE   40 ..............................
........................................................................
   1    -83.9810039 -0.839810E+02  0.417E-03    2.79       0.0  T
   2    -83.9810044 -0.438490E-06  0.205E-03    2.79       7.5  T
   3    -83.9810044 -0.210241E-07  0.113E-03    2.79      13.5  T
   4    -83.9810044 -0.184033E-08  0.233E-04    2.79      65.4  T
   5    -83.9810044 -0.728150E-09  0.437E-05    2.79     349.1  T
   6    -83.9810044 -0.366640E-10  0.129E-05    2.79    1184.7  T
     SCC iter.                  ...        0 min,  0.021 sec
     gradient                   ...        0 min,  0.083 sec
 * total energy  :   -83.1782145 Eh     change       -0.2019158E-04 Eh
   gradient norm :     0.0022223 Eh/α   predicted    -0.1286341E-04 ( -36.29%)
   displ. norm   :     0.0801959 α      lambda       -0.1372394E-04
   maximum displ.:     0.0505161 α      in ANC's #2, #1, #3, ...

........................................................................
.............................. CYCLE   41 ..............................
........................................................................
   1    -83.9808860 -0.839809E+02  0.116E-03    2.79       0.0  T
   2    -83.9808860 -0.332134E-07  0.530E-04    2.79      28.8  T
   3    -83.9808860 -0.408194E-08  0.286E-04    2.79      53.3  T
   4    -83.9808860 -0.392092E-09  0.751E-05    2.79     203.2  T
   5    -83.9808860 -0.366214E-10  0.229E-05    2.79     665.2  T
     SCC iter.                  ...        0 min,  0.018 sec
     gradient                   ...        0 min,  0.083 sec
 * total energy  :   -83.1782263 Eh     change       -0.1176316E-04 Eh
   gradient norm :     0.0021741 Eh/α   predicted    -0.6907256E-05 ( -41.28%)
   displ. norm   :     0.3256495 α      lambda       -0.4490068E-04
   maximum displ.:     0.2044391 α      in ANC's #2, #1, #3, ...

........................................................................
.............................. CYCLE   42 ..............................
........................................................................
   1    -83.9796316 -0.839796E+02  0.416E-03    2.79       0.0  T
   2    -83.9796320 -0.344929E-06  0.184E-03    2.79       8.3  T
   3    -83.9796320 -0.382605E-07  0.972E-04    2.79      15.7  T
   4    -83.9796320 -0.456249E-08  0.231E-04    2.79      66.1  T
   5    -83.9796320 -0.425288E-09  0.659E-05    2.79     231.3  T
   6    -83.9796320 -0.789271E-10  0.257E-05    2.79     593.5  T
     SCC iter.                  ...        0 min,  0.021 sec
     gradient                   ...        0 min,  0.083 sec
 * total energy  :   -83.1782553 Eh     change       -0.2909896E-04 Eh
   gradient norm :     0.0025163 Eh/α   predicted    -0.2483383E-04 ( -14.66%)
   displ. norm   :     0.1941382 α      lambda       -0.2334106E-04
   maximum displ.:     0.1252970 α      in ANC's #2, #1, #3, ...
 * RMSD in coord.:     0.6146001 α      energy gain  -0.5305858E-03 Eh

generating ANC from model Hessian ...
Using Lindh-Hessian (1995)
 Shifting diagonal of input Hessian by   9.798508044504217E-003
 Lowest  eigenvalues of input Hessian
    0.000000    0.000000    0.000000    0.000000    0.000000    0.000000
    0.010000    0.010084    0.010328    0.011236    0.011523    0.011971
    0.012417    0.012832    0.014082    0.015401    0.016145    0.016894
 Highest eigenvalues
    2.056814    2.202648    2.220296    2.387558    2.403967    2.490285
 

........................................................................
.............................. CYCLE   43 ..............................
........................................................................
   1    -83.9791398 -0.839791E+02  0.248E-03    2.79       0.0  T
   2    -83.9791399 -0.157344E-06  0.112E-03    2.79      13.7  T
   3    -83.9791400 -0.187518E-07  0.579E-04    2.79      26.3  T
   4    -83.9791400 -0.109549E-08  0.133E-04    2.79     114.4  T
   5    -83.9791400 -0.118760E-09  0.409E-05    2.79     372.6  T
     SCC iter.                  ...        0 min,  0.018 sec
     gradient                   ...        0 min,  0.093 sec
 * total energy  :   -83.1782731 Eh     change       -0.1779900E-04 Eh
   gradient norm :     0.0028312 Eh/α   predicted     0.0000000E+00 (-100.00%)
   displ. norm   :     0.0201874 α      lambda       -0.2177841E-04
   maximum displ.:     0.0078696 α      in ANC's #3, #5, #26, ...

........................................................................
.............................. CYCLE   44 ..............................
........................................................................
   1    -83.9804343 -0.839804E+02  0.236E-03    2.79       0.0  T
   2    -83.9804344 -0.608495E-07  0.120E-03    2.79      12.7  T
   3    -83.9804344 -0.268777E-08  0.604E-04    2.79      25.2  T
   4    -83.9804344 -0.297202E-08  0.127E-04    2.79     119.9  T
   5    -83.9804344 -0.320171E-09  0.264E-05    2.79     578.2  T
     SCC iter.                  ...        0 min,  0.017 sec
     gradient                   ...        0 min,  0.087 sec
 * total energy  :   -83.1782887 Eh     change       -0.1554477E-04 Eh
   gradient norm :     0.0009735 Eh/α   predicted    -0.1094932E-04 ( -29.56%)
   displ. norm   :     0.0559738 α      lambda       -0.1517708E-04
   maximum displ.:     0.0235290 α      in ANC's #3, #5, #26, ...

........................................................................
.............................. CYCLE   45 ..............................
........................................................................
   1    -83.9817316 -0.839817E+02  0.279E-03    2.79       0.0  T
   2    -83.9817317 -0.138539E-06  0.130E-03    2.79      11.7  T
   3    -83.9817317 -0.857466E-08  0.712E-04    2.79      21.4  T
   4    -83.9817317 -0.224259E-08  0.174E-04    2.79      87.9  T
   5    -83.9817317 -0.535948E-09  0.388E-05    2.79     393.5  T
     SCC iter.                  ...        0 min,  0.017 sec
     gradient                   ...        0 min,  0.087 sec
 * total energy  :   -83.1783027 Eh     change       -0.1400775E-04 Eh
   gradient norm :     0.0017573 Eh/α   predicted    -0.7600293E-05 ( -45.74%)
   displ. norm   :     0.0744156 α      lambda       -0.1349524E-04
   maximum displ.:     0.0309787 α      in ANC's #3, #5, #26, ...

........................................................................
.............................. CYCLE   46 ..............................
........................................................................
   1    -83.9816117 -0.839816E+02  0.154E-03    2.79       0.0  T
   2    -83.9816118 -0.835440E-07  0.567E-04    2.79      26.9  T
   3    -83.9816118 -0.585788E-08  0.307E-04    2.79      49.6  T
   4    -83.9816118 -0.609816E-09  0.970E-05    2.79     157.3  T
   5    -83.9816118 -0.834177E-10  0.329E-05    2.79     463.8  T
     SCC iter.                  ...        0 min,  0.019 sec
     gradient                   ...        0 min,  0.088 sec
 * total energy  :   -83.1783209 Eh     change       -0.1816539E-04 Eh
   gradient norm :     0.0018858 Eh/α   predicted    -0.6799096E-05 ( -62.57%)
   displ. norm   :     0.3631464 α      lambda       -0.6123284E-04
   maximum displ.:     0.1450548 α      in ANC's #3, #11, #5, ...

........................................................................
.............................. CYCLE   47 ..............................
........................................................................
   1    -83.9786818 -0.839787E+02  0.864E-03    2.78       0.0  T
   2    -83.9786830 -0.110812E-05  0.400E-03    2.78       3.8  T
   3    -83.9786830 -0.750667E-07  0.199E-03    2.79       7.7  T
   4    -83.9786831 -0.283258E-07  0.451E-04    2.79      33.8  T
   5    -83.9786831 -0.190992E-08  0.157E-04    2.79      97.2  T
   6    -83.9786831 -0.218108E-09  0.341E-05    2.79     447.5  T
     SCC iter.                  ...        0 min,  0.021 sec
     gradient                   ...        0 min,  0.065 sec
 * total energy  :   -83.1783352 Eh     change       -0.1431467E-04 Eh
   gradient norm :     0.0053113 Eh/α   predicted    -0.3241434E-04 ( 126.44%)
   displ. norm   :     0.1043940 α      lambda       -0.5655923E-04
   maximum displ.:     0.0402907 α      in ANC's #3, #5, #26, ...

........................................................................
.............................. CYCLE   48 ..............................
........................................................................
   1    -83.9800403 -0.839800E+02  0.430E-03    2.79       0.0  T
   2    -83.9800405 -0.175586E-06  0.218E-03    2.79       7.0  T
   3    -83.9800405 -0.781270E-08  0.943E-04    2.79      16.2  T
   4    -83.9800405 -0.723307E-08  0.206E-04    2.79      73.9  T
   5    -83.9800405 -0.387132E-09  0.644E-05    2.79     236.8  T
   6    -83.9800405 -0.658105E-10  0.147E-05    2.79    1038.5  T
     SCC iter.                  ...        0 min,  0.022 sec
     gradient                   ...        0 min,  0.087 sec
 * total energy  :   -83.1783663 Eh     change       -0.3115209E-04 Eh
   gradient norm :     0.0020255 Eh/α   predicted    -0.2858934E-04 (  -8.23%)
   displ. norm   :     0.0225615 α      lambda       -0.1200952E-04
   maximum displ.:     0.0119661 α      in ANC's #11, #18, #2, ...

........................................................................
.............................. CYCLE   49 ..............................
........................................................................
   1    -83.9802990 -0.839803E+02  0.109E-03    2.79       0.0  T
   2    -83.9802990 -0.309373E-07  0.477E-04    2.79      31.9  T
   3    -83.9802990 -0.148238E-08  0.261E-04    2.79      58.5  T
   4    -83.9802990 -0.175092E-09  0.696E-05    2.79     219.0  T
   5    -83.9802990 -0.591456E-10  0.180E-05    2.79     849.1  T
     SCC iter.                  ...        0 min,  0.018 sec
     gradient                   ...        0 min,  0.088 sec
 * total energy  :   -83.1783769 Eh     change       -0.1054946E-04 Eh
   gradient norm :     0.0012826 Eh/α   predicted    -0.6010182E-05 ( -43.03%)
   displ. norm   :     0.2198207 α      lambda       -0.4820871E-04
   maximum displ.:     0.1221215 α      in ANC's #11, #2, #3, ...

........................................................................
.............................. CYCLE   50 ..............................
........................................................................
   1    -83.9806769 -0.839807E+02  0.485E-03    2.79       0.0  T
   2    -83.9806779 -0.937813E-06  0.158E-03    2.79       9.6  T
   3    -83.9806779 -0.436365E-07  0.822E-04    2.79      18.5  T
   4    -83.9806779 -0.306693E-08  0.316E-04    2.79      48.3  T
   5    -83.9806779 -0.707715E-09  0.806E-05    2.79     189.3  T
   6    -83.9806779 -0.469669E-10  0.262E-05    2.79     582.7  T
     SCC iter.                  ...        0 min,  0.021 sec
     gradient                   ...        0 min,  0.088 sec
 * total energy  :   -83.1784233 Eh     change       -0.4643603E-04 Eh
   gradient norm :     0.0022055 Eh/α   predicted    -0.2466397E-04 ( -46.89%)
   displ. norm   :     0.2147625 α      lambda       -0.3833732E-04
   maximum displ.:     0.1128426 α      in ANC's #11, #3, #2, ...

........................................................................
.............................. CYCLE   51 ..............................
........................................................................
   1    -83.9791266 -0.839791E+02  0.486E-03    2.78       0.0  T
   2    -83.9791268 -0.193848E-06  0.245E-03    2.78       6.2  T
   3    -83.9791268 -0.505682E-08  0.990E-04    2.78      15.4  T
   4    -83.9791268 -0.109504E-07  0.248E-04    2.78      61.5  T
   5    -83.9791268 -0.972790E-09  0.853E-05    2.78     178.7  T
   6    -83.9791268 -0.659242E-10  0.197E-05    2.78     773.4  T
     SCC iter.                  ...        0 min,  0.022 sec
     gradient                   ...        0 min,  0.088 sec
 * total energy  :   -83.1784416 Eh     change       -0.1830421E-04 Eh
   gradient norm :     0.0046687 Eh/α   predicted    -0.2017616E-04 (  10.23%)
   displ. norm   :     0.0214038 α      lambda       -0.2357218E-04
   maximum displ.:     0.0104941 α      in ANC's #5, #3, #19, ...

........................................................................
.............................. CYCLE   52 ..............................
........................................................................
   1    -83.9797175 -0.839797E+02  0.240E-03    2.78       0.0  T
   2    -83.9797176 -0.699212E-07  0.115E-03    2.78      13.3  T
   3    -83.9797176 -0.530294E-08  0.616E-04    2.78      24.8  T
   4    -83.9797176 -0.236868E-08  0.133E-04    2.78     114.3  T
   5    -83.9797176 -0.320540E-09  0.343E-05    2.78     444.1  T
     SCC iter.                  ...        0 min,  0.020 sec
     gradient                   ...        0 min,  0.087 sec
 * total energy  :   -83.1784584 Eh     change       -0.1679851E-04 Eh
   gradient norm :     0.0027262 Eh/α   predicted    -0.1179357E-04 ( -29.79%)
   displ. norm   :     0.1330497 α      lambda       -0.3586244E-04
   maximum displ.:     0.0678980 α      in ANC's #11, #3, #2, ...

........................................................................
.............................. CYCLE   53 ..............................
........................................................................
   1    -83.9796988 -0.839797E+02  0.349E-03    2.78       0.0  T
   2    -83.9796992 -0.482498E-06  0.145E-03    2.78      10.5  T
   3    -83.9796993 -0.776677E-07  0.502E-04    2.78      30.4  T
   4    -83.9796993 -0.212060E-08  0.240E-04    2.78      63.6  T
   5    -83.9796993 -0.258183E-09  0.588E-05    2.78     259.2  T
   6    -83.9796993 -0.676295E-10  0.181E-05    2.78     840.9  T
     SCC iter.                  ...        0 min,  0.023 sec
     gradient                   ...        0 min,  0.088 sec
 * total energy  :   -83.1784835 Eh     change       -0.2511932E-04 Eh
   gradient norm :     0.0021100 Eh/α   predicted    -0.1825456E-04 ( -27.33%)
   displ. norm   :     0.1172858 α      lambda       -0.2607420E-04
   maximum displ.:     0.0548959 α      in ANC's #11, #3, #1, ...

........................................................................
.............................. CYCLE   54 ..............................
........................................................................
   1    -83.9799318 -0.839799E+02  0.346E-03    2.78       0.0  T
   2    -83.9799323 -0.484107E-06  0.147E-03    2.77      10.4  T
   3    -83.9799324 -0.789487E-07  0.475E-04    2.77      32.1  T
   4    -83.9799324 -0.168507E-08  0.234E-04    2.77      65.3  T
   5    -83.9799324 -0.288466E-09  0.536E-05    2.77     284.3  T
   6    -83.9799324 -0.598561E-10  0.179E-05    2.77     852.8  T
     SCC iter.                  ...        0 min,  0.022 sec
     gradient                   ...        0 min,  0.088 sec
 * total energy  :   -83.1785023 Eh     change       -0.1875997E-04 Eh
   gradient norm :     0.0022196 Eh/α   predicted    -0.1322172E-04 ( -29.52%)
   displ. norm   :     0.1089681 α      lambda       -0.1992896E-04
   maximum displ.:     0.0478043 α      in ANC's #11, #3, #1, ...

........................................................................
.............................. CYCLE   55 ..............................
........................................................................
   1    -83.9801818 -0.839802E+02  0.233E-03    2.77       0.0  T
   2    -83.9801820 -0.192462E-06  0.104E-03    2.77      14.7  T
   3    -83.9801821 -0.334648E-07  0.414E-04    2.77      36.8  T
   4    -83.9801821 -0.909182E-09  0.154E-04    2.77      99.2  T
   5    -83.9801821 -0.194873E-09  0.414E-05    2.77     368.5  T
     SCC iter.                  ...        0 min,  0.019 sec
     gradient                   ...        0 min,  0.088 sec
 * total energy  :   -83.1785170 Eh     change       -0.1470966E-04 Eh
   gradient norm :     0.0026789 Eh/α   predicted    -0.1008600E-04 ( -31.43%)
   displ. norm   :     0.1059307 α      lambda       -0.2355672E-04
   maximum displ.:     0.0405387 α      in ANC's #11, #1, #26, ...

........................................................................
.............................. CYCLE   56 ..............................
........................................................................
   1    -83.9807964 -0.839808E+02  0.198E-03    2.77       0.0  T
   2    -83.9807965 -0.792286E-07  0.917E-04    2.77      16.6  T
   3    -83.9807965 -0.475249E-08  0.478E-04    2.77      31.9  T
   4    -83.9807965 -0.590560E-09  0.114E-04    2.77     133.3  T
   5    -83.9807965 -0.281730E-09  0.369E-05    2.77     413.8  T
     SCC iter.                  ...        0 min,  0.019 sec
     gradient                   ...        0 min,  0.088 sec
 * total energy  :   -83.1785345 Eh     change       -0.1745266E-04 Eh
   gradient norm :     0.0026515 Eh/α   predicted    -0.1191335E-04 ( -31.74%)
   displ. norm   :     0.3579441 α      lambda       -0.4938064E-04
   maximum displ.:     0.1625195 α      in ANC's #11, #1, #3, ...

........................................................................
.............................. CYCLE   57 ..............................
........................................................................
   1    -83.9778438 -0.839778E+02  0.101E-02    2.77       0.0  T
   2    -83.9778443 -0.455019E-06  0.518E-03    2.77       2.9  T
   3    -83.9778443 -0.126238E-07  0.158E-03    2.77       9.6  T
   4    -83.9778443 -0.175673E-07  0.384E-04    2.77      39.8  T
   5    -83.9778443 -0.165136E-08  0.119E-04    2.77     128.4  T
   6    -83.9778443 -0.151502E-09  0.260E-05    2.77     587.1  T
     SCC iter.                  ...        0 min,  0.017 sec
     gradient                   ...        0 min,  0.066 sec
 * total energy  :   -83.1784575 Eh     change        0.7697852E-04 Eh
   gradient norm :     0.0098224 Eh/α   predicted    -0.2785541E-04 (-136.19%)
   displ. norm   :     0.2180951 α      lambda       -0.2761529E-03
   maximum displ.:     0.1048868 α      in ANC's #11, #3, #26, ...

........................................................................
.............................. CYCLE   58 ..............................
........................................................................
   1    -83.9810933 -0.839811E+02  0.108E-02    2.78       0.0  T
   2    -83.9810937 -0.444540E-06  0.580E-03    2.78       2.6  T
   3    -83.9810937  0.397041E-07  0.229E-03    2.78       6.7  T
   4    -83.9810938 -0.115785E-06  0.458E-04    2.78      33.3  T
   5    -83.9810938 -0.163048E-08  0.107E-04    2.78     143.2  T
   6    -83.9810938 -0.310010E-09  0.259E-05    2.78     587.8  T
     SCC iter.                  ...        0 min,  0.023 sec
     gradient                   ...        0 min,  0.088 sec
 * total energy  :   -83.1785608 Eh     change       -0.1033488E-03 Eh
   gradient norm :     0.0017261 Eh/α   predicted    -0.1446512E-03 (  39.96%)
   displ. norm   :     0.0617820 α      lambda       -0.1026049E-04
   maximum displ.:     0.0306010 α      in ANC's #11, #6, #1, ...

........................................................................
.............................. CYCLE   59 ..............................
........................................................................
   1    -83.9807742 -0.839808E+02  0.210E-03    2.78       0.0  T
   2    -83.9807744 -0.145430E-06  0.980E-04    2.78      15.6  T
   3    -83.9807744 -0.294571E-07  0.418E-04    2.78      36.5  T
   4    -83.9807744 -0.690335E-09  0.136E-04    2.78     112.0  T
   5    -83.9807744 -0.110859E-09  0.312E-05    2.78     488.7  T
     SCC iter.                  ...        0 min,  0.019 sec
     gradient                   ...        0 min,  0.088 sec
 * total energy  :   -83.1785742 Eh     change       -0.1335862E-04 Eh
   gradient norm :     0.0010318 Eh/α   predicted    -0.5139267E-05 ( -61.53%)
   displ. norm   :     0.4102345 α      lambda       -0.4892538E-04
   maximum displ.:     0.1942161 α      in ANC's #11, #6, #1, ...

........................................................................
.............................. CYCLE   60 ..............................
........................................................................
   1    -83.9774932 -0.839775E+02  0.128E-02    2.79       0.0  T
   2    -83.9774960 -0.286768E-05  0.642E-03    2.79       2.4  T
   3    -83.9774966 -0.534368E-06  0.350E-03    2.79       4.4  T
   4    -83.9774967 -0.857171E-07  0.664E-04    2.79      23.0  T
   5    -83.9774967 -0.366380E-08  0.170E-04    2.79      89.6  T
   6    -83.9774967 -0.483311E-09  0.505E-05    2.79     301.9  T
     SCC iter.                  ...        0 min,  0.023 sec
     gradient                   ...        0 min,  0.087 sec
 * total energy  :   -83.1785199 Eh     change        0.5428011E-04 Eh
   gradient norm :     0.0096371 Eh/α   predicted    -0.2627651E-04 (-148.41%)
   displ. norm   :     0.1906134 α      lambda       -0.1936484E-03
   maximum displ.:     0.0890719 α      in ANC's #11, #6, #1, ...

........................................................................
.............................. CYCLE   61 ..............................
........................................................................
   1    -83.9799654 -0.839800E+02  0.802E-03    2.79       0.0  T
   2    -83.9799658 -0.339297E-06  0.424E-03    2.79       3.6  T
   3    -83.9799658  0.721637E-08  0.196E-03    2.79       7.8  T
   4    -83.9799658 -0.717525E-07  0.346E-04    2.79      44.0  T
   5    -83.9799658 -0.998455E-09  0.795E-05    2.79     191.8  T
   6    -83.9799658 -0.758007E-10  0.202E-05    2.79     754.8  T
     SCC iter.                  ...        0 min,  0.023 sec
     gradient                   ...        0 min,  0.087 sec
 * total energy  :   -83.1786071 Eh     change       -0.8721279E-04 Eh
   gradient norm :     0.0028114 Eh/α   predicted    -0.1004862E-03 (  15.22%)
   displ. norm   :     0.0262039 α      lambda       -0.1049933E-04
   maximum displ.:     0.0125582 α      in ANC's #6, #2, #11, ...

........................................................................
.............................. CYCLE   62 ..............................
........................................................................
   1    -83.9802835 -0.839803E+02  0.931E-04    2.79       0.0  T
   2    -83.9802835 -0.100695E-07  0.456E-04    2.79      33.5  T
   3    -83.9802835 -0.197332E-09  0.201E-04    2.79      75.7  T
   4    -83.9802835 -0.197460E-09  0.446E-05    2.79     342.0  T
   5    -83.9802835 -0.371330E-10  0.124E-05    2.79    1230.5  T
     SCC iter.                  ...        0 min,  0.019 sec
     gradient                   ...        0 min,  0.087 sec
 * total energy  :   -83.1786165 Eh     change       -0.9343750E-05 Eh
   gradient norm :     0.0021483 Eh/α   predicted    -0.5244260E-05 ( -43.87%)
   displ. norm   :     0.1612469 α      lambda       -0.4546384E-04
   maximum displ.:     0.0764569 α      in ANC's #6, #11, #1, ...

........................................................................
.............................. CYCLE   63 ..............................
........................................................................
   1    -83.9809777 -0.839810E+02  0.289E-03    2.79       0.0  T
   2    -83.9809778 -0.176236E-06  0.126E-03    2.79      12.1  T
   3    -83.9809778 -0.826574E-08  0.669E-04    2.79      22.8  T
   4    -83.9809778 -0.175450E-08  0.168E-04    2.79      90.9  T
   5    -83.9809778 -0.303345E-09  0.386E-05    2.79     395.1  T
     SCC iter.                  ...        0 min,  0.019 sec
     gradient                   ...        0 min,  0.087 sec
 * total energy  :   -83.1786484 Eh     change       -0.3195951E-04 Eh
   gradient norm :     0.0007994 Eh/α   predicted    -0.2298119E-04 ( -28.09%)
   displ. norm   :     0.3499814 α      lambda       -0.3419150E-04
   maximum displ.:     0.1633950 α      in ANC's #6, #11, #1, ...

........................................................................
.............................. CYCLE   64 ..............................
........................................................................
   1    -83.9793006 -0.839793E+02  0.637E-03    2.80       0.0  T
   2    -83.9793011 -0.469797E-06  0.315E-03    2.80       4.8  T
   3    -83.9793011 -0.203717E-07  0.150E-03    2.80      10.2  T
   4    -83.9793011 -0.197399E-07  0.323E-04    2.80      47.3  T
   5    -83.9793011 -0.993992E-09  0.982E-05    2.80     155.3  T
   6    -83.9793011 -0.913474E-10  0.274E-05    2.80     557.5  T
     SCC iter.                  ...        0 min,  0.023 sec
     gradient                   ...        0 min,  0.087 sec
 * total energy  :   -83.1786441 Eh     change        0.4348682E-05 Eh
   gradient norm :     0.0050071 Eh/α   predicted    -0.1752509E-04 (-503.00%)
   displ. norm   :     0.1192893 α      lambda       -0.4971884E-04
   maximum displ.:     0.0572648 α      in ANC's #6, #11, #1, ...

........................................................................
.............................. CYCLE   65 ..............................
........................................................................
   1    -83.9806770 -0.839807E+02  0.416E-03    2.80       0.0  T
   2    -83.9806771 -0.109543E-06  0.216E-03    2.80       7.1  T
   3    -83.9806771 -0.147386E-08  0.896E-04    2.80      17.0  T
[...]
 O  C  Rav=1.3008 sigma=0.0773  Rmin=1.2052  Rmax=1.4378     8
 
 selected bond angles (degree)
 --------------------
H26-C1-O2=109.67               H27-C1-O2=109.68               H27-C1-H26=109.70              H28-C1-O2=106.21               
H28-C1-H26=110.77              H28-C1-H27=110.75              C3-O2-C1=117.08                O4-C3-O2=124.91                
C5-C3-O2=111.54                C5-C3-O4=123.53                C6-C5-C3=121.20                N24-C5-C3=118.84               
N24-C5-C6=119.78               O7-C6-C5=123.11                C8-C6-C5=120.43                C8-C6-O7=116.45                
H29-O7-C6=110.60               O9-C8-C6=124.42                N10-C8-C6=113.21               N10-C8-O9=122.37               
C11-N10-C8=126.45              H30-N10-C8=114.13              H30-N10-C11=119.41             
 
 selected dihedral angles (degree)
 ---------------------------------
C3-O2-C1-H26=304.44           C3-O2-C1-H27= 64.97           C3-O2-C1-H28=184.70           O4-C3-O2-C1=  0.41            
C5-C3-O2-C1=182.02            C6-C5-C3-O2= 42.42            C6-C5-C3-O4=224.00            N24-C5-C3-O2=217.45           
N24-C5-C3-O4= 39.03           O7-C6-C5-C3=355.99            O7-C6-C5-N24=181.01           C8-C6-C5-C3=174.58            
C8-C6-C5-N24=359.59           H29-O7-C6-C5=181.09           H29-O7-C6-C8=  2.45           O9-C8-C6-C5=178.67            
O9-C8-C6-O7=357.35            N10-C8-C6-C5=358.23           N10-C8-C6-O7=176.91           C11-N10-C8-C6=  0.71          
C11-N10-C8-O9=180.29          H30-N10-C8-C6=180.76          H30-N10-C8-O9=  0.33          
           -------------------------------------------------
          |                Final Singlepoint                |
           -------------------------------------------------

          ...................................................
          :                      SETUP                      :
          :.................................................:
          :  # basis functions                 136          :
          :  # atomic orbitals                 136          :
          :  # shells                           86          :
          :  # electrons                       134          :
          :  # halogen bonds                     0          :
          :  max. iterations                   250          :
          :  Hamiltonian                  GFN1-xTB          :
          :  restarted?                      false          :
          :  GBSA solvation                   true          :
          :  PC potential                    false          :
          :  electronic temp.          300.0000000     K    :
          :  accuracy                    1.0000000          :
          :  -> integral cutoff          0.2500000E+02      :
          :  -> integral neglect         0.1000000E-07      :
          :  -> SCF convergence          0.1000000E-05 Eh   :
          :  -> wf. convergence          0.2000000E-04 e    :
          :  Broyden damping             0.4000000          :
          ...................................................

 iter      E             dE          RMSdq      gap      omega  full diag
   1    -83.9809527 -0.839810E+02  0.559E-06    2.80       0.0  T
   2    -83.9809527 -0.611067E-12  0.258E-06    2.80    5909.4  T
   3    -83.9809527 -0.426326E-13  0.145E-06    2.80   10486.7  T

   *** convergence criteria satisfied after 3 iterations ***

         #    Occupation            Energy/Eh            Energy/eV
      -------------------------------------------------------------
         1        2.0000           -0.8912225             -24.2514
       ...           ...                  ...                  ...
        61        2.0000           -0.5000594             -13.6073
        62        2.0000           -0.4976340             -13.5413
        63        2.0000           -0.4889125             -13.3040
        64        2.0000           -0.4814808             -13.1018
        65        2.0000           -0.4761092             -12.9556
        66        2.0000           -0.4652873             -12.6611
        67        2.0000           -0.4634541             -12.6112 (HOMO)
        68                         -0.3606282              -9.8132 (LUMO)
        69                         -0.3527255              -9.5981
        70                         -0.3320265              -9.0349
        71                         -0.2863518              -7.7920
        72                         -0.2670412              -7.2666
       ...                                ...                  ...
       136                          0.7090517              19.2943
      -------------------------------------------------------------
                  HL-Gap            0.1028259 Eh            2.7980 eV
             Fermi-level           -0.4120412 Eh          -11.2122 eV

 SCC (total)                   0 d,  0 h,  0 min,  0.140 sec
 SCC setup                      ...        0 min,  0.002 sec (  1.451%)
 Dispersion                     ...        0 min,  0.000 sec (  0.256%)
 classical contributions        ...        0 min,  0.000 sec (  0.084%)
 integral evaluation            ...        0 min,  0.037 sec ( 26.448%)
 iterations                     ...        0 min,  0.012 sec (  8.682%)
 molecular gradient             ...        0 min,  0.087 sec ( 62.364%)
 printout                       ...        0 min,  0.001 sec (  0.676%)

         :::::::::::::::::::::::::::::::::::::::::::::::::::::
         ::                     SUMMARY                     ::
         :::::::::::::::::::::::::::::::::::::::::::::::::::::
         :: total energy             -83.178673863262 Eh    ::
         :: total w/o Gsasa/hb       -83.152950035585 Eh    ::
         :: gradient norm              0.000596561855 Eh/a0 ::
         :: HOMO-LUMO gap              2.798036474674 eV    ::
         ::.................................................::
         :: SCC energy               -83.980952726548 Eh    ::
         :: -> electrostatic           0.417514727354 Eh    ::
         :: -> Gsolv                  -0.118856122065 Eh    ::
         ::    -> Gelec               -0.093132294387 Eh    ::
         ::    -> Gsasa               -0.023782735766 Eh    ::
         ::    -> Ghb                 -0.009565370916 Eh    ::
         ::    -> Gshift               0.007624279005 Eh    ::
         :: repulsion energy           0.830562368475 Eh    ::
         :: dispersion energy         -0.028283505189 Eh    ::
         :: halogen bond corr.         0.000000000000 Eh    ::
         :: add. restraining           0.000000000000 Eh    ::
         :: total charge               1.000000000000 e     ::
         :::::::::::::::::::::::::::::::::::::::::::::::::::::

           -------------------------------------------------
          |                Property Printout                |
           -------------------------------------------------

    * Orbital Energies and Occupations

         #    Occupation            Energy/Eh            Energy/eV
      -------------------------------------------------------------
         1        2.0000           -0.8912225             -24.2514
       ...           ...                  ...                  ...
        55        2.0000           -0.5358372             -14.5809
        56        2.0000           -0.5340234             -14.5315
        57        2.0000           -0.5298193             -14.4171
        58        2.0000           -0.5218799             -14.2011
        59        2.0000           -0.5198449             -14.1457
        60        2.0000           -0.5175538             -14.0834
        61        2.0000           -0.5000594             -13.6073
        62        2.0000           -0.4976340             -13.5413
        63        2.0000           -0.4889125             -13.3040
        64        2.0000           -0.4814808             -13.1018
        65        2.0000           -0.4761092             -12.9556
        66        2.0000           -0.4652873             -12.6611
        67        2.0000           -0.4634541             -12.6112 (HOMO)
        68                         -0.3606282              -9.8132 (LUMO)
        69                         -0.3527255              -9.5981
        70                         -0.3320265              -9.0349
        71                         -0.2863518              -7.7920
        72                         -0.2670412              -7.2666
        73                         -0.2186423              -5.9496
        74                         -0.2168349              -5.9004
        75                         -0.1648528              -4.4859
        76                         -0.1575440              -4.2870
        77                         -0.1518096              -4.1309
        78                         -0.1495837              -4.0704
       ...                                ...                  ...
       136                          0.7090517              19.2943
      -------------------------------------------------------------
                  HL-Gap            0.1028259 Eh            2.7980 eV
             Fermi-level           -0.4120412 Eh          -11.2122 eV

  Mulliken/CM5 charges         n(s)   n(p)   n(d)
     1C     0.15887  0.03739   0.987  2.854  0.000
     2O    -0.39030 -0.47571   1.681  4.710  0.000
     3C     0.59328  0.65889   0.958  2.449  0.000
     4O    -0.53427 -0.58805   1.720  4.814  0.000
     5C     0.06094  0.13210   1.048  2.891  0.000
     6C     0.25621  0.29108   1.018  2.726  0.000
     7O    -0.48558 -0.67900   1.688  4.798  0.000
     8C     0.46503  0.56550   0.985  2.550  0.000
     9O    -0.51908 -0.56549   1.719  4.800  0.000
    10N    -0.25569 -0.60759   1.432  3.824  0.000
    11C     0.30910  0.45791   1.031  2.660  0.000
    12C     0.15065  0.18970   1.069  2.781  0.000
    13C    -0.11788 -0.26022   1.029  3.089  0.000
    14C    -0.12365 -0.26427   1.031  3.093  0.000
    15N    -0.35623 -0.72014   1.442  3.914  0.000
    16C     0.46981  0.57749   0.983  2.547  0.000
    17O    -0.57468 -0.61523   1.729  4.845  0.000
    18C     0.33215  0.45782   0.998  2.670  0.000
    19N    -0.20610 -0.30991   1.564  3.642  0.000
    20N    -0.25691 -0.36412   1.561  3.696  0.000
    21C     0.39778  0.50601   1.011  2.591  0.000
    22C    -0.11245 -0.24970   1.013  3.099  0.000
    23O    -0.35341 -0.41011   1.695  4.658  0.000
    24N    -0.11929 -0.37546   1.444  3.675  0.000
    25C     0.03355 -0.05461   1.004  2.963  0.000
    26H     0.06498  0.12713   0.935  0.000  0.000
    27H     0.06567  0.12689   0.934  0.000  0.000
    28H     0.06907  0.12947   0.931  0.000  0.000
    29H     0.43240  0.60970   0.568  0.000  0.000
    30H     0.30643  0.50855   0.694  0.000  0.000
    31H     0.06765  0.12467   0.932  0.000  0.000
    32H     0.08564  0.14120   0.914  0.000  0.000
    33H     0.07021  0.12497   0.930  0.000  0.000
    34H     0.07302  0.13443   0.927  0.000  0.000
    35H     0.08142  0.13861   0.919  0.000  0.000
    36H     0.06537  0.12150   0.935  0.000  0.000
    37H     0.29053  0.49467   0.709  0.000  0.000
    38H     0.07483  0.13036   0.925  0.000  0.000
    39H     0.08612  0.14036   0.914  0.000  0.000
    40H     0.08437  0.13929   0.916  0.000  0.000
    41H     0.07714  0.15201   0.923  0.000  0.000
    42H     0.09540  0.16594   0.905  0.000  0.000
    43H     0.08791  0.15598   0.912  0.000  0.000

Wiberg/Mayer (AO) data.
largest (>0.10) Wiberg bond orders for each atom

 ---------------------------------------------------------------------------
     #   Z sym  total        # sym  WBO       # sym  WBO       # sym  WBO
 ---------------------------------------------------------------------------
     1   6 C    3.848 --    28 H    0.984    26 H    0.979    27 H    0.978
                             2 O    0.874
     2   8 O    2.236 --     3 C    1.166     1 C    0.874     4 O    0.147
     3   6 C    3.864 --     4 O    1.668     2 O    1.166     5 C    0.958
     4   8 O    1.958 --     3 C    1.668     2 O    0.147
     5   6 C    3.923 --     6 C    1.540    24 N    1.080     3 C    0.958
     6   6 C    3.927 --     5 C    1.540     7 O    1.137     8 C    1.041
     7   8 O    2.106 --     6 C    1.137    29 H    0.792
     8   6 C    3.903 --     9 O    1.652    10 N    1.082     6 C    1.041
     9   8 O    1.961 --     8 C    1.652    10 N    0.119
    10   7 N    3.492 --    11 C    1.271     8 C    1.082    30 H    0.863
                             9 O    0.119
    11   6 C    3.898 --    24 N    1.390    10 N    1.271    12 C    0.975
    12   6 C    3.933 --    14 C    0.986    11 C    0.975    13 C    0.973
                            15 N    0.941
    13   6 C    3.980 --    33 H    0.982    32 H    0.976    31 H    0.976
                            12 C    0.973
    14   6 C    3.983 --    12 C    0.986    34 H    0.979    36 H    0.978
                            35 H    0.977
    15   7 N    3.318 --    16 C    1.218    12 C    0.941    37 H    0.881
                            17 O    0.160
    16   6 C    3.909 --    17 O    1.582    15 N    1.218    18 C    1.014
    17   8 O    1.916 --    16 C    1.582    15 N    0.160
    18   6 C    3.879 --    19 N    1.606    23 O    1.046    16 C    1.014
    19   7 N    3.008 --    18 C    1.606    20 N    1.214
    20   7 N    2.983 --    21 C    1.594    19 N    1.214
    21   6 C    3.863 --    20 N    1.594    23 O    1.077    22 C    1.034
    22   6 C    3.984 --    21 C    1.034    38 H    0.981    40 H    0.966
                            39 H    0.956
    23   8 O    2.320 --    21 C    1.077    18 C    1.046
    24   7 N    3.582 --    11 C    1.390     5 C    1.080    25 C    0.908
    25   6 C    3.892 --    43 H    0.975    41 H    0.973    42 H    0.965
                            24 N    0.908
    26   1 H    1.003 --     1 C    0.979
    27   1 H    1.002 --     1 C    0.978
    28   1 H    1.007 --     1 C    0.984
    29   1 H    0.823 --     7 O    0.792
    30   1 H    0.916 --    10 N    0.863
    31   1 H    0.997 --    13 C    0.976
    32   1 H    0.991 --    13 C    0.976
    33   1 H    0.996 --    13 C    0.982
    34   1 H    0.997 --    14 C    0.979
    35   1 H    0.995 --    14 C    0.977
    36   1 H    0.994 --    14 C    0.978
    37   1 H    0.921 --    15 N    0.881
    38   1 H    0.997 --    22 C    0.981
    39   1 H    0.995 --    22 C    0.956
    40   1 H    0.995 --    22 C    0.966
    41   1 H    1.006 --    25 C    0.973
    42   1 H    1.004 --    25 C    0.965
    43   1 H    0.996 --    25 C    0.975
 ---------------------------------------------------------------------------

Topologies differ in total number of bonds
Writing topology from bond orders to xtbtopo.mol

 dipole moment from electron density (au)
     X       Y       Z   
   0.4841   4.0542  -2.7082  total (Debye):   12.453

           -------------------------------------------------
          |                Geometry Summary                 |
           -------------------------------------------------

      molecular mass/u    :      352.3231817
   center of mass at/Å    :       -0.2099463      -0.1400394       0.3290384
  moments of inertia/u·Å² :        0.1440526E+04   0.3681441E+04   0.4408493E+04
rotational constants/cm⁻¹ :        0.1170242E-01   0.4579085E-02   0.3823899E-02

 * 39 selected distances

     #   Z          #   Z                                           value/Å
     1   6 C        2   8 O                                       1.4378317
     2   8 O        3   6 C                                       1.3142382
     3   6 C        4   8 O                                       1.2052175
     5   6 C        6   6 C                                       1.3620732
     6   6 C        7   8 O                                       1.3266611
     8   6 C        9   8 O                                       1.2085219
     8   6 C       10   7 N                                       1.3871100
    10   7 N       11   6 C                                       1.3422918
    12   6 C       13   6 C                                       1.5340429
    12   6 C       14   6 C                                       1.5368833 (max)
    12   6 C       15   7 N                                       1.4583148
    15   7 N       16   6 C                                       1.3599787
    16   6 C       17   8 O                                       1.2213741
    18   6 C       19   7 N                                       1.2973109
    20   7 N       21   6 C                                       1.2990645
    21   6 C       22   6 C                                       1.4779217
    18   6 C       23   8 O                                       1.3505183
    21   6 C       23   8 O                                       1.3418515
     5   6 C       24   7 N                                       1.3994599
    11   6 C       24   7 N                                       1.3268039
    24   7 N       25   6 C                                       1.4692264
     1   6 C       26   1 H                                       1.0912220
     1   6 C       27   1 H                                       1.0916587
     1   6 C       28   1 H                                       1.0875820
     7   8 O       29   1 H                                       0.9744088 (min)
    10   7 N       30   1 H                                       1.0109085
    13   6 C       31   1 H                                       1.0867922
    13   6 C       32   1 H                                       1.0882781
    13   6 C       33   1 H                                       1.0886957
    14   6 C       34   1 H                                       1.0888959
    14   6 C       35   1 H                                       1.0885185
    14   6 C       36   1 H                                       1.0880780
    15   7 N       37   1 H                                       1.0067450
    22   6 C       38   1 H                                       1.0882254
    22   6 C       39   1 H                                       1.0908641
    22   6 C       40   1 H                                       1.0893531
    25   6 C       41   1 H                                       1.0806689
    25   6 C       42   1 H                                       1.0895399
    25   6 C       43   1 H                                       1.0872680

 * 6 distinct bonds (by element types)

   Z      Z             #   av. dist./Å        max./Å        min./Å
   1 H    6 C          15     1.0883760     1.0916587     1.0806689
   6 C    6 C           4     1.4777303     1.5368833     1.3620732
   1 H    7 N           2     1.0088267     1.0109085     1.0067450
   6 C    7 N           9     1.3710623     1.4692264     1.2973109
   1 H    8 O           1     0.9744088     0.9744088     0.9744088
   6 C    8 O           8     1.3007768     1.4378317     1.2052175


optimized geometry written to: xtbopt.xyz


           -------------------------------------------------
          | TOTAL ENERGY              -83.178673863262 Eh   |
          | GRADIENT NORM               0.000596561855 Eh/α |
          | HOMO-LUMO GAP               2.798036474674 eV   |
           -------------------------------------------------

------------------------------------------------------------------------
 * finished run on 2023/06/20 at 15:23:49.023     
------------------------------------------------------------------------
 total:
 * wall-time:     0 d,  0 h,  0 min, 10.295 sec
 *  cpu-time:     0 d,  0 h,  0 min, 10.192 sec
 * ratio c/w:     0.990 speedup
 SCF:
 * wall-time:     0 d,  0 h,  0 min,  0.172 sec
 *  cpu-time:     0 d,  0 h,  0 min,  0.171 sec
 * ratio c/w:     0.994 speedup
 ANC optimizer:
 * wall-time:     0 d,  0 h,  0 min, 10.004 sec
 *  cpu-time:     0 d,  0 h,  0 min,  9.967 sec
 * ratio c/w:     0.996 speedup

