43
 energy: -83.178673863262 gnorm: 0.000596561855 xtb: 6.5.1 (579679a)
C           -4.93079442383016       -2.36790808151505       -1.59357919999459
O           -4.31646408177933       -1.25620791699722       -0.91972413749046
C           -3.03011560049829       -1.34701710548412       -0.66618312125258
O           -2.33332454023695       -2.28479386576005       -0.96216605194715
C           -2.52508545427096       -0.13489311939254        0.08672036390722
C           -3.24103019825401        0.40890009337323        1.10992861681782
O           -4.44380153075412       -0.02506406042655        1.46354648540209
C           -2.68552374935020        1.50387154194071        1.90168501731976
O           -3.26524256753369        2.05391834481135        2.80827170004301
N           -1.40050293448753        1.85854974333280        1.51828093370670
C           -0.68448036998724        1.30938977005919        0.52455971212566
C            0.69322627103440        1.90875408217340        0.26944035039136
C            0.64233616376656        2.86022325410283       -0.93280912432968
C            1.22845725566427        2.67320637983569        1.49056706619041
N            1.62135767660185        0.81409418972050        0.01064795564973
C            1.62001667955575       -0.23491608015964        0.87616365055300
O            0.73081169712308       -0.40463719594527        1.69608047988523
C            2.75205982189239       -1.15298972784879        0.68456510143866
N            3.01827741594723       -2.25128341126710        1.32166356030496
N            4.17407948765183       -2.73639889542352        0.79990288030443
C            4.54809045514718       -1.90580175142302       -0.12626802777364
C            5.74202321925144       -1.98570159832472       -0.99367370842728
O            3.68940488508235       -0.88202477965999       -0.24917015296158
N           -1.25258230818325        0.36430133254293       -0.21332665719306
C           -0.58861705929287       -0.22633788837445       -1.38333569923923
H           -4.40315961881418       -2.56855847701258       -2.52744547862430
H           -4.89470268387323       -3.25136914814438       -0.95333518421860
H           -5.95989373543976       -2.07434992949592       -1.78751875204020
H           -4.79509687966647        0.50305091672443        2.20324814473825
H           -0.99785197456730        2.60728824243188        2.06527145146054
H            0.33377861309682        2.35493256509055       -1.84417659976913
H            1.63309526880316        3.28355632541253       -1.08621848930683
H           -0.05746277237084        3.66764949656895       -0.72399700961270
H            1.16623077871600        2.05886639046091        2.38745517162823
H            2.27395260397304        2.91186871198660        1.30387994313747
H            0.68986012201546        3.60705295646560        1.63807048367334
H            2.44157671018234        1.01515170150094       -0.53739572391336
H            6.41371874708456       -2.76043055470425       -0.62918174287634
H            5.43957193905571       -2.21904344957373       -2.01546583366176
H            6.25310520908732       -1.02376822360880       -1.00668636003829
H            0.22924172497449        0.40161394373371       -1.70679911813658
H           -0.21074048999513       -1.21272635456456       -1.11623269110811
H           -1.31780077252095       -0.31213536716121       -2.18525920476483
