      -----------------------------------------------------------      
     |                   =====================                   |     
     |                           x T B                           |     
     |                   =====================                   |     
     |                         S. Grimme                         |     
     |          Mulliken Center for Theoretical Chemistry        |     
     |                    University of Bonn                     |     
      -----------------------------------------------------------      

   * xtb version 6.5.1 (579679a) compiled by 'ehlert@majestix' on 2022-07-11

   xtb is free software: you can redistribute it and/or modify it under
   the terms of the GNU Lesser General Public License as published by
   the Free Software Foundation, either version 3 of the License, or
   (at your option) any later version.
   
   xtb is distributed in the hope that it will be useful,
   but WITHOUT ANY WARRANTY; without even the implied warranty of
   MERCHANTABILITY or FITNESS FOR A PARTICULAR PURPOSE.  See the
   GNU Lesser General Public License for more details.
   
   Cite this work as:
   * C. Bannwarth, E. Caldeweyher, S. Ehlert, A. Hansen, P. Pracht,
     J. Seibert, S. Spicher, S. Grimme, WIREs Comput. Mol. Sci., 2020, 11,
     e01493. DOI: 10.1002/wcms.1493
   
   for GFN2-xTB:
   * C. Bannwarth, S. Ehlert and S. Grimme., J. Chem. Theory Comput., 2019,
     15, 1652-1671. DOI: 10.1021/acs.jctc.8b01176
   for GFN1-xTB:
   * S. Grimme, C. Bannwarth, P. Shushkov, J. Chem. Theory Comput., 2017,
     13, 1989-2009. DOI: 10.1021/acs.jctc.7b00118
   for GFN0-xTB:
   * P. Pracht, E. Caldeweyher, S. Ehlert, S. Grimme, ChemRxiv, 2019, preprint.
     DOI: 10.26434/chemrxiv.8326202.v1
   for GFN-FF:
   * S. Spicher and S. Grimme, Angew. Chem. Int. Ed., 2020, 59, 15665-15673.
     DOI: 10.1002/anie.202004239
   
   for ALPB and GBSA implicit solvation:
   * S. Ehlert, M. Stahn, S. Spicher, S. Grimme, J. Chem. Theory Comput.,
     2021, 17, 4250-4261. DOI: 10.1021/acs.jctc.1c00471
   
   for DFT-D4:
   * E. Caldeweyher, C. Bannwarth and S. Grimme, J. Chem. Phys., 2017,
     147, 034112. DOI: 10.1063/1.4993215
   * E. Caldeweyher, S. Ehlert, A. Hansen, H. Neugebauer, S. Spicher,
     C. Bannwarth and S. Grimme, J. Chem. Phys., 2019, 150, 154122.
     DOI: 10.1063/1.5090222
   * E. Caldeweyher, J.-M. Mewes, S. Ehlert and S. Grimme, Phys. Chem. Chem. Phys.
     2020, 22, 8499-8512. DOI: 10.1039/D0CP00502A
   
   for sTDA-xTB:
   * S. Grimme and C. Bannwarth, J. Chem. Phys., 2016, 145, 054103.
     DOI: 10.1063/1.4959605
   
   in the mass-spec context:
   * V. Asgeirsson, C. Bauer and S. Grimme, Chem. Sci., 2017, 8, 4879.
     DOI: 10.1039/c7sc00601b
   * J. Koopman and S. Grimme, ACS Omega 2019, 4, 12, 15120-15133.
     DOI: 10.1021/acsomega.9b02011
   
   for metadynamics refer to:
   * S. Grimme, J. Chem. Theory Comput., 2019, 155, 2847-2862
     DOI: 10.1021/acs.jctc.9b00143
   
   for SPH calculations refer to:
   * S. Spicher and S. Grimme, J. Chem. Theory Comput., 2021, 17, 1701-1714
     DOI: 10.1021/acs.jctc.0c01306
   
   with help from (in alphabetical order)
   P. Atkinson, C. Bannwarth, F. Bohle, G. Brandenburg, E. Caldeweyher
   M. Checinski, S. Dohm, S. Ehlert, S. Ehrlich, I. Gerasimov, C. Hölzer
   A. Katbashev, J. Koopman, C. Lavigne, S. Lehtola, F. März, M. Müller,
   F. Musil, H. Neugebauer, J. Pisarek, C. Plett, P. Pracht, F. Pultar,
   J. Seibert, P. Shushkov, S. Spicher, M. Stahn, M. Steiner, T. Strunk,
   J. Stückrath, T. Rose, and J. Unsleber
   
 * started run on 2023/06/20 at 15:13:25.738     

           -------------------------------------------------
          |                Calculation Setup                |
           -------------------------------------------------

          program call               : /lustre/hpc/kemi/ree/PhD/git/ReactivityQM/dep/xtb-6.5.1/bin/xtb --gfn 1 /lustre/hpc/kemi/ree/PhD/git/ReactivityQM/calculations/R02/reac01prodE11/conf05/R02_reac01prodE11_conf05_gfn1.xyz --opt --vfukui --chrg -1 --uhf 0 --alpb DMSO
          hostname                   : node315
          coordinate file            : /lustre/hpc/kemi/ree/PhD/git/ReactivityQM/calculations/R02/reac01prodE11/conf05/R02_reac01prodE11_conf05_gfn1.xyz
          omp threads                :                     1

   ID    Z sym.   atoms
    1    6 C      1, 3, 5, 7-10, 12, 14, 17-19, 22, 24
    2    8 O      2, 4, 13, 20, 23, 25
    3    7 N      6, 11, 15, 16, 21
    4    1 H      26-43

           -------------------------------------------------
          |                 G F N 1 - x T B                 |
           -------------------------------------------------

        Reference                      10.1021/acs.jctc.7b00118
      * Hamiltonian:
        H0-scaling (s, p, d)           1.850000    2.250000    2.000000
        zeta-weighting                 0.000000
      * Dispersion:
        s8                             2.400000
        a1                             0.630000
        a2                             5.000000
        s9                             0.000000
      * Repulsion:
        kExp                           1.500000
        rExp                           1.000000
      * Coulomb:
        alpha                          2.000000
        third order                    atomic
        anisotropic                    false
      * Halogen bond correction:
        rad-scale                      1.300000
        damping                        0.440000

      * Solvation model:               ALPB
        Solvent                        DMSO
        Parameter file                 internal GFN1-xTB/ALPB
        Dielectric constant                4.6680E+01
        Reference state                gsolv [1 M gas/solution]
        Free energy shift                  7.6243E-03 Eh       4.7843E+00 kcal/mol
        Temperature                        2.9815E+02 K
        Density                            1.1000E+00 kg/L
        Solvent mass                       7.8130E+01 g/mol
        Interaction kernel             P16
        Born radius scaling (c1)           1.7672E+00
        Born radii integrator          GBOBC
        Born offset                        0.0000E+00 a0       0.0000E+00 AA
        H-bond correction              true
        Ion screening                  false
        Surface tension                    1.0000E-05 Eh       1.5569E+01 dyn/cm
        Grid points                               230 per atom

          ...................................................
          :                      SETUP                      :
          :.................................................:
          :  # basis functions                 136          :
          :  # atomic orbitals                 136          :
          :  # shells                           86          :
          :  # electrons                       136          :
          :  # halogen bonds                     0          :
          :  max. iterations                   250          :
          :  Hamiltonian                  GFN1-xTB          :
          :  restarted?                      false          :
          :  GBSA solvation                   true          :
          :  PC potential                    false          :
          :  electronic temp.          300.0000000     K    :
          :  accuracy                    1.0000000          :
          :  -> integral cutoff          0.2500000E+02      :
          :  -> integral neglect         0.1000000E-07      :
          :  -> SCF convergence          0.1000000E-05 Eh   :
          :  -> wf. convergence          0.2000000E-04 e    :
          :  Broyden damping             0.4000000          :
          ...................................................

 iter      E             dE          RMSdq      gap      omega  full diag
   1    -84.3163496 -0.843163E+02  0.851E+00    1.58       0.0  T
   2    -84.5957976 -0.279448E+00  0.510E+00    0.08       1.0  T
   3    -84.5656754  0.301222E-01  0.169E+00    0.98       1.0  T
   4    -84.5134294  0.522460E-01  0.923E-01    0.02       1.0  T
   5    -84.6037504 -0.903210E-01  0.454E-01    1.04       1.0  T
   6    -84.6091459 -0.539544E-02  0.331E-01    0.73       1.0  T
   7    -84.6107594 -0.161355E-02  0.266E-01    0.51       1.0  T
   8    -84.6122770 -0.151754E-02  0.211E-01    0.29       1.0  T
   9    -84.4684424  0.143835E+00  0.105E+00    0.04       1.0  T
  10    -84.6120619 -0.143619E+00  0.215E-01    0.31       1.0  T
  11    -84.6122762 -0.214337E-03  0.208E-01    0.29       1.0  T
  12    -84.6131631 -0.886863E-03  0.182E-01    0.23       1.0  T
  13    -84.6146796 -0.151651E-02  0.140E-01    0.18       1.0  T
  14    -84.6169294 -0.224979E-02  0.346E-02    0.13       1.0  T
  15    -84.6170538 -0.124421E-03  0.152E-02    0.12       1.0  T
  16    -84.6170816 -0.277904E-04  0.374E-03    0.11       4.1  T
  17    -84.6170774  0.416681E-05  0.682E-03    0.12       2.2  T
  18    -84.6170831 -0.567291E-05  0.151E-03    0.11      10.1  T
  19    -84.6170834 -0.293513E-06  0.106E-05    0.11    1433.6  T
  20    -84.6170834  0.628617E-08  0.221E-04    0.11      69.0  T
  21    -84.6170834 -0.533872E-08  0.861E-05    0.11     177.0  T

   *** convergence criteria satisfied after 21 iterations ***

         #    Occupation            Energy/Eh            Energy/eV
      -------------------------------------------------------------
         1        2.0000           -0.8234435             -22.4070
       ...           ...                  ...                  ...
        62        2.0000           -0.4379772             -11.9180
        63        2.0000           -0.4302650             -11.7081
        64        2.0000           -0.4183680             -11.3844
        65        2.0000           -0.4127858             -11.2325
        66        2.0000           -0.4050679             -11.0225
        67        2.0000           -0.3776954             -10.2776
        68        1.8043           -0.3194631              -8.6930 (HOMO)
        69        0.1957           -0.3152425              -8.5782 (LUMO)
        70                         -0.2731127              -7.4318
        71                         -0.2420226              -6.5858
        72                         -0.2289180              -6.2292
        73                         -0.1480723              -4.0293
       ...                                ...                  ...
       136                          0.7104960              19.3336
      -------------------------------------------------------------
                  HL-Gap            0.0042206 Eh            0.1148 eV
             Fermi-level           -0.3173528 Eh           -8.6356 eV

 SCC (total)                   0 d,  0 h,  0 min,  0.128 sec
 SCC setup                      ...        0 min,  0.002 sec (  1.745%)
 Dispersion                     ...        0 min,  0.000 sec (  0.370%)
 classical contributions        ...        0 min,  0.000 sec (  0.126%)
 integral evaluation            ...        0 min,  0.029 sec ( 22.698%)
 iterations                     ...        0 min,  0.052 sec ( 40.805%)
 molecular gradient             ...        0 min,  0.043 sec ( 33.766%)
 printout                       ...        0 min,  0.001 sec (  0.460%)

         :::::::::::::::::::::::::::::::::::::::::::::::::::::
         ::                     SUMMARY                     ::
         :::::::::::::::::::::::::::::::::::::::::::::::::::::
         :: total energy             -83.866593901835 Eh    ::
         :: total w/o Gsasa/hb       -83.842109303834 Eh    ::
         :: gradient norm              0.111192871323 Eh/a0 ::
         :: HOMO-LUMO gap              0.114848676799 eV    ::
         ::.................................................::
         :: SCC energy               -84.617083376098 Eh    ::
         :: -> electrostatic           0.443227593354 Eh    ::
         :: -> Gsolv                  -0.106963454776 Eh    ::
         ::    -> Gelec               -0.082478856774 Eh    ::
         ::    -> Gsasa               -0.024891312382 Eh    ::
         ::    -> Ghb                 -0.007217564624 Eh    ::
         ::    -> Gshift               0.007624279005 Eh    ::
         :: repulsion energy           0.776147388553 Eh    ::
         :: dispersion energy         -0.025657914291 Eh    ::
         :: halogen bond corr.         0.000000000000 Eh    ::
         :: add. restraining           0.000000000000 Eh    ::
         :: total charge              -1.000000000000 e     ::
         :::::::::::::::::::::::::::::::::::::::::::::::::::::

      ----------------------------------------------------------- 
     |                   =====================                   |
     |                        A N C O P T                        |
     |                   =====================                   |
     |               Approximate Normal Coordinate               |
     |                Rational Function Optimizer                |
      ----------------------------------------------------------- 

          ...................................................
          :                      SETUP                      :
          :.................................................:
          :   optimization level            normal          :
          :   max. optcycles                   200          :
          :   ANC micro-cycles                  20          :
          :   degrees of freedom               123          :
          :.................................................:
          :   RF solver                   davidson          :
          :   write xtbopt.log                true          :
          :   linear?                        false          :
          :   energy convergence         0.5000000E-05 Eh   :
          :   grad. convergence          0.1000000E-02 Eh/α :
          :   maximium RF displ.         1.0000000          :
          :   Hlow (freq-cutoff)         0.1000000E-01      :
          :   Hmax (freq-cutoff)         5.0000000          :
          :   S6 in model hess.         20.0000000          :
          ...................................................

generating ANC from model Hessian ...
Using Lindh-Hessian (1995)
 Shifting diagonal of input Hessian by   9.848054106507681E-003
 Lowest  eigenvalues of input Hessian
    0.000000    0.000000    0.000000    0.000000    0.000000    0.000000
    0.010000    0.010184    0.010498    0.010668    0.011748    0.012159
    0.012910    0.013663    0.014238    0.015124    0.016282    0.017852
 Highest eigenvalues
    1.970187    2.046242    2.195438    2.273575    2.297966    2.425996
 

........................................................................
.............................. CYCLE    1 ..............................
........................................................................
   1    -84.6170834 -0.846171E+02  0.227E-05    0.11       0.0  T
   2    -84.6170834  0.386423E-08  0.176E-04    0.11      86.7  T
   3    -84.6170834 -0.393071E-08  0.104E-06    0.11   14657.6  T
     SCC iter.                  ...        0 min,  0.008 sec
     gradient                   ...        0 min,  0.043 sec
 * total energy  :   -83.8665939 Eh     change       -0.9569732E-09 Eh
   gradient norm :     0.1111995 Eh/α   predicted     0.0000000E+00 (-100.00%)
   displ. norm   :     0.2793976 α      lambda       -0.1451520E-01
   maximum displ.:     0.1287016 α      in ANC's #25, #24, #28, ...

........................................................................
.............................. CYCLE    2 ..............................
........................................................................
   1    -84.6244134 -0.846244E+02  0.169E-01    0.29       0.0  T
   2    -84.2816539  0.342759E+00  0.165E+00    0.15       1.0  T
   3    -84.6257800 -0.344126E+00  0.120E-01    0.22       1.0  T
   4    -84.6270248 -0.124477E-02  0.703E-02    0.17       1.0  T
   5    -84.6275031 -0.478309E-03  0.498E-02    0.11       1.0  T
   6    -84.6265141  0.988927E-03  0.989E-02    0.10       1.0  T
   7    -84.6276455 -0.113137E-02  0.297E-02    0.12       1.0  T
   8    -84.6277448 -0.992878E-04  0.836E-03    0.13       1.8  T
   9    -84.6277510 -0.624612E-05  0.436E-03    0.13       3.5  T
  10    -84.6277529 -0.191469E-05  0.192E-03    0.13       7.9  T
  11    -84.6277534 -0.440721E-06  0.391E-04    0.13      39.0  T
  12    -84.6277534 -0.176119E-07  0.105E-04    0.13     144.7  T
  13    -84.6277534 -0.131146E-08  0.253E-05    0.13     602.4  T
     SCC iter.                  ...        0 min,  0.039 sec
     gradient                   ...        0 min,  0.081 sec
 * total energy  :   -83.8770366 Eh     change       -0.1044270E-01 Eh
   gradient norm :     0.0535839 Eh/α   predicted    -0.7828710E-02 ( -25.03%)
   displ. norm   :     0.2918140 α      lambda       -0.6151544E-02
   maximum displ.:     0.1366227 α      in ANC's #25, #24, #14, ...

........................................................................
.............................. CYCLE    3 ..............................
........................................................................
   1    -84.6340479 -0.846340E+02  0.132E-01    0.30       0.0  T
   2    -84.4586138  0.175434E+00  0.119E+00    0.04       1.0  T
   3    -84.6348088 -0.176195E+00  0.934E-02    0.24       1.0  T
   4    -84.6354031 -0.594272E-03  0.635E-02    0.20       1.0  T
   5    -84.6359656 -0.562529E-03  0.117E-02    0.15       1.3  T
   6    -84.6354831  0.482521E-03  0.628E-02    0.12       1.0  T
   7    -84.6358738 -0.390696E-03  0.280E-02    0.13       1.0  T
   8    -84.6359626 -0.888108E-04  0.679E-03    0.14       2.2  T
   9    -84.6359662 -0.356253E-05  0.399E-03    0.14       3.8  T
  10    -84.6359675 -0.133658E-05  0.221E-03    0.15       6.9  T
  11    -84.6359681 -0.571964E-06  0.411E-04    0.15      37.1  T
  12    -84.6359681 -0.184333E-07  0.121E-04    0.15     126.6  T
  13    -84.6359681 -0.165730E-08  0.243E-05    0.15     627.7  T
     SCC iter.                  ...        0 min,  0.045 sec
     gradient                   ...        0 min,  0.081 sec
 * total energy  :   -83.8807037 Eh     change       -0.3667051E-02 Eh
   gradient norm :     0.0181664 Eh/α   predicted    -0.3338466E-02 (  -8.96%)
   displ. norm   :     0.1611797 α      lambda       -0.8681517E-03
   maximum displ.:     0.0629812 α      in ANC's #14, #25, #24, ...

........................................................................
.............................. CYCLE    4 ..............................
........................................................................
   1    -84.6374247 -0.846374E+02  0.595E-02    0.20       0.0  T
   2    -84.6079741  0.294506E-01  0.490E-01    0.04       1.0  T
   3    -84.6377511 -0.297770E-01  0.284E-02    0.17       1.0  T
   4    -84.6378512 -0.100109E-03  0.747E-03    0.16       2.0  T
   5    -84.6378235  0.277266E-04  0.171E-02    0.15       1.0  T
   6    -84.6378450 -0.215856E-04  0.106E-02    0.15       1.4  T
   7    -84.6378552 -0.101238E-04  0.502E-03    0.15       3.0  T
   8    -84.6378580 -0.284442E-05  0.138E-03    0.15      11.0  T
   9    -84.6378581 -0.120914E-06  0.927E-04    0.15      16.5  T
  10    -84.6378582 -0.948751E-07  0.239E-04    0.15      63.8  T
  11    -84.6378582 -0.667239E-08  0.325E-05    0.15     469.6  T
  12    -84.6378582 -0.108585E-09  0.104E-05    0.15    1468.4  T
     SCC iter.                  ...        0 min,  0.041 sec
     gradient                   ...        0 min,  0.047 sec
 * total energy  :   -83.8813151 Eh     change       -0.6114216E-03 Eh
   gradient norm :     0.0126142 Eh/α   predicted    -0.4453598E-03 ( -27.16%)
   displ. norm   :     0.1541596 α      lambda       -0.4833071E-03
   maximum displ.:     0.0689537 α      in ANC's #14, #5, #6, ...

........................................................................
.............................. CYCLE    5 ..............................
........................................................................
   1    -84.6391109 -0.846391E+02  0.415E-02    0.19       0.0  T
   2    -84.6337972  0.531370E-02  0.211E-01    0.09       1.0  T
   3    -84.6392756 -0.547835E-02  0.195E-02    0.17       1.0  T
   4    -84.6393003 -0.247820E-04  0.907E-03    0.17       1.7  T
   5    -84.6393085 -0.818185E-05  0.379E-03    0.16       4.0  T
   6    -84.6393060  0.253964E-05  0.525E-03    0.16       2.9  T
   7    -84.6393087 -0.274167E-05  0.203E-03    0.16       7.5  T
   8    -84.6393092 -0.487172E-06  0.201E-04    0.16      75.9  T
   9    -84.6393092 -0.385235E-08  0.699E-05    0.16     218.2  T
  10    -84.6393092  0.745644E-10  0.648E-05    0.16     235.4  T
     SCC iter.                  ...        0 min,  0.024 sec
     gradient                   ...        0 min,  0.082 sec
 * total energy  :   -83.8816266 Eh     change       -0.3115458E-03 Eh
   gradient norm :     0.0095537 Eh/α   predicted    -0.2475898E-03 ( -20.53%)
   displ. norm   :     0.0990482 α      lambda       -0.1744076E-03
   maximum displ.:     0.0463634 α      in ANC's #5, #14, #6, ...

........................................................................
.............................. CYCLE    6 ..............................
........................................................................
   1    -84.6401174 -0.846401E+02  0.239E-02    0.18       0.0  T
   2    -84.6396210  0.496435E-03  0.666E-02    0.13       1.0  T
   3    -84.6401573 -0.536299E-03  0.169E-02    0.17       1.0  T
   4    -84.6401766 -0.192545E-04  0.517E-03    0.17       3.0  T
   5    -84.6401786 -0.208917E-05  0.180E-03    0.16       8.4  T
   6    -84.6401785  0.103675E-06  0.111E-03    0.16      13.7  T
   7    -84.6401787 -0.140195E-06  0.154E-04    0.17      98.9  T
   8    -84.6401787 -0.213370E-08  0.573E-05    0.17     266.1  T
     SCC iter.                  ...        0 min,  0.030 sec
     gradient                   ...        0 min,  0.082 sec
 * total energy  :   -83.8817545 Eh     change       -0.1278819E-03 Eh
   gradient norm :     0.0065425 Eh/α   predicted    -0.8805995E-04 ( -31.14%)
   displ. norm   :     0.1321536 α      lambda       -0.1538166E-03
   maximum displ.:     0.0636541 α      in ANC's #5, #14, #4, ...

........................................................................
.............................. CYCLE    7 ..............................
........................................................................
   1    -84.6404019 -0.846404E+02  0.262E-02    0.18       0.0  T
   2    -84.6400879  0.314066E-03  0.552E-02    0.14       1.0  T
   3    -84.6404372 -0.349290E-03  0.220E-02    0.18       1.0  T
   4    -84.6404727 -0.355578E-04  0.601E-03    0.17       2.5  T
   5    -84.6404749 -0.213621E-05  0.217E-03    0.17       7.0  T
   6    -84.6404750 -0.129214E-06  0.715E-04    0.17      21.3  T
   7    -84.6404750 -0.576310E-07  0.114E-04    0.17     133.5  T
   8    -84.6404750 -0.836906E-09  0.383E-05    0.17     397.7  T
     SCC iter.                  ...        0 min,  0.027 sec
     gradient                   ...        0 min,  0.079 sec
 * total energy  :   -83.8818611 Eh     change       -0.1065948E-03 Eh
   gradient norm :     0.0042192 Eh/α   predicted    -0.7832356E-04 ( -26.52%)
   displ. norm   :     0.1200380 α      lambda       -0.8503604E-04
   maximum displ.:     0.0544515 α      in ANC's #5, #4, #14, ...

........................................................................
.............................. CYCLE    8 ..............................
........................................................................
   1    -84.6401575 -0.846402E+02  0.162E-02    0.18       0.0  T
   2    -84.6400867  0.708210E-04  0.283E-02    0.16       1.0  T
   3    -84.6401733 -0.866585E-04  0.129E-02    0.18       1.2  T
   4    -84.6401860 -0.126653E-04  0.297E-03    0.17       5.1  T
   5    -84.6401862 -0.155979E-06  0.126E-03    0.17      12.1  T
   6    -84.6401862 -0.809920E-07  0.163E-04    0.17      93.8  T
   7    -84.6401862 -0.533760E-09  0.642E-05    0.17     237.5  T
     SCC iter.                  ...        0 min,  0.020 sec
     gradient                   ...        0 min,  0.081 sec
 * total energy  :   -83.8819201 Eh     change       -0.5896434E-04 Eh
   gradient norm :     0.0035441 Eh/α   predicted    -0.4316819E-04 ( -26.79%)
   displ. norm   :     0.1014419 α      lambda       -0.4723722E-04
   maximum displ.:     0.0421647 α      in ANC's #5, #4, #3, ...

........................................................................
.............................. CYCLE    9 ..............................
........................................................................
   1    -84.6398265 -0.846398E+02  0.582E-03    0.18       0.0  T
   2    -84.6398224  0.414863E-05  0.801E-03    0.17       1.9  T
   3    -84.6398284 -0.596693E-05  0.439E-03    0.18       3.5  T
   4    -84.6398299 -0.152386E-05  0.114E-03    0.17      13.3  T
   5    -84.6398299  0.269381E-09  0.480E-04    0.17      31.8  T
   6    -84.6398299 -0.234408E-08  0.103E-04    0.17     148.0  T
   7    -84.6398299 -0.401570E-09  0.247E-05    0.17     617.5  T
     SCC iter.                  ...        0 min,  0.024 sec
     gradient                   ...        0 min,  0.081 sec
 * total energy  :   -83.8819526 Eh     change       -0.3258388E-04 Eh
   gradient norm :     0.0030361 Eh/α   predicted    -0.2390754E-04 ( -26.63%)
   displ. norm   :     0.0814452 α      lambda       -0.2736853E-04
   maximum displ.:     0.0409238 α      in ANC's #3, #4, #5, ...

........................................................................
.............................. CYCLE   10 ..............................
........................................................................
   1    -84.6396107 -0.846396E+02  0.464E-03    0.17       0.0  T
   2    -84.6396065  0.423648E-05  0.725E-03    0.18       2.1  T
   3    -84.6396120 -0.547715E-05  0.271E-03    0.17       5.6  T
   4    -84.6396126 -0.598713E-06  0.646E-04    0.17      23.6  T
   5    -84.6396126  0.174700E-08  0.336E-04    0.17      45.3  T
   6    -84.6396126 -0.413633E-08  0.687E-05    0.17     222.1  T
   7    -84.6396126 -0.180265E-09  0.200E-05    0.17     762.4  T
     SCC iter.                  ...        0 min,  0.025 sec
     gradient                   ...        0 min,  0.081 sec
 * total energy  :   -83.8819726 Eh     change       -0.1995921E-04 Eh
   gradient norm :     0.0023108 Eh/α   predicted    -0.1378150E-04 ( -30.95%)
   displ. norm   :     0.0799738 α      lambda       -0.2253602E-04
   maximum displ.:     0.0454989 α      in ANC's #3, #4, #1, ...

........................................................................
.............................. CYCLE   11 ..............................
........................................................................
   1    -84.6396082 -0.846396E+02  0.865E-03    0.17       0.0  T
   2    -84.6395877  0.205280E-04  0.156E-02    0.18       1.0  T
   3    -84.6396154 -0.276835E-04  0.417E-03    0.17       3.7  T
   4    -84.6396166 -0.116803E-05  0.806E-04    0.17      18.9  T
   5    -84.6396166 -0.218656E-07  0.407E-04    0.17      37.5  T
   6    -84.6396166 -0.137176E-08  0.747E-05    0.17     204.2  T
   7    -84.6396166 -0.191534E-09  0.289E-05    0.17     527.3  T
     SCC iter.                  ...        0 min,  0.025 sec
     gradient                   ...        0 min,  0.087 sec
 * total energy  :   -83.8819893 Eh     change       -0.1665109E-04 Eh
   gradient norm :     0.0016832 Eh/α   predicted    -0.1134292E-04 ( -31.88%)
   displ. norm   :     0.1237842 α      lambda       -0.1861822E-04
   maximum displ.:     0.0751590 α      in ANC's #3, #4, #1, ...

........................................................................
.............................. CYCLE   12 ..............................
........................................................................
   1    -84.6396604 -0.846397E+02  0.127E-02    0.16       0.0  T
   2    -84.6396096  0.507947E-04  0.242E-02    0.19       1.0  T
   3    -84.6396778 -0.682263E-04  0.510E-03    0.17       3.0  T
   4    -84.6396792 -0.144798E-05  0.115E-03    0.17      13.3  T
   5    -84.6396793 -0.808665E-07  0.547E-04    0.17      27.9  T
   6    -84.6396793 -0.427308E-08  0.204E-04    0.17      74.7  T
   7    -84.6396793 -0.424183E-08  0.277E-05    0.17     551.0  T
   8    -84.6396793 -0.909495E-11  0.104E-05    0.17    1463.0  T
     SCC iter.                  ...        0 min,  0.020 sec
     gradient                   ...        0 min,  0.072 sec
 * total energy  :   -83.8820071 Eh     change       -0.1783180E-04 Eh
   gradient norm :     0.0021402 Eh/α   predicted    -0.9374936E-05 ( -47.43%)
   displ. norm   :     0.0548962 α      lambda       -0.1213990E-04
   maximum displ.:     0.0346815 α      in ANC's #3, #4, #1, ...

........................................................................
.............................. CYCLE   13 ..............................
........................................................................
   1    -84.6399677 -0.846400E+02  0.200E-03    0.17       0.0  T
   2    -84.6399663  0.138984E-05  0.390E-03    0.17       3.9  T
   3    -84.6399680 -0.175078E-05  0.992E-04    0.17      15.4  T
   4    -84.6399681 -0.537146E-07  0.396E-04    0.17      38.6  T
   5    -84.6399681 -0.162112E-08  0.115E-04    0.17     132.2  T
   6    -84.6399681 -0.249571E-09  0.312E-05    0.17     489.2  T
     SCC iter.                  ...        0 min,  0.022 sec
     gradient                   ...        0 min,  0.050 sec
 * total energy  :   -83.8820174 Eh     change       -0.1035007E-04 Eh
   gradient norm :     0.0019989 Eh/α   predicted    -0.6090300E-05 ( -41.16%)
   displ. norm   :     0.1677121 α      lambda       -0.2428476E-04
   maximum displ.:     0.1045829 α      in ANC's #3, #1, #4, ...

........................................................................
.............................. CYCLE   14 ..............................
........................................................................
   1    -84.6403458 -0.846403E+02  0.410E-03    0.17       0.0  T
   2    -84.6403451  0.744362E-06  0.417E-03    0.17       3.7  T
   3    -84.6403456 -0.502228E-06  0.349E-03    0.17       4.4  T
   4    -84.6403468 -0.121515E-05  0.859E-04    0.17      17.8  T
   5    -84.6403468  0.536055E-08  0.473E-04    0.17      32.2  T
   6    -84.6403468 -0.128912E-07  0.966E-05    0.17     157.9  T
   7    -84.6403468 -0.572570E-09  0.268E-05    0.17     569.8  T
     SCC iter.                  ...        0 min,  0.024 sec
     gradient                   ...        0 min,  0.044 sec
 * total energy  :   -83.8820415 Eh     change       -0.2407477E-04 Eh
   gradient norm :     0.0017861 Eh/α   predicted    -0.1229876E-04 ( -48.91%)
   displ. norm   :     0.1332772 α      lambda       -0.1333185E-04
   maximum displ.:     0.0828349 α      in ANC's #3, #1, #4, ...

........................................................................
.............................. CYCLE   15 ..............................
........................................................................
   1    -84.6403323 -0.846403E+02  0.309E-03    0.17       0.0  T
   2    -84.6403314  0.883409E-06  0.366E-03    0.17       4.2  T
   3    -84.6403323 -0.884373E-06  0.265E-03    0.17       5.7  T
   4    -84.6403329 -0.659006E-06  0.614E-04    0.17      24.8  T
   5    -84.6403329 -0.191305E-08  0.240E-04    0.17      63.6  T
   6    -84.6403329 -0.852367E-09  0.441E-05    0.17     345.5  T
   7    -84.6403329 -0.100158E-09  0.126E-05    0.17    1206.8  T
     SCC iter.                  ...        0 min,  0.023 sec
     gradient                   ...        0 min,  0.081 sec
 * total energy  :   -83.8820573 Eh     change       -0.1577475E-04 Eh
   gradient norm :     0.0017175 Eh/α   predicted    -0.6721022E-05 ( -57.39%)
   displ. norm   :     0.1847649 α      lambda       -0.1880371E-04
   maximum displ.:     0.1139562 α      in ANC's #3, #1, #4, ...

........................................................................
.............................. CYCLE   16 ..............................
........................................................................
   1    -84.6397262 -0.846397E+02  0.869E-03    0.18       0.0  T
   2    -84.6396794  0.467691E-04  0.214E-02    0.16       1.0  T
   3    -84.6397341 -0.546844E-04  0.367E-03    0.17       4.1  T
   4    -84.6397349 -0.835302E-06  0.981E-04    0.17      15.5  T
   5    -84.6397349  0.242825E-07  0.595E-04    0.17      25.6  T
   6    -84.6397349 -0.277899E-07  0.706E-05    0.17     216.1  T
   7    -84.6397349 -0.148461E-09  0.300E-05    0.17     507.6  T
     SCC iter.                  ...        0 min,  0.029 sec
     gradient                   ...        0 min,  0.082 sec
 * total energy  :   -83.8820758 Eh     change       -0.1848724E-04 Eh
   gradient norm :     0.0018548 Eh/α   predicted    -0.9546240E-05 ( -48.36%)
   displ. norm   :     0.1849289 α      lambda       -0.1592718E-04
   maximum displ.:     0.1128030 α      in ANC's #3, #1, #4, ...

........................................................................
.............................. CYCLE   17 ..............................
........................................................................
   1    -84.6399993 -0.846400E+02  0.205E-03    0.17       0.0  T
   2    -84.6399995 -0.111986E-06  0.112E-03    0.17      13.6  T
   3    -84.6399995 -0.777206E-08  0.840E-04    0.17      18.2  T
   4    -84.6399994  0.802497E-07  0.104E-03    0.17      14.7  T
   5    -84.6399995 -0.116018E-06  0.217E-04    0.17      70.4  T
   6    -84.6399995 -0.184900E-08  0.606E-05    0.17     251.6  T
   7    -84.6399995 -0.232234E-09  0.135E-05    0.17    1129.6  T
     SCC iter.                  ...        0 min,  0.025 sec
     gradient                   ...        0 min,  0.082 sec
 * total energy  :   -83.8820901 Eh     change       -0.1434712E-04 Eh
   gradient norm :     0.0016815 Eh/α   predicted    -0.8085072E-05 ( -43.65%)
   displ. norm   :     0.1218819 α      lambda       -0.8926603E-05
   maximum displ.:     0.0734285 α      in ANC's #3, #1, #4, ...

........................................................................
.............................. CYCLE   18 ..............................
........................................................................
   1    -84.6398648 -0.846399E+02  0.177E-03    0.17       0.0  T
   2    -84.6398647  0.784869E-07  0.167E-03    0.17       9.1  T
   3    -84.6398647 -0.293667E-07  0.152E-03    0.17      10.0  T
   4    -84.6398649 -0.222098E-06  0.415E-04    0.17      36.7  T
   5    -84.6398649  0.125625E-08  0.184E-04    0.17      83.0  T
   6    -84.6398649 -0.286661E-08  0.371E-05    0.17     410.8  T
     SCC iter.                  ...        0 min,  0.022 sec
     gradient                   ...        0 min,  0.082 sec
 * total energy  :   -83.8821012 Eh     change       -0.1108202E-04 Eh
   gradient norm :     0.0012212 Eh/α   predicted    -0.4496996E-05 ( -59.42%)
   displ. norm   :     0.2249462 α      lambda       -0.1758316E-04
   maximum displ.:     0.1326945 α      in ANC's #3, #1, #4, ...

........................................................................
.............................. CYCLE   19 ..............................
........................................................................
   1    -84.6398792 -0.846399E+02  0.439E-03    0.17       0.0  T
   2    -84.6398750  0.413668E-05  0.696E-03    0.18       2.2  T
   3    -84.6398801 -0.506852E-05  0.255E-03    0.17       6.0  T
   4    -84.6398806 -0.465899E-06  0.941E-04    0.17      16.2  T
   5    -84.6398806 -0.550875E-08  0.294E-04    0.17      51.8  T
   6    -84.6398806 -0.170358E-08  0.840E-05    0.17     181.5  T
   7    -84.6398806 -0.709889E-09  0.177E-05    0.17     859.3  T
     SCC iter.                  ...        0 min,  0.025 sec
     gradient                   ...        0 min,  0.082 sec
 * total energy  :   -83.8821219 Eh     change       -0.2073156E-04 Eh
   gradient norm :     0.0011006 Eh/α   predicted    -0.8992120E-05 ( -56.63%)
   displ. norm   :     0.2777405 α      lambda       -0.1652795E-04
   maximum displ.:     0.1641713 α      in ANC's #1, #3, #4, ...

........................................................................
.............................. CYCLE   20 ..............................
........................................................................
   1    -84.6392920 -0.846393E+02  0.271E-03    0.17       0.0  T
   2    -84.6392920 -0.521919E-07  0.176E-03    0.17       8.7  T
   3    -84.6392919  0.132160E-06  0.196E-03    0.17       7.8  T
   4    -84.6392922 -0.310677E-06  0.823E-04    0.17      18.5  T
   5    -84.6392922 -0.246868E-07  0.201E-04    0.17      75.8  T
   6    -84.6392922 -0.186414E-08  0.435E-05    0.17     350.6  T
   7    -84.6392922 -0.112252E-09  0.140E-05    0.17    1090.8  T
     SCC iter.                  ...        0 min,  0.024 sec
     gradient                   ...        0 min,  0.082 sec
 * total energy  :   -83.8821389 Eh     change       -0.1695985E-04 Eh
   gradient norm :     0.0013910 Eh/α   predicted    -0.8549741E-05 ( -49.59%)
   displ. norm   :     0.1264513 α      lambda       -0.9146316E-05
   maximum displ.:     0.0804978 α      in ANC's #1, #3, #6, ...
 * RMSD in coord.:     0.3335326 α      energy gain  -0.1554499E-01 Eh

generating ANC from model Hessian ...
Using Lindh-Hessian (1995)
 Shifting diagonal of input Hessian by   9.830482104040512E-003
 Lowest  eigenvalues of input Hessian
    0.000000    0.000000    0.000000    0.000000    0.000000    0.000000
    0.010000    0.010187    0.010533    0.010733    0.011840    0.011968
    0.013110    0.013676    0.014154    0.015163    0.016213    0.018287
 Highest eigenvalues
    1.980233    1.998012    2.235493    2.306897    2.361219    2.446339
 

........................................................................
.............................. CYCLE   21 ..............................
........................................................................
   1    -84.6405363 -0.846405E+02  0.338E-03    0.17       0.0  T
   2    -84.6405345  0.173002E-05  0.473E-03    0.17       3.2  T
   3    -84.6405362 -0.172561E-05  0.224E-03    0.17       6.8  T
   4    -84.6405367 -0.469628E-06  0.717E-04    0.17      21.3  T
   5    -84.6405367 -0.135583E-07  0.165E-04    0.17      92.4  T
   6    -84.6405367 -0.128681E-08  0.419E-05    0.17     363.8  T
     SCC iter.                  ...        0 min,  0.021 sec
     gradient                   ...        0 min,  0.082 sec
 * total energy  :   -83.8821466 Eh     change       -0.7704559E-05 Eh
   gradient norm :     0.0015323 Eh/α   predicted     0.0000000E+00 (-100.00%)
   displ. norm   :     0.0201408 α      lambda       -0.3575749E-05
   maximum displ.:     0.0102644 α      in ANC's #1, #16, #4, ...

........................................................................
.............................. CYCLE   22 ..............................
........................................................................
   1    -84.6400580 -0.846401E+02  0.234E-03    0.17       0.0  T
   2    -84.6400582 -0.125655E-06  0.147E-03    0.17      10.4  T
   3    -84.6400581  0.120686E-07  0.122E-03    0.17      12.4  T
   4    -84.6400583 -0.109932E-06  0.598E-04    0.17      25.5  T
   5    -84.6400583 -0.223362E-07  0.209E-04    0.17      72.9  T
   6    -84.6400583 -0.209639E-08  0.481E-05    0.17     317.1  T
   7    -84.6400583 -0.207578E-09  0.723E-06    0.17    2109.5  T
     SCC iter.                  ...        0 min,  0.024 sec
     gradient                   ...        0 min,  0.082 sec
 * total energy  :   -83.8821516 Eh     change       -0.4990094E-05 Eh
   gradient norm :     0.0005442 Eh/α   predicted    -0.2534662E-05 ( -49.21%)
   displ. norm   :     0.0357174 α      lambda       -0.4186941E-05
   maximum displ.:     0.0195934 α      in ANC's #1, #16, #4, ...

   *** GEOMETRY OPTIMIZATION CONVERGED AFTER 22 ITERATIONS ***

------------------------------------------------------------------------
 total energy gain   :        -0.0155577 Eh       -9.7626 kcal/mol
 total RMSD          :         0.3341305 a0        0.1768 Å
 total power (kW/mol):        -1.8566686 (step)  -13.5481 (real)
------------------------------------------------------------------------

 ANCopt (total)                0 d,  0 h,  0 min,  3.015 sec
 optimizer setup                ...        0 min,  0.001 sec (  0.027%)
 model hessian                  ...        0 min,  0.043 sec (  1.437%)
 ANC generation                 ...        0 min,  0.004 sec (  0.144%)
 coordinate transformation      ...        0 min,  0.001 sec (  0.023%)
 single point calculation       ...        0 min,  2.956 sec ( 98.042%)
 optimization log               ...        0 min,  0.006 sec (  0.190%)
 hessian update                 ...        0 min,  0.001 sec (  0.018%)
 rational function              ...        0 min,  0.002 sec (  0.074%)

================
 final structure:
================
43
 xtb: 6.5.1 (579679a)
C            6.97840914366885        1.46734515844842        1.11181361751329
O            5.84918916840359        1.18090262911608        0.28611724044797
C            4.77572484132712        0.67773739908475        0.90425599165557
O            4.74134371484873        0.47987975838041        2.10071986024712
C            3.64497667374551        0.37978737813632       -0.01422699506169
N            2.56248558075291       -0.18876566564579        0.61347523434616
C            1.51750631507660       -0.51445061043707       -0.06972863151826
C            0.33676989590367       -1.19338802981138        0.59376857756707
C            0.54653058765187       -2.70819464273283        0.42286044783634
C            0.28090060130218       -0.81335225004042        2.07988051639604
N           -0.85771180502927       -0.75235265520291       -0.12261408553053
C           -2.13725440048638       -1.18567878632041        0.32991848663300
O           -2.28599565941111       -2.25323828329017        0.94689727190405
C           -3.15019600735368       -0.28452005495821       -0.06254148488775
N           -2.94509337898669        0.88544535681970       -0.66096571792704
N           -4.06288500915922        1.50695201886879       -0.86894195104151
C           -5.14739691095916        0.65579297633332       -0.35209841622513
C           -6.09361364900164        0.26882440481278       -1.49999476655031
C           -5.90349526820767        1.39868818600149        0.76042411534296
O           -4.51203050839208       -0.50117215217896        0.17399736392704
N            1.44429889057168       -0.32644981869763       -1.42144106197258
C            2.45347806663608        0.24258901393358       -2.15392733255077
O            2.37989440312684        0.41669255837183       -3.36655132881603
C            3.61991669027193        0.61447273917150       -1.36654732939474
O            4.62594679099228        1.17684535324554       -2.05790326305291
H            6.71061879217300        2.19618359640191        1.88113478026014
H            7.33617288228980        0.55289386766626        1.59196831354953
H            7.74809959414922        1.87451475191672        0.45926488301382
H            1.53160114897046       -2.98348956647300        0.79794422288563
H           -0.21041789734340       -3.26124590555357        0.97529753869334
H            0.48128229473154       -2.97277991919007       -0.63130829885505
H            1.21393296328106       -1.09549935621348        2.56592684211194
H            0.14127084248756        0.26185823333280        2.18515296944750
H           -0.54561808191314       -1.33127523597483        2.56374381085599
H           -0.85431926744897        0.24898935173532       -0.29617370841008
H           -6.52600391340105        1.16673396842049       -1.93657460397245
H           -5.53224772746870       -0.26476045540875       -2.26531500975164
H           -6.89103406106994       -0.37356792337122       -1.13060137274879
H           -5.20453470343622        1.67316744626071        1.54884966625028
H           -6.67878484767679        0.75893773993945        1.17820212753417
H           -6.35797890063519        2.30100276447669        0.35674039735405
H            0.60808558536274       -0.61243084761872       -1.91479956480912
H            4.36817852965133        1.23037650824344       -2.99616435270080
 
 Bond Distances (Angstroems)
 ---------------------------
C1-O2=1.4279         C1-H26=1.0931        C1-H27=1.0931        C1-H28=1.0881        O2-C1=1.4279         O2-C3=1.3370         
C3-O2=1.3370         C3-O4=1.2132         C3-C5=1.4869         O4-C3=1.2132         C5-C3=1.4869         C5-N6=1.3744         
C5-C24=1.3728        N6-C5=1.3744         N6-C7=1.2903         C7-N6=1.2903         C7-C8=1.5150         C7-N21=1.3667        
C8-C7=1.5150         C8-C9=1.5388         C8-C10=1.5350        C8-N11=1.4610        C9-C8=1.5388         C9-H29=1.0894        
C9-H30=1.0881        C9-H31=1.0888        C10-C8=1.5350        C10-H32=1.0892       C10-H33=1.0893       C10-H34=1.0888       
N11-C8=1.4610        N11-C12=1.4247       N11-H35=1.0163       C12-N11=1.4247       C12-O13=1.2420       C12-C14=1.4114       
O13-C12=1.2420       C14-C12=1.4114       C14-N15=1.3300       C14-O20=1.3991       N15-C14=1.3300       N15-N16=1.2958       
N16-N15=1.2958       N16-C17=1.4723       C17-N16=1.4723       C17-C18=1.5371       C17-C19=1.5366       C17-O20=1.4209       
C18-C17=1.5371       C18-H36=1.0880       C18-H37=1.0888       C18-H38=1.0886       C19-C17=1.5366       C19-H39=1.0888       
C19-H40=1.0885       C19-H41=1.0880       O20-C14=1.3991       O20-C17=1.4209       N21-C7=1.3667        N21-C22=1.3707       
N21-H42=1.0121       C22-N21=1.3707       C22-O23=1.2273       C22-C24=1.4556       O23-C22=1.2273       C24-C5=1.3728        
C24-C22=1.4556       C24-O25=1.3440       O25-C24=1.3440       O25-H43=0.9745       H26-C1=1.0931        H27-C1=1.0931        
H28-C1=1.0881        H29-C9=1.0894        H30-C9=1.0881        H31-C9=1.0888        H32-C10=1.0892       H33-C10=1.0893       
H34-C10=1.0888       H35-N11=1.0163       H36-C18=1.0880       H37-C18=1.0888       H38-C18=1.0886       H39-C19=1.0888       
H40-C19=1.0885       H41-C19=1.0880       H42-N21=1.0121       H43-O25=0.9745       
 C  H  Rav=1.0892 sigma=0.0016  Rmin=1.0880  Rmax=1.0931    15
 C  C  Rav=1.4877 sigma=0.0582  Rmin=1.3728  Rmax=1.5388     9
 N  H  Rav=1.0142 sigma=0.0021  Rmin=1.0121  Rmax=1.0163     2
 N  C  Rav=1.3863 sigma=0.0587  Rmin=1.2903  Rmax=1.4723     8
 N  N  Rav=1.2958 sigma=0.0000  Rmin=1.2958  Rmax=1.2958     1
 O  H  Rav=0.9745 sigma=0.0000  Rmin=0.9745  Rmax=0.9745     1
 O  C  Rav=1.3264 sigma=0.0827  Rmin=1.2132  Rmax=1.4279     8
 
 selected bond angles (degree)
 --------------------
H26-C1-O2=110.30               H27-C1-O2=110.18               H27-C1-H26=109.20              H28-C1-O2=106.72               
H28-C1-H26=110.23              H28-C1-H27=110.18              C3-O2-C1=116.30                O4-C3-O2=122.69                
C5-C3-O2=113.60                C5-C3-O4=123.71                N6-C5-C3=113.56                C24-C5-C3=126.02               
C24-C5-N6=120.41               C7-N6-C5=120.03                C8-C7-N6=120.82                N21-C7-N6=122.17               
N21-C7-C8=116.94               C9-C8-C7=106.63                C10-C8-C7=109.96               C10-C8-C9=110.87               
N11-C8-C7=106.69               N11-C8-C9=110.74               N11-C8-C10=111.73              H29-C9-C8=109.50               
H30-C9-C8=110.43               H30-C9-H29=109.01              H31-C9-C8=109.79               H31-C9-H29=109.03              
H31-C9-H30=109.05              H32-C10-C8=109.68              H33-C10-C8=110.04              H33-C10-H32=108.81             
H34-C10-C8=109.88              H34-C10-H32=109.19             H34-C10-H33=109.22             
 
 selected dihedral angles (degree)
 ---------------------------------
C3-O2-C1-H26=300.36           C3-O2-C1-H27= 60.99           C3-O2-C1-H28=180.61           O4-C3-O2-C1=  0.62            
C5-C3-O2-C1=181.02            N6-C5-C3-O2=177.45            N6-C5-C3-O4=357.86            C24-C5-C3-O2=357.88           
C24-C5-C3-O4=178.29           C7-N6-C5-C3=180.90            C7-N6-C5-C24=  0.49           C8-C7-N6-C5=177.50            
N21-C7-N6-C5=  0.67           C9-C8-C7-N6=266.50            C9-C8-C7-N21= 83.49           C10-C8-C7-N6= 26.77           
C10-C8-C7-N21=203.76          N11-C8-C7-N6=148.11           N11-C8-C7-N21=325.10          H29-C9-C8-C7= 53.58           
H29-C9-C8-C10=293.89          H29-C9-C8-N11=169.28          H30-C9-C8-C7=173.63           H30-C9-C8-C10= 53.94          
H30-C9-C8-N11=289.33          H31-C9-C8-C7=293.90           H31-C9-C8-C10=174.22          H31-C9-C8-N11= 49.60          
H32-C10-C8-C7=302.16          H32-C10-C8-C9= 59.83          H32-C10-C8-N11=183.88         H33-C10-C8-C7= 61.81          
H33-C10-C8-C9=179.49          H33-C10-C8-N11=303.54         H34-C10-C8-C7=182.12          H34-C10-C8-C9=299.79          
H34-C10-C8-N11= 63.85         
           -------------------------------------------------
          |                Final Singlepoint                |
           -------------------------------------------------

          ...................................................
          :                      SETUP                      :
          :.................................................:
          :  # basis functions                 136          :
          :  # atomic orbitals                 136          :
          :  # shells                           86          :
          :  # electrons                       136          :
          :  # halogen bonds                     0          :
          :  max. iterations                   250          :
          :  Hamiltonian                  GFN1-xTB          :
          :  restarted?                      false          :
          :  GBSA solvation                   true          :
          :  PC potential                    false          :
          :  electronic temp.          300.0000000     K    :
          :  accuracy                    1.0000000          :
          :  -> integral cutoff          0.2500000E+02      :
          :  -> integral neglect         0.1000000E-07      :
          :  -> SCF convergence          0.1000000E-05 Eh   :
          :  -> wf. convergence          0.2000000E-04 e    :
          :  Broyden damping             0.4000000          :
          ...................................................

 iter      E             dE          RMSdq      gap      omega  full diag
   1    -84.6400583 -0.846401E+02  0.233E-06    0.17       0.0  T
   2    -84.6400583 -0.142109E-12  0.109E-06    0.17   13938.8  T
   3    -84.6400583  0.284217E-13  0.579E-07    0.17   26316.9  T

   *** convergence criteria satisfied after 3 iterations ***

         #    Occupation            Energy/Eh            Energy/eV
      -------------------------------------------------------------
         1        2.0000           -0.8322329             -22.6462
       ...           ...                  ...                  ...
        62        2.0000           -0.4395648             -11.9612
        63        2.0000           -0.4248816             -11.5616
        64        2.0000           -0.4213592             -11.4658
        65        2.0000           -0.4137329             -11.2582
        66        2.0000           -0.4001963             -10.8899
        67        2.0000           -0.3775995             -10.2750
        68        1.9311           -0.3222960              -8.7701 (HOMO)
        69        0.0689           -0.3159637              -8.5978 (LUMO)
        70                         -0.2714880              -7.3876
        71                         -0.2466311              -6.7112
        72                         -0.2315527              -6.3009
        73                         -0.1483386              -4.0365
       ...                                ...                  ...
       136                          0.7267548              19.7760
      -------------------------------------------------------------
                  HL-Gap            0.0063323 Eh            0.1723 eV
             Fermi-level           -0.3191298 Eh           -8.6840 eV

 SCC (total)                   0 d,  0 h,  0 min,  0.130 sec
 SCC setup                      ...        0 min,  0.002 sec (  1.336%)
 Dispersion                     ...        0 min,  0.000 sec (  0.260%)
 classical contributions        ...        0 min,  0.000 sec (  0.085%)
 integral evaluation            ...        0 min,  0.034 sec ( 26.023%)
 iterations                     ...        0 min,  0.011 sec (  8.426%)
 molecular gradient             ...        0 min,  0.082 sec ( 63.278%)
 printout                       ...        0 min,  0.001 sec (  0.561%)

         :::::::::::::::::::::::::::::::::::::::::::::::::::::
         ::                     SUMMARY                     ::
         :::::::::::::::::::::::::::::::::::::::::::::::::::::
         :: total energy             -83.882151591469 Eh    ::
         :: total w/o Gsasa/hb       -83.857438535262 Eh    ::
         :: gradient norm              0.000544730059 Eh/a0 ::
         :: HOMO-LUMO gap              0.172310214390 eV    ::
         ::.................................................::
         :: SCC energy               -84.640058279892 Eh    ::
         :: -> electrostatic           0.450226321467 Eh    ::
         :: -> Gsolv                  -0.109492011179 Eh    ::
         ::    -> Gelec               -0.084778954972 Eh    ::
         ::    -> Gsasa               -0.024949483893 Eh    ::
         ::    -> Ghb                 -0.007387851318 Eh    ::
         ::    -> Gshift               0.007624279005 Eh    ::
         :: repulsion energy           0.783745820737 Eh    ::
         :: dispersion energy         -0.025839132315 Eh    ::
         :: halogen bond corr.         0.000000000000 Eh    ::
         :: add. restraining           0.000000000000 Eh    ::
         :: total charge              -1.000000000000 e     ::
         :::::::::::::::::::::::::::::::::::::::::::::::::::::

           -------------------------------------------------
          |                Property Printout                |
           -------------------------------------------------

    * Orbital Energies and Occupations

         #    Occupation            Energy/Eh            Energy/eV
      -------------------------------------------------------------
         1        2.0000           -0.8322329             -22.6462
       ...           ...                  ...                  ...
        56        2.0000           -0.4771326             -12.9834
        57        2.0000           -0.4763636             -12.9625
        58        2.0000           -0.4729950             -12.8708
        59        2.0000           -0.4515922             -12.2885
        60        2.0000           -0.4502311             -12.2514
        61        2.0000           -0.4421572             -12.0317
        62        2.0000           -0.4395648             -11.9612
        63        2.0000           -0.4248816             -11.5616
        64        2.0000           -0.4213592             -11.4658
        65        2.0000           -0.4137329             -11.2582
        66        2.0000           -0.4001963             -10.8899
        67        2.0000           -0.3775995             -10.2750
        68        1.9311           -0.3222960              -8.7701 (HOMO)
        69        0.0689           -0.3159637              -8.5978 (LUMO)
        70                         -0.2714880              -7.3876
        71                         -0.2466311              -6.7112
        72                         -0.2315527              -6.3009
        73                         -0.1483386              -4.0365
        74                         -0.1355336              -3.6881
        75                         -0.1341882              -3.6514
        76                         -0.1111445              -3.0244
        77                         -0.1079751              -2.9382
        78                         -0.1054585              -2.8697
        79                         -0.0995262              -2.7082
       ...                                ...                  ...
       136                          0.7267548              19.7760
      -------------------------------------------------------------
                  HL-Gap            0.0063323 Eh            0.1723 eV
             Fermi-level           -0.3191298 Eh           -8.6840 eV

  Mulliken/CM5 charges         n(s)   n(p)   n(d)
     1C     0.16566  0.04525   0.978  2.856  0.000
     2O    -0.41582 -0.49964   1.686  4.730  0.000
     3C     0.56877  0.63537   0.970  2.462  0.000
     4O    -0.57251 -0.61646   1.727  4.846  0.000
     5C     0.07458  0.15142   1.042  2.883  0.000
     6N    -0.37686 -0.56138   1.526  3.850  0.000
     7C     0.27996  0.43077   1.027  2.693  0.000
     8C     0.15880  0.19915   1.060  2.781  0.000
     9C    -0.09295 -0.23214   1.017  3.076  0.000
    10C    -0.09795 -0.23678   1.015  3.083  0.000
    11N    -0.41990 -0.75970   1.464  3.956  0.000
    12C     0.40985  0.50462   0.987  2.603  0.000
    13O    -0.64858 -0.69368   1.740  4.908  0.000
    14C     0.23194  0.34679   0.985  2.783  0.000
    15N    -0.24668 -0.35304   1.558  3.689  0.000
    16N    -0.37062 -0.45982   1.598  3.773  0.000
    17C     0.34859  0.41219   1.031  2.620  0.000
    18C    -0.10995 -0.24840   1.017  3.093  0.000
    19C    -0.10984 -0.24830   1.017  3.093  0.000
    20O    -0.47638 -0.52955   1.712  4.764  0.000
    21N    -0.28466 -0.63061   1.436  3.848  0.000
    22C     0.43742  0.53909   0.982  2.581  0.000
    23O    -0.59793 -0.64359   1.730  4.868  0.000
    24C     0.21563  0.24946   1.026  2.758  0.000
    25O    -0.51308 -0.70491   1.696  4.817  0.000
    26H     0.04838  0.11014   0.952  0.000  0.000
    27H     0.04808  0.10971   0.952  0.000  0.000
    28H     0.05033  0.11072   0.950  0.000  0.000
    29H     0.02780  0.08330   0.972  0.000  0.000
    30H     0.05761  0.11866   0.942  0.000  0.000
    31H     0.03343  0.09157   0.967  0.000  0.000
    32H     0.03342  0.09135   0.967  0.000  0.000
    33H     0.03335  0.09052   0.967  0.000  0.000
    34H     0.04991  0.10883   0.950  0.000  0.000
    35H     0.20961  0.41804   0.790  0.000  0.000
    36H     0.02465  0.08018   0.975  0.000  0.000
    37H     0.03231  0.09011   0.968  0.000  0.000
    38H     0.02785  0.08263   0.972  0.000  0.000
    39H     0.03236  0.09020   0.968  0.000  0.000
    40H     0.02825  0.08312   0.972  0.000  0.000
    41H     0.02455  0.07999   0.975  0.000  0.000
    42H     0.27670  0.48174   0.723  0.000  0.000
    43H     0.40396  0.58305   0.596  0.000  0.000

Wiberg/Mayer (AO) data.
largest (>0.10) Wiberg bond orders for each atom

 ---------------------------------------------------------------------------
     #   Z sym  total        # sym  WBO       # sym  WBO       # sym  WBO
 ---------------------------------------------------------------------------
     1   6 C    3.877 --    28 H    0.986    27 H    0.980    26 H    0.980
                             2 O    0.903
     2   8 O    2.190 --     3 C    1.101     1 C    0.903     4 O    0.130
     3   6 C    3.833 --     4 O    1.642     2 O    1.101     5 C    1.013
     4   8 O    1.897 --     3 C    1.642     2 O    0.130
     5   6 C    3.942 --    24 C    1.483     6 N    1.177     3 C    1.013
     6   7 N    3.020 --     7 C    1.586     5 C    1.177
     7   6 C    3.914 --     6 N    1.586    21 N    1.162     8 C    0.980
     8   6 C    3.956 --    10 C    0.987     7 C    0.980     9 C    0.974
                            11 N    0.957
     9   6 C    3.990 --    29 H    0.988    31 H    0.986    30 H    0.976
                             8 C    0.974
    10   6 C    3.993 --     8 C    0.987    33 H    0.986    32 H    0.985
                            34 H    0.983
    11   7 N    3.145 --    12 C    1.026     8 C    0.957    35 H    0.919
    12   6 C    3.913 --    13 O    1.482    14 C    1.225    11 N    1.026
    13   8 O    1.819 --    12 C    1.482
    14   6 C    3.819 --    15 N    1.375    12 C    1.225    20 O    0.946
                            16 N    0.141
    15   7 N    3.050 --    16 N    1.481    14 C    1.375
    16   7 N    2.856 --    15 N    1.481    17 C    0.980    14 C    0.141
    17   6 C    3.898 --    16 N    0.980    19 C    0.978    18 C    0.977
                            20 O    0.924
    18   6 C    3.990 --    36 H    0.988    38 H    0.986    37 H    0.985
                            17 C    0.977
    19   6 C    3.991 --    41 H    0.988    40 H    0.986    39 H    0.985
                            17 C    0.978
    20   8 O    2.056 --    14 C    0.946    17 C    0.924
    21   7 N    3.456 --     7 C    1.162    22 C    1.142    42 H    0.879
                            23 O    0.130
    22   6 C    3.901 --    23 O    1.550    21 N    1.142    24 C    1.080
    23   8 O    1.870 --    22 C    1.550    21 N    0.130
    24   6 C    3.891 --     5 C    1.483    25 O    1.091    22 C    1.080
    25   8 O    2.065 --    24 C    1.091    43 H    0.812
    26   1 H    1.009 --     1 C    0.980
    27   1 H    1.008 --     1 C    0.980
    28   1 H    1.012 --     1 C    0.986
    29   1 H    1.005 --     9 C    0.988
    30   1 H    1.022 --     9 C    0.976
    31   1 H    1.006 --     9 C    0.986
    32   1 H    1.013 --    10 C    0.985
    33   1 H    1.005 --    10 C    0.986
    34   1 H    1.011 --    10 C    0.983
    35   1 H    0.983 --    11 N    0.919
    36   1 H    1.009 --    18 C    0.988
    37   1 H    1.013 --    18 C    0.985
    38   1 H    1.007 --    18 C    0.986
    39   1 H    1.013 --    19 C    0.985
    40   1 H    1.007 --    19 C    0.986
    41   1 H    1.009 --    19 C    0.988
    42   1 H    0.940 --    21 N    0.879
    43   1 H    0.853 --    25 O    0.812
 ---------------------------------------------------------------------------

Topologies differ in total number of bonds
Writing topology from bond orders to xtbtopo.mol

 dipole moment from electron density (au)
     X       Y       Z   
   3.5661   0.8753  -0.7324  total (Debye):    9.517

           -------------------------------------------------
          |                Geometry Summary                 |
           -------------------------------------------------

      molecular mass/u    :      352.3231817
   center of mass at/Å    :        0.3708859       0.0317185      -0.1474319
  moments of inertia/u·Å² :        0.1053749E+04   0.5622259E+04   0.5957167E+04
rotational constants/cm⁻¹ :        0.1599777E-01   0.2998374E-02   0.2829807E-02

 * 40 selected distances

     #   Z          #   Z                                           value/Å
     1   6 C        2   8 O                                       1.4279223
     2   8 O        3   6 C                                       1.3370104
     3   6 C        4   8 O                                       1.2132006
     5   6 C        6   7 N                                       1.3744271
     6   7 N        7   6 C                                       1.2902791
     8   6 C        9   6 C                                       1.5387815 (max)
     8   6 C       10   6 C                                       1.5349520
     8   6 C       11   7 N                                       1.4609939
    11   7 N       12   6 C                                       1.4247059
    12   6 C       13   8 O                                       1.2419623
    12   6 C       14   6 C                                       1.4114400
    14   6 C       15   7 N                                       1.3300369
    15   7 N       16   7 N                                       1.2957558
    17   6 C       18   6 C                                       1.5371198
    17   6 C       19   6 C                                       1.5366473
    14   6 C       20   8 O                                       1.3991005
    17   6 C       20   8 O                                       1.4209278
     7   6 C       21   7 N                                       1.3666859
    21   7 N       22   6 C                                       1.3706875
    22   6 C       23   8 O                                       1.2272668
     5   6 C       24   6 C                                       1.3727621
    24   6 C       25   8 O                                       1.3439988
     1   6 C       26   1 H                                       1.0930565
     1   6 C       27   1 H                                       1.0930530
     1   6 C       28   1 H                                       1.0881317
     9   6 C       29   1 H                                       1.0894216
     9   6 C       30   1 H                                       1.0881285
     9   6 C       31   1 H                                       1.0888226
    10   6 C       32   1 H                                       1.0892188
    10   6 C       33   1 H                                       1.0893377
    10   6 C       34   1 H                                       1.0888073
    11   7 N       35   1 H                                       1.0162777
    18   6 C       36   1 H                                       1.0880281
    18   6 C       37   1 H                                       1.0888341
    18   6 C       38   1 H                                       1.0885766
    19   6 C       39   1 H                                       1.0888066
    19   6 C       40   1 H                                       1.0885280
    19   6 C       41   1 H                                       1.0879741
    21   7 N       42   1 H                                       1.0121466
    25   8 O       43   1 H                                       0.9744968 (min)

 * 7 distinct bonds (by element types)

   Z      Z             #   av. dist./Å        max./Å        min./Å
   1 H    6 C          15     1.0892483     1.0930565     1.0879741
   6 C    6 C           6     1.4886171     1.5387815     1.3727621
   1 H    7 N           2     1.0142121     1.0162777     1.0121466
   6 C    7 N           7     1.3739738     1.4609939     1.2902791
   7 N    7 N           1     1.2957558     1.2957558     1.2957558
   1 H    8 O           1     0.9744968     0.9744968     0.9744968
   6 C    8 O           8     1.3264237     1.4279223     1.2132006


optimized geometry written to: xtbopt.xyz


           -------------------------------------------------
          | TOTAL ENERGY              -83.882151591469 Eh   |
          | GRADIENT NORM               0.000544730059 Eh/α |
          | HOMO-LUMO GAP               0.172310214390 eV   |
           -------------------------------------------------

------------------------------------------------------------------------
 * finished run on 2023/06/20 at 15:13:29.104     
------------------------------------------------------------------------
 total:
 * wall-time:     0 d,  0 h,  0 min,  3.366 sec
 *  cpu-time:     0 d,  0 h,  0 min,  3.314 sec
 * ratio c/w:     0.984 speedup
 SCF:
 * wall-time:     0 d,  0 h,  0 min,  0.129 sec
 *  cpu-time:     0 d,  0 h,  0 min,  0.129 sec
 * ratio c/w:     0.999 speedup
 ANC optimizer:
 * wall-time:     0 d,  0 h,  0 min,  3.169 sec
 *  cpu-time:     0 d,  0 h,  0 min,  3.137 sec
 * ratio c/w:     0.990 speedup

