      -----------------------------------------------------------      
     |                   =====================                   |     
     |                           x T B                           |     
     |                   =====================                   |     
     |                         S. Grimme                         |     
     |          Mulliken Center for Theoretical Chemistry        |     
     |                    University of Bonn                     |     
      -----------------------------------------------------------      

   * xtb version 6.5.1 (579679a) compiled by 'ehlert@majestix' on 2022-07-11

   xtb is free software: you can redistribute it and/or modify it under
   the terms of the GNU Lesser General Public License as published by
   the Free Software Foundation, either version 3 of the License, or
   (at your option) any later version.
   
   xtb is distributed in the hope that it will be useful,
   but WITHOUT ANY WARRANTY; without even the implied warranty of
   MERCHANTABILITY or FITNESS FOR A PARTICULAR PURPOSE.  See the
   GNU Lesser General Public License for more details.
   
   Cite this work as:
   * C. Bannwarth, E. Caldeweyher, S. Ehlert, A. Hansen, P. Pracht,
     J. Seibert, S. Spicher, S. Grimme, WIREs Comput. Mol. Sci., 2020, 11,
     e01493. DOI: 10.1002/wcms.1493
   
   for GFN2-xTB:
   * C. Bannwarth, S. Ehlert and S. Grimme., J. Chem. Theory Comput., 2019,
     15, 1652-1671. DOI: 10.1021/acs.jctc.8b01176
   for GFN1-xTB:
   * S. Grimme, C. Bannwarth, P. Shushkov, J. Chem. Theory Comput., 2017,
     13, 1989-2009. DOI: 10.1021/acs.jctc.7b00118
   for GFN0-xTB:
   * P. Pracht, E. Caldeweyher, S. Ehlert, S. Grimme, ChemRxiv, 2019, preprint.
     DOI: 10.26434/chemrxiv.8326202.v1
   for GFN-FF:
   * S. Spicher and S. Grimme, Angew. Chem. Int. Ed., 2020, 59, 15665-15673.
     DOI: 10.1002/anie.202004239
   
   for ALPB and GBSA implicit solvation:
   * S. Ehlert, M. Stahn, S. Spicher, S. Grimme, J. Chem. Theory Comput.,
     2021, 17, 4250-4261. DOI: 10.1021/acs.jctc.1c00471
   
   for DFT-D4:
   * E. Caldeweyher, C. Bannwarth and S. Grimme, J. Chem. Phys., 2017,
     147, 034112. DOI: 10.1063/1.4993215
   * E. Caldeweyher, S. Ehlert, A. Hansen, H. Neugebauer, S. Spicher,
     C. Bannwarth and S. Grimme, J. Chem. Phys., 2019, 150, 154122.
     DOI: 10.1063/1.5090222
   * E. Caldeweyher, J.-M. Mewes, S. Ehlert and S. Grimme, Phys. Chem. Chem. Phys.
     2020, 22, 8499-8512. DOI: 10.1039/D0CP00502A
   
   for sTDA-xTB:
   * S. Grimme and C. Bannwarth, J. Chem. Phys., 2016, 145, 054103.
     DOI: 10.1063/1.4959605
   
   in the mass-spec context:
   * V. Asgeirsson, C. Bauer and S. Grimme, Chem. Sci., 2017, 8, 4879.
     DOI: 10.1039/c7sc00601b
   * J. Koopman and S. Grimme, ACS Omega 2019, 4, 12, 15120-15133.
     DOI: 10.1021/acsomega.9b02011
   
   for metadynamics refer to:
   * S. Grimme, J. Chem. Theory Comput., 2019, 155, 2847-2862
     DOI: 10.1021/acs.jctc.9b00143
   
   for SPH calculations refer to:
   * S. Spicher and S. Grimme, J. Chem. Theory Comput., 2021, 17, 1701-1714
     DOI: 10.1021/acs.jctc.0c01306
   
   with help from (in alphabetical order)
   P. Atkinson, C. Bannwarth, F. Bohle, G. Brandenburg, E. Caldeweyher
   M. Checinski, S. Dohm, S. Ehlert, S. Ehrlich, I. Gerasimov, C. Hölzer
   A. Katbashev, J. Koopman, C. Lavigne, S. Lehtola, F. März, M. Müller,
   F. Musil, H. Neugebauer, J. Pisarek, C. Plett, P. Pracht, F. Pultar,
   J. Seibert, P. Shushkov, S. Spicher, M. Stahn, M. Steiner, T. Strunk,
   J. Stückrath, T. Rose, and J. Unsleber
   
 * started run on 2023/06/20 at 15:22:48.355     

           -------------------------------------------------
          |                Calculation Setup                |
           -------------------------------------------------

          program call               : /lustre/hpc/kemi/ree/PhD/git/ReactivityQM/dep/xtb-6.5.1/bin/xtb --gfn 1 /lustre/hpc/kemi/ree/PhD/git/ReactivityQM/calculations/R03/reac02prodE07/conf12/R03_reac02prodE07_conf12_gfn1.xyz --opt --vfukui --chrg -1 --uhf 0 --alpb DMSO
          hostname                   : node068
          coordinate file            : /lustre/hpc/kemi/ree/PhD/git/ReactivityQM/calculations/R03/reac02prodE07/conf12/R03_reac02prodE07_conf12_gfn1.xyz
          omp threads                :                     1

   ID    Z sym.   atoms
    1    6 C      1, 3, 5, 7-10, 12, 14, 15, 18, 19, 22, 23, 25
    2    8 O      2, 4, 13, 20, 24, 26
    3    7 N      6, 11, 16, 17, 21
    4    1 H      27-46

           -------------------------------------------------
          |                 G F N 1 - x T B                 |
           -------------------------------------------------

        Reference                      10.1021/acs.jctc.7b00118
      * Hamiltonian:
        H0-scaling (s, p, d)           1.850000    2.250000    2.000000
        zeta-weighting                 0.000000
      * Dispersion:
        s8                             2.400000
        a1                             0.630000
        a2                             5.000000
        s9                             0.000000
      * Repulsion:
        kExp                           1.500000
        rExp                           1.000000
      * Coulomb:
        alpha                          2.000000
        third order                    atomic
        anisotropic                    false
      * Halogen bond correction:
        rad-scale                      1.300000
        damping                        0.440000

      * Solvation model:               ALPB
        Solvent                        DMSO
        Parameter file                 internal GFN1-xTB/ALPB
        Dielectric constant                4.6680E+01
        Reference state                gsolv [1 M gas/solution]
        Free energy shift                  7.6243E-03 Eh       4.7843E+00 kcal/mol
        Temperature                        2.9815E+02 K
        Density                            1.1000E+00 kg/L
        Solvent mass                       7.8130E+01 g/mol
        Interaction kernel             P16
        Born radius scaling (c1)           1.7672E+00
        Born radii integrator          GBOBC
        Born offset                        0.0000E+00 a0       0.0000E+00 AA
        H-bond correction              true
        Ion screening                  false
        Surface tension                    1.0000E-05 Eh       1.5569E+01 dyn/cm
        Grid points                               230 per atom

          ...................................................
          :                      SETUP                      :
          :.................................................:
          :  # basis functions                 144          :
          :  # atomic orbitals                 144          :
          :  # shells                           92          :
          :  # electrons                       142          :
          :  # halogen bonds                     0          :
          :  max. iterations                   250          :
          :  Hamiltonian                  GFN1-xTB          :
          :  restarted?                      false          :
          :  GBSA solvation                   true          :
          :  PC potential                    false          :
          :  electronic temp.          300.0000000     K    :
          :  accuracy                    1.0000000          :
          :  -> integral cutoff          0.2500000E+02      :
          :  -> integral neglect         0.1000000E-07      :
          :  -> SCF convergence          0.1000000E-05 Eh   :
          :  -> wf. convergence          0.2000000E-04 e    :
          :  Broyden damping             0.4000000          :
          ...................................................

 iter      E             dE          RMSdq      gap      omega  full diag
   1    -87.4780442 -0.874780E+02  0.852E+00    0.15       0.0  T
   2    -87.4961761 -0.181319E-01  0.532E+00    1.06       1.0  T
   3    -87.4654427  0.307334E-01  0.280E+00    1.05       1.0  T
   4    -87.6877479 -0.222305E+00  0.112E+00    2.10       1.0  T
   5    -87.7271961 -0.394481E-01  0.767E-01    1.03       1.0  T
   6    -87.5326377  0.194558E+00  0.134E+00    0.57       1.0  T
   7    -87.7311036 -0.198466E+00  0.661E-01    0.84       1.0  T
   8    -87.7373290 -0.622545E-02  0.568E-01    0.43       1.0  T
   9    -87.7594597 -0.221307E-01  0.356E-01    0.12       1.0  T
  10    -87.5485459  0.210914E+00  0.127E+00    0.35       1.0  T
  11    -87.7501685 -0.201623E+00  0.434E-01    0.16       1.0  T
  12    -87.7685873 -0.184188E-01  0.236E-01    0.02       1.0  T
  13    -87.7610049  0.758243E-02  0.331E-01    0.12       1.0  T
  14    -87.7758859 -0.148810E-01  0.823E-02    0.04       1.0  T
  15    -87.7766396 -0.753757E-03  0.413E-02    0.04       1.0  T
  16    -87.7768765 -0.236837E-03  0.113E-02    0.05       1.3  T
  17    -87.7766893  0.187211E-03  0.372E-02    0.04       1.0  T
  18    -87.7768575 -0.168219E-03  0.159E-02    0.05       1.0  T
  19    -87.7768889 -0.313680E-04  0.648E-03    0.05       2.3  T
  20    -87.7768946 -0.570592E-05  0.184E-03    0.05       8.0  T
  21    -87.7768951 -0.498571E-06  0.126E-04    0.05     117.4  T
  22    -87.7768951 -0.852395E-09  0.964E-05    0.05     153.0  T

   *** convergence criteria satisfied after 22 iterations ***

         #    Occupation            Energy/Eh            Energy/eV
      -------------------------------------------------------------
         1        2.0000           -0.8030856             -21.8531
       ...           ...                  ...                  ...
        65        2.0000           -0.4243593             -11.5474
        66        2.0000           -0.4230803             -11.5126
        67        2.0000           -0.4138201             -11.2606
        68        2.0000           -0.3917502             -10.6601
        69        2.0000           -0.3890493             -10.5866
        70        2.0000           -0.3883733             -10.5682
        71        1.4437           -0.2897382              -7.8842 (HOMO)
        72        0.5563           -0.2879261              -7.8349 (LUMO)
        73                         -0.2526254              -6.8743
        74                         -0.2084390              -5.6719
        75                         -0.2040175              -5.5516
        76                         -0.1589069              -4.3241
       ...                                ...                  ...
       144                          0.7340728              19.9751
      -------------------------------------------------------------
                  HL-Gap            0.0018122 Eh            0.0493 eV
             Fermi-level           -0.2888321 Eh           -7.8595 eV

 SCC (total)                   0 d,  0 h,  0 min,  0.235 sec
 SCC setup                      ...        0 min,  0.002 sec (  0.837%)
 Dispersion                     ...        0 min,  0.000 sec (  0.138%)
 classical contributions        ...        0 min,  0.000 sec (  0.045%)
 integral evaluation            ...        0 min,  0.028 sec ( 12.091%)
 iterations                     ...        0 min,  0.136 sec ( 57.978%)
 molecular gradient             ...        0 min,  0.066 sec ( 28.276%)
 printout                       ...        0 min,  0.001 sec (  0.627%)

         :::::::::::::::::::::::::::::::::::::::::::::::::::::
         ::                     SUMMARY                     ::
         :::::::::::::::::::::::::::::::::::::::::::::::::::::
         :: total energy             -86.997892162524 Eh    ::
         :: total w/o Gsasa/hb       -86.973366006262 Eh    ::
         :: gradient norm              0.122612905638 Eh/a0 ::
         :: HOMO-LUMO gap              0.049311564742 eV    ::
         ::.................................................::
         :: SCC energy               -87.776895063531 Eh    ::
         :: -> electrostatic           0.410104999108 Eh    ::
         :: -> Gsolv                  -0.106009474902 Eh    ::
         ::    -> Gelec               -0.081483318640 Eh    ::
         ::    -> Gsasa               -0.026073884540 Eh    ::
         ::    -> Ghb                 -0.006076550727 Eh    ::
         ::    -> Gshift               0.007624279005 Eh    ::
         :: repulsion energy           0.807818094258 Eh    ::
         :: dispersion energy         -0.028815193251 Eh    ::
         :: halogen bond corr.         0.000000000000 Eh    ::
         :: add. restraining           0.000000000000 Eh    ::
         :: total charge              -1.000000000000 e     ::
         :::::::::::::::::::::::::::::::::::::::::::::::::::::

      ----------------------------------------------------------- 
     |                   =====================                   |
     |                        A N C O P T                        |
     |                   =====================                   |
     |               Approximate Normal Coordinate               |
     |                Rational Function Optimizer                |
      ----------------------------------------------------------- 

          ...................................................
          :                      SETUP                      :
          :.................................................:
          :   optimization level            normal          :
          :   max. optcycles                   200          :
          :   ANC micro-cycles                  20          :
          :   degrees of freedom               132          :
          :.................................................:
          :   RF solver                   davidson          :
          :   write xtbopt.log                true          :
          :   linear?                        false          :
          :   energy convergence         0.5000000E-05 Eh   :
          :   grad. convergence          0.1000000E-02 Eh/α :
          :   maximium RF displ.         1.0000000          :
          :   Hlow (freq-cutoff)         0.1000000E-01      :
          :   Hmax (freq-cutoff)         5.0000000          :
          :   S6 in model hess.         20.0000000          :
          ...................................................

generating ANC from model Hessian ...
Using Lindh-Hessian (1995)
 Shifting diagonal of input Hessian by   9.829647421219169E-003
 Lowest  eigenvalues of input Hessian
    0.000000    0.000000    0.000000    0.000000    0.000000    0.000000
    0.010000    0.010207    0.010315    0.010620    0.011711    0.011905
    0.012498    0.012853    0.013164    0.013884    0.014543    0.014991
 Highest eigenvalues
    1.957719    1.998984    2.098732    2.128686    2.289870    2.354251
 

........................................................................
.............................. CYCLE    1 ..............................
........................................................................
   1    -87.7768951 -0.877769E+02  0.283E-05    0.05       0.0  T
   2    -87.7768950  0.349781E-07  0.487E-04    0.05      30.3  T
   3    -87.7768951 -0.350948E-07  0.230E-06    0.05    6408.2  T
   4    -87.7768951  0.184741E-12  0.204E-06    0.05    7228.0  T
     SCC iter.                  ...        0 min,  0.025 sec
     gradient                   ...        0 min,  0.067 sec
 * total energy  :   -86.9978922 Eh     change       -0.1394852E-08 Eh
   gradient norm :     0.1226140 Eh/α   predicted     0.0000000E+00 (-100.00%)
   displ. norm   :     0.3311508 α      lambda       -0.1563551E-01
   maximum displ.:     0.1521704 α      in ANC's #25, #24, #6, ...

........................................................................
.............................. CYCLE    2 ..............................
........................................................................
   1    -87.7869696 -0.877870E+02  0.104E-01    0.04       0.0  T
   2    -87.7619347  0.250349E-01  0.422E-01    0.16       1.0  T
   3    -87.7684949 -0.656013E-02  0.368E-01    0.01       1.0  T
   4    -87.7870687 -0.185739E-01  0.646E-02    0.06       1.0  T
   5    -87.7857943  0.127447E-02  0.116E-01    0.03       1.0  T
   6    -87.7877247 -0.193041E-02  0.161E-03    0.05       9.2  T
   7    -87.7877224  0.224362E-05  0.402E-03    0.05       3.7  T
   8    -87.7877246 -0.222223E-05  0.100E-03    0.05      14.7  T
   9    -87.7877247 -0.852757E-07  0.626E-04    0.05      23.5  T
  10    -87.7877248 -0.582425E-07  0.723E-05    0.05     204.0  T
  11    -87.7877248 -0.165699E-09  0.611E-05    0.05     241.2  T
     SCC iter.                  ...        0 min,  0.066 sec
     gradient                   ...        0 min,  0.067 sec
 * total energy  :   -87.0096537 Eh     change       -0.1176149E-01 Eh
   gradient norm :     0.0626973 Eh/α   predicted    -0.8686330E-02 ( -26.15%)
   displ. norm   :     0.3782026 α      lambda       -0.8880067E-02
   maximum displ.:     0.1862506 α      in ANC's #25, #24, #6, ...

........................................................................
.............................. CYCLE    3 ..............................
........................................................................
   1    -87.7929481 -0.877929E+02  0.167E-01    0.07       0.0  T
   2    -87.5605775  0.232371E+00  0.131E+00    0.31       1.0  T
   3    -87.7954592 -0.234882E+00  0.935E-02    0.04       1.0  T
   4    -87.7945968  0.862317E-03  0.115E-01    0.04       1.0  T
   5    -87.7950569 -0.460027E-03  0.909E-02    0.07       1.0  T
   6    -87.7953558 -0.298928E-03  0.817E-02    0.04       1.0  T
   7    -87.7962844 -0.928643E-03  0.134E-02    0.05       1.1  T
   8    -87.7963084 -0.240096E-04  0.411E-03    0.05       3.6  T
   9    -87.7963109 -0.242064E-05  0.176E-04    0.05      84.0  T
  10    -87.7963108  0.623968E-07  0.670E-04    0.05      22.0  T
  11    -87.7963109 -0.644227E-07  0.269E-05    0.05     548.0  T
  12    -87.7963109  0.301441E-09  0.534E-05    0.05     275.9  T
     SCC iter.                  ...        0 min,  0.072 sec
     gradient                   ...        0 min,  0.066 sec
 * total energy  :   -87.0149585 Eh     change       -0.5304844E-02 Eh
   gradient norm :     0.0180386 Eh/α   predicted    -0.5076733E-02 (  -4.30%)
   displ. norm   :     0.2419716 α      lambda       -0.1366358E-02
   maximum displ.:     0.1304725 α      in ANC's #6, #25, #13, ...

........................................................................
.............................. CYCLE    4 ..............................
........................................................................
   1    -87.7942218 -0.877942E+02  0.138E-01    0.07       0.0  T
   2    -87.5591179  0.235104E+00  0.131E+00    0.30       1.0  T
   3    -87.7942114 -0.235094E+00  0.143E-01    0.04       1.0  T
   4    -87.7969015 -0.269011E-02  0.254E-02    0.06       1.0  T
   5    -87.7962236  0.677893E-03  0.746E-02    0.04       1.0  T
   6    -87.7969621 -0.738438E-03  0.171E-02    0.06       1.0  T
   7    -87.7970062 -0.441002E-04  0.700E-04    0.05      21.1  T
   8    -87.7970059  0.321700E-06  0.166E-03    0.05       8.9  T
   9    -87.7970062 -0.382754E-06  0.210E-04    0.05      70.3  T
  10    -87.7970063 -0.617757E-08  0.495E-05    0.05     298.0  T
  11    -87.7970063  0.224375E-09  0.626E-05    0.05     235.4  T
     SCC iter.                  ...        0 min,  0.067 sec
     gradient                   ...        0 min,  0.066 sec
 * total energy  :   -87.0159454 Eh     change       -0.9868570E-03 Eh
   gradient norm :     0.0142129 Eh/α   predicted    -0.7231893E-03 ( -26.72%)
   displ. norm   :     0.2957818 α      lambda       -0.9142232E-03
   maximum displ.:     0.1874731 α      in ANC's #6, #4, #25, ...

........................................................................
.............................. CYCLE    5 ..............................
........................................................................
   1    -87.7939947 -0.877940E+02  0.165E-01    0.08       0.0  T
   2    -87.5519667  0.242028E+00  0.134E+00    0.37       1.0  T
   3    -87.7937072 -0.241740E+00  0.173E-01    0.03       1.0  T
   4    -87.7964498 -0.274262E-02  0.984E-02    0.07       1.0  T
   5    -87.7968205 -0.370746E-03  0.864E-02    0.04       1.0  T
   6    -87.7978728 -0.105230E-02  0.613E-03    0.05       2.4  T
   7    -87.7978754 -0.258958E-05  0.370E-03    0.05       4.0  T
   8    -87.7978768 -0.133216E-05  0.212E-03    0.06       7.0  T
   9    -87.7978774 -0.637557E-06  0.133E-04    0.05     111.2  T
  10    -87.7978774 -0.201649E-08  0.315E-05    0.05     468.8  T
     SCC iter.                  ...        0 min,  0.061 sec
     gradient                   ...        0 min,  0.061 sec
 * total energy  :   -87.0165767 Eh     change       -0.6312990E-03 Eh
   gradient norm :     0.0084347 Eh/α   predicted    -0.4971086E-03 ( -21.26%)
   displ. norm   :     0.2862266 α      lambda       -0.4804937E-03
   maximum displ.:     0.1871272 α      in ANC's #6, #4, #3, ...

........................................................................
.............................. CYCLE    6 ..............................
........................................................................
   1    -87.7970865 -0.877971E+02  0.119E-01    0.07       0.0  T
   2    -87.5618032  0.235283E+00  0.130E+00    0.25       1.0  T
   3    -87.7988311 -0.237028E+00  0.435E-02    0.05       1.0  T
   4    -87.7990844 -0.253302E-03  0.401E-03    0.06       3.7  T
   5    -87.7990842  0.276663E-06  0.351E-03    0.06       4.2  T
   6    -87.7990834  0.791870E-06  0.369E-03    0.06       4.0  T
   7    -87.7990852 -0.179041E-05  0.999E-04    0.06      14.8  T
   8    -87.7990852 -0.902511E-07  0.596E-04    0.06      24.7  T
   9    -87.7990853 -0.504595E-07  0.836E-05    0.06     176.4  T
  10    -87.7990853 -0.846967E-09  0.293E-05    0.06     502.9  T
     SCC iter.                  ...        0 min,  0.045 sec
     gradient                   ...        0 min,  0.039 sec
 * total energy  :   -87.0169436 Eh     change       -0.3669814E-03 Eh
   gradient norm :     0.0071116 Eh/α   predicted    -0.2599300E-03 ( -29.17%)
   displ. norm   :     0.3353497 α      lambda       -0.4398832E-03
   maximum displ.:     0.2016806 α      in ANC's #6, #4, #3, ...

........................................................................
.............................. CYCLE    7 ..............................
........................................................................
   1    -87.7991677 -0.877992E+02  0.902E-02    0.07       0.0  T
   2    -87.5818559  0.217312E+00  0.124E+00    0.18       1.0  T
   3    -87.8003076 -0.218452E+00  0.593E-03    0.06       2.5  T
   4    -87.8003032  0.444828E-05  0.663E-03    0.06       2.2  T
   5    -87.8003048 -0.160663E-05  0.545E-03    0.06       2.7  T
   6    -87.8003084 -0.356628E-05  0.192E-03    0.06       7.7  T
   7    -87.8003089 -0.509043E-06  0.251E-04    0.06      58.6  T
   8    -87.8003089 -0.760025E-09  0.238E-04    0.06      61.9  T
   9    -87.8003089 -0.801271E-08  0.773E-06    0.06    1907.5  T
  10    -87.8003089  0.345040E-10  0.167E-05    0.06     880.8  T
     SCC iter.                  ...        0 min,  0.034 sec
     gradient                   ...        0 min,  0.037 sec
 * total energy  :   -87.0172922 Eh     change       -0.3485713E-03 Eh
   gradient norm :     0.0081490 Eh/α   predicted    -0.2446762E-03 ( -29.81%)
   displ. norm   :     0.4077367 α      lambda       -0.4413834E-03
   maximum displ.:     0.2278679 α      in ANC's #6, #4, #3, ...

........................................................................
.............................. CYCLE    8 ..............................
........................................................................
   1    -87.8002092 -0.878002E+02  0.674E-02    0.07       0.0  T
   2    -87.6202434  0.179966E+00  0.112E+00    0.12       1.0  T
   3    -87.8008605 -0.180617E+00  0.491E-03    0.06       3.0  T
   4    -87.8008591  0.140618E-05  0.419E-03    0.06       3.5  T
   5    -87.8008607 -0.167114E-05  0.176E-03    0.06       8.4  T
   6    -87.8008610 -0.220871E-06  0.435E-04    0.06      33.9  T
   7    -87.8008610 -0.226291E-07  0.129E-04    0.06     114.6  T
   8    -87.8008610 -0.155420E-08  0.586E-05    0.06     251.6  T
     SCC iter.                  ...        0 min,  0.029 sec
     gradient                   ...        0 min,  0.038 sec
 * total energy  :   -87.0176278 Eh     change       -0.3355547E-03 Eh
   gradient norm :     0.0082918 Eh/α   predicted    -0.2573820E-03 ( -23.30%)
   displ. norm   :     0.3899214 α      lambda       -0.3306477E-03
   maximum displ.:     0.1980253 α      in ANC's #6, #4, #1, ...

........................................................................
.............................. CYCLE    9 ..............................
........................................................................
   1    -87.8008389 -0.878008E+02  0.478E-02    0.07       0.0  T
   2    -87.6793539  0.121485E+00  0.917E-01    0.08       1.0  T
   3    -87.8011504 -0.121797E+00  0.156E-02    0.06       1.0  T
   4    -87.8011788 -0.283901E-04  0.577E-03    0.06       2.6  T
   5    -87.8011806 -0.175370E-05  0.421E-03    0.06       3.5  T
   6    -87.8011828 -0.225884E-05  0.475E-04    0.06      31.0  T
   7    -87.8011828 -0.286229E-07  0.877E-05    0.06     168.2  T
   8    -87.8011828 -0.365077E-09  0.573E-05    0.06     257.3  T
     SCC iter.                  ...        0 min,  0.027 sec
     gradient                   ...        0 min,  0.037 sec
 * total energy  :   -87.0178753 Eh     change       -0.2474895E-03 Eh
   gradient norm :     0.0065110 Eh/α   predicted    -0.1904597E-03 ( -23.04%)
   displ. norm   :     0.3395404 α      lambda       -0.2341390E-03
   maximum displ.:     0.1575152 α      in ANC's #4, #6, #1, ...

........................................................................
.............................. CYCLE   10 ..............................
........................................................................
   1    -87.8013794 -0.878014E+02  0.251E-02    0.07       0.0  T
   2    -87.7639472  0.374321E-01  0.510E-01    0.03       1.0  T
   3    -87.8014077 -0.374605E-01  0.226E-02    0.06       1.0  T
   4    -87.8014712 -0.634791E-04  0.798E-03    0.06       1.8  T
   5    -87.8014751 -0.393999E-05  0.558E-03    0.06       2.6  T
   6    -87.8014793 -0.417550E-05  0.593E-04    0.06      24.8  T
   7    -87.8014794 -0.453965E-07  0.145E-04    0.06     101.7  T
   8    -87.8014794 -0.153247E-08  0.908E-05    0.06     162.4  T
     SCC iter.                  ...        0 min,  0.029 sec
     gradient                   ...        0 min,  0.058 sec
 * total energy  :   -87.0180483 Eh     change       -0.1730551E-03 Eh
   gradient norm :     0.0046326 Eh/α   predicted    -0.1305692E-03 ( -24.55%)
   displ. norm   :     0.2728990 α      lambda       -0.1714301E-03
   maximum displ.:     0.1351171 α      in ANC's #1, #4, #2, ...

........................................................................
.............................. CYCLE   11 ..............................
........................................................................
   1    -87.8021148 -0.878021E+02  0.212E-02    0.07       0.0  T
   2    -87.7772840  0.248307E-01  0.416E-01    0.03       1.0  T
   3    -87.8021474 -0.248634E-01  0.163E-02    0.06       1.0  T
   4    -87.8021803 -0.328283E-04  0.558E-03    0.06       2.6  T
   5    -87.8021818 -0.155727E-05  0.413E-03    0.06       3.6  T
   6    -87.8021841 -0.228117E-05  0.302E-04    0.06      48.8  T
   7    -87.8021841 -0.112386E-07  0.852E-05    0.06     173.0  T
   8    -87.8021841 -0.479460E-09  0.538E-05    0.06     273.8  T
     SCC iter.                  ...        0 min,  0.050 sec
     gradient                   ...        0 min,  0.066 sec
 * total energy  :   -87.0181807 Eh     change       -0.1323672E-03 Eh
   gradient norm :     0.0042758 Eh/α   predicted    -0.9209888E-04 ( -30.42%)
   displ. norm   :     0.2971566 α      lambda       -0.1666473E-03
   maximum displ.:     0.1607738 α      in ANC's #1, #4, #2, ...

........................................................................
.............................. CYCLE   12 ..............................
........................................................................
   1    -87.8019722 -0.878020E+02  0.105E-02    0.06       0.0  T
   2    -87.7980802  0.389201E-02  0.165E-01    0.05       1.0  T
   3    -87.8019855 -0.390527E-02  0.318E-03    0.06       4.6  T
   4    -87.8019858 -0.341643E-06  0.145E-03    0.06      10.2  T
   5    -87.8019859 -0.367615E-07  0.590E-04    0.06      25.0  T
   6    -87.8019859 -0.141787E-07  0.113E-04    0.06     130.1  T
   7    -87.8019859 -0.370108E-09  0.676E-05    0.06     218.3  T
     SCC iter.                  ...        0 min,  0.025 sec
     gradient                   ...        0 min,  0.040 sec
 * total energy  :   -87.0183101 Eh     change       -0.1294027E-03 Eh
   gradient norm :     0.0048345 Eh/α   predicted    -0.9068331E-04 ( -29.92%)
   displ. norm   :     0.2990206 α      lambda       -0.1672342E-03
   maximum displ.:     0.1711574 α      in ANC's #1, #4, #2, ...

........................................................................
.............................. CYCLE   13 ..............................
........................................................................
   1    -87.8026106 -0.878026E+02  0.577E-02    0.07       0.0  T
   2    -87.6553773  0.147233E+00  0.101E+00    0.10       1.0  T
   3    -87.8030687 -0.147691E+00  0.949E-03    0.07       1.6  T
   4    -87.8030793 -0.106643E-04  0.271E-03    0.07       5.4  T
   5    -87.8030799 -0.534067E-06  0.152E-03    0.07       9.7  T
   6    -87.8030801 -0.191704E-06  0.313E-04    0.07      47.1  T
   7    -87.8030801 -0.116480E-07  0.671E-05    0.06     219.8  T
   8    -87.8030801 -0.461966E-09  0.254E-05    0.06     580.7  T
     SCC iter.                  ...        0 min,  0.033 sec
     gradient                   ...        0 min,  0.040 sec
 * total energy  :   -87.0184339 Eh     change       -0.1237804E-03 Eh
   gradient norm :     0.0058395 Eh/α   predicted    -0.9109392E-04 ( -26.41%)
   displ. norm   :     0.3209187 α      lambda       -0.1601219E-03
   maximum displ.:     0.1863825 α      in ANC's #1, #4, #2, ...

........................................................................
.............................. CYCLE   14 ..............................
........................................................................
   1    -87.8018710 -0.878019E+02  0.390E-02    0.07       0.0  T
   2    -87.7290504  0.728206E-01  0.713E-01    0.05       1.0  T
   3    -87.8019614 -0.729111E-01  0.278E-02    0.07       1.0  T
   4    -87.8020562 -0.947419E-04  0.976E-03    0.07       1.5  T
   5    -87.8020609 -0.471005E-05  0.746E-03    0.07       2.0  T
   6    -87.8020682 -0.734917E-05  0.829E-04    0.07      17.8  T
   7    -87.8020683 -0.827255E-07  0.279E-04    0.07      52.9  T
   8    -87.8020683 -0.941068E-08  0.790E-05    0.07     186.6  T
   9    -87.8020683 -0.842434E-09  0.525E-06    0.07    2809.7  T
     SCC iter.                  ...        0 min,  0.048 sec
     gradient                   ...        0 min,  0.057 sec
 * total energy  :   -87.0185557 Eh     change       -0.1218070E-03 Eh
   gradient norm :     0.0045742 Eh/α   predicted    -0.8830752E-04 ( -27.50%)
   displ. norm   :     0.3417365 α      lambda       -0.1727670E-03
   maximum displ.:     0.1983517 α      in ANC's #1, #2, #4, ...

........................................................................
.............................. CYCLE   15 ..............................
........................................................................
   1    -87.8016978 -0.878017E+02  0.102E-01    0.08       0.0  T
   2    -87.5732534  0.228444E+00  0.128E+00    0.20       1.0  T
   3    -87.8031427 -0.229889E+00  0.561E-03    0.07       2.6  T
   4    -87.8031459 -0.321412E-05  0.177E-03    0.07       8.3  T
   5    -87.8031435  0.240610E-05  0.436E-03    0.07       3.4  T
   6    -87.8031458 -0.230262E-05  0.120E-03    0.07      12.3  T
   7    -87.8031460 -0.193794E-06  0.266E-04    0.07      55.5  T
   8    -87.8031460 -0.960453E-08  0.432E-05    0.07     341.0  T
   9    -87.8031460 -0.134335E-09  0.202E-05    0.07     729.6  T
     SCC iter.                  ...        0 min,  0.061 sec
     gradient                   ...        0 min,  0.071 sec
 * total energy  :   -87.0186959 Eh     change       -0.1402402E-03 Eh
   gradient norm :     0.0046261 Eh/α   predicted    -0.9647271E-04 ( -31.21%)
   displ. norm   :     0.4058237 α      lambda       -0.1889528E-03
   maximum displ.:     0.2397952 α      in ANC's #1, #2, #4, ...

........................................................................
.............................. CYCLE   16 ..............................
........................................................................
   1    -87.8007832 -0.878008E+02  0.121E-01    0.09       0.0  T
   2    -87.5589902  0.241793E+00  0.132E+00    0.25       1.0  T
   3    -87.8026724 -0.243682E+00  0.345E-02    0.07       1.0  T
   4    -87.8028250 -0.152649E-03  0.929E-03    0.07       1.6  T
   5    -87.8028364 -0.113487E-04  0.131E-03    0.07      11.3  T
   6    -87.8028349  0.148476E-05  0.329E-03    0.07       4.5  T
   7    -87.8028364 -0.149874E-05  0.218E-04    0.07      67.6  T
   8    -87.8028364 -0.439223E-08  0.118E-04    0.07     125.1  T
   9    -87.8028364 -0.190029E-08  0.893E-06    0.07    1651.4  T
     SCC iter.                  ...        0 min,  0.053 sec
     gradient                   ...        0 min,  0.071 sec
 * total energy  :   -87.0188496 Eh     change       -0.1537265E-03 Eh
   gradient norm :     0.0052097 Eh/α   predicted    -0.1100369E-03 ( -28.42%)
   displ. norm   :     0.4073364 α      lambda       -0.1866701E-03
   maximum displ.:     0.2460656 α      in ANC's #1, #2, #4, ...

........................................................................
.............................. CYCLE   17 ..............................
........................................................................
   1    -87.8015977 -0.878016E+02  0.122E-01    0.09       0.0  T
   2    -87.5567459  0.244852E+00  0.133E+00    0.25       1.0  T
   3    -87.8034036 -0.246658E+00  0.485E-02    0.07       1.0  T
   4    -87.8037144 -0.310823E-03  0.910E-03    0.07       1.6  T
   5    -87.8037246 -0.102003E-04  0.347E-03    0.07       4.2  T
   6    -87.8037229  0.167807E-05  0.465E-03    0.07       3.2  T
   7    -87.8037259 -0.295279E-05  0.255E-04    0.07      57.9  T
   8    -87.8037259 -0.861412E-08  0.497E-05    0.07     296.8  T
   9    -87.8037259 -0.168455E-09  0.296E-05    0.07     497.8  T
     SCC iter.                  ...        0 min,  0.052 sec
     gradient                   ...        0 min,  0.069 sec
 * total energy  :   -87.0189951 Eh     change       -0.1454851E-03 Eh
   gradient norm :     0.0052865 Eh/α   predicted    -0.1088258E-03 ( -25.20%)
   displ. norm   :     0.3958901 α      lambda       -0.1606912E-03
   maximum displ.:     0.2439832 α      in ANC's #1, #2, #4, ...

........................................................................
.............................. CYCLE   18 ..............................
........................................................................
   1    -87.8006657 -0.878007E+02  0.117E-01    0.09       0.0  T
   2    -87.5563590  0.244307E+00  0.133E+00    0.24       1.0  T
   3    -87.8023360 -0.245977E+00  0.460E-02    0.07       1.0  T
   4    -87.8026191 -0.283121E-03  0.325E-03    0.07       4.5  T
   5    -87.8026171  0.204119E-05  0.498E-03    0.07       3.0  T
   6    -87.8026172 -0.108893E-06  0.445E-03    0.07       3.3  T
   7    -87.8026199 -0.267375E-05  0.263E-04    0.07      56.0  T
   8    -87.8026199 -0.938799E-08  0.271E-05    0.07     543.9  T
   9    -87.8026199  0.849667E-10  0.315E-05    0.07     468.2  T
     SCC iter.                  ...        0 min,  0.051 sec
     gradient                   ...        0 min,  0.052 sec
 * total energy  :   -87.0191131 Eh     change       -0.1179414E-03 Eh
   gradient norm :     0.0045453 Eh/α   predicted    -0.9294365E-04 ( -21.20%)
   displ. norm   :     0.3404988 α      lambda       -0.1414514E-03
   maximum displ.:     0.2170482 α      in ANC's #1, #2, #4, ...

........................................................................
.............................. CYCLE   19 ..............................
........................................................................
   1    -87.8033527 -0.878034E+02  0.622E-02    0.08       0.0  T
   2    -87.6412082  0.162145E+00  0.107E+00    0.10       1.0  T
   3    -87.8039061 -0.162698E+00  0.364E-03    0.07       4.0  T
   4    -87.8038836  0.224848E-04  0.131E-02    0.07       1.1  T
   5    -87.8039018 -0.181314E-04  0.602E-03    0.07       2.4  T
   6    -87.8039062 -0.441371E-05  0.118E-03    0.07      12.5  T
   7    -87.8039064 -0.172895E-06  0.309E-04    0.07      47.7  T
   8    -87.8039064 -0.122364E-07  0.578E-05    0.07     255.3  T
   9    -87.8039064 -0.290257E-09  0.253E-05    0.07     583.3  T
     SCC iter.                  ...        0 min,  0.033 sec
     gradient                   ...        0 min,  0.045 sec
 * total energy  :   -87.0192196 Eh     change       -0.1065830E-03 Eh
   gradient norm :     0.0040453 Eh/α   predicted    -0.7892638E-04 ( -25.95%)
   displ. norm   :     0.3628466 α      lambda       -0.1314422E-03
   maximum displ.:     0.2315566 α      in ANC's #1, #2, #4, ...

........................................................................
.............................. CYCLE   20 ..............................
........................................................................
   1    -87.8030323 -0.878030E+02  0.514E-02    0.08       0.0  T
   2    -87.6783575  0.124675E+00  0.938E-01    0.08       1.0  T
   3    -87.8034122 -0.125055E+00  0.266E-03    0.08       5.5  T
   4    -87.8033873  0.248840E-04  0.137E-02    0.07       1.1  T
   5    -87.8034047 -0.173804E-04  0.768E-03    0.07       1.9  T
   6    -87.8034120 -0.732684E-05  0.166E-03    0.08       8.9  T
   7    -87.8034124 -0.345714E-06  0.465E-04    0.08      31.7  T
   8    -87.8034124 -0.275198E-07  0.103E-04    0.08     142.9  T
   9    -87.8034124 -0.111206E-08  0.393E-05    0.08     374.9  T
     SCC iter.                  ...        0 min,  0.036 sec
     gradient                   ...        0 min,  0.052 sec
 * total energy  :   -87.0193319 Eh     change       -0.1122481E-03 Eh
   gradient norm :     0.0048159 Eh/α   predicted    -0.7437703E-04 ( -33.74%)
   displ. norm   :     0.4810571 α      lambda       -0.1917224E-03
   maximum displ.:     0.3081409 α      in ANC's #1, #2, #4, ...
 * RMSD in coord.:     0.7781005 α      energy gain  -0.2143973E-01 Eh

generating ANC from model Hessian ...
Using Lindh-Hessian (1995)
 Shifting diagonal of input Hessian by   9.832204364542883E-003
 Lowest  eigenvalues of input Hessian
    0.000000    0.000000    0.000000    0.000000    0.000000    0.000000
    0.010000    0.010193    0.010344    0.010610    0.011285    0.011975
    0.012604    0.012885    0.013442    0.013689    0.014462    0.014982
 Highest eigenvalues
    1.980483    2.014527    2.147488    2.165937    2.320763    2.328184
 

........................................................................
.............................. CYCLE   21 ..............................
........................................................................
   1    -87.8030399 -0.878030E+02  0.483E-02    0.08       0.0  T
   2    -87.6934112  0.109629E+00  0.881E-01    0.07       1.0  T
   3    -87.8033618 -0.109951E+00  0.645E-03    0.08       2.3  T
   4    -87.8033466  0.151704E-04  0.127E-02    0.08       1.2  T
   5    -87.8033608 -0.142308E-04  0.746E-03    0.08       2.0  T
   6    -87.8033678 -0.693408E-05  0.158E-03    0.08       9.4  T
   7    -87.8033680 -0.296773E-06  0.524E-04    0.08      28.1  T
   8    -87.8033681 -0.356009E-07  0.102E-04    0.08     143.9  T
   9    -87.8033681 -0.117122E-08  0.304E-05    0.08     484.3  T
     SCC iter.                  ...        0 min,  0.061 sec
     gradient                   ...        0 min,  0.064 sec
 * total energy  :   -87.0194935 Eh     change       -0.1615619E-03 Eh
   gradient norm :     0.0062128 Eh/α   predicted     0.0000000E+00 (-100.00%)
   displ. norm   :     0.0527063 α      lambda       -0.6446402E-04
   maximum displ.:     0.0189959 α      in ANC's #6, #1, #3, ...

........................................................................
.............................. CYCLE   22 ..............................
........................................................................
   1    -87.8038489 -0.878038E+02  0.441E-03    0.08       0.0  T
   2    -87.8035541  0.294815E-03  0.465E-02    0.08       1.0  T
   3    -87.8038484 -0.294323E-03  0.460E-03    0.08       3.2  T
   4    -87.8038466  0.186111E-05  0.571E-03    0.08       2.6  T
   5    -87.8038498 -0.318842E-05  0.257E-03    0.08       5.7  T
   6    -87.8038506 -0.874163E-06  0.326E-05    0.08     451.7  T
   7    -87.8038506  0.725180E-10  0.283E-05    0.08     521.6  T
     SCC iter.                  ...        0 min,  0.042 sec
     gradient                   ...        0 min,  0.063 sec
 * total energy  :   -87.0195625 Eh     change       -0.6905420E-04 Eh
   gradient norm :     0.0034097 Eh/α   predicted    -0.4204120E-04 ( -39.12%)
   displ. norm   :     0.1576335 α      lambda       -0.1482993E-03
   maximum displ.:     0.0613046 α      in ANC's #1, #6, #3, ...

........................................................................
.............................. CYCLE   23 ..............................
........................................................................
   1    -87.8044225 -0.878044E+02  0.696E-03    0.08       0.0  T
   2    -87.8043953  0.271779E-04  0.155E-02    0.08       1.0  T
   3    -87.8043729  0.224526E-04  0.184E-02    0.07       1.0  T
   4    -87.8043982 -0.253111E-04  0.142E-02    0.08       1.0  T
   5    -87.8044181 -0.199455E-04  0.654E-03    0.08       2.3  T
   6    -87.8044238 -0.567735E-05  0.950E-05    0.08     155.2  T
   7    -87.8044238 -0.823462E-09  0.270E-05    0.08     546.2  T
   8    -87.8044238  0.224105E-10  0.239E-05    0.08     616.3  T
     SCC iter.                  ...        0 min,  0.046 sec
     gradient                   ...        0 min,  0.060 sec
 * total energy  :   -87.0196590 Eh     change       -0.9648244E-04 Eh
   gradient norm :     0.0030434 Eh/α   predicted    -0.7599385E-04 ( -21.24%)
   displ. norm   :     0.1362850 α      lambda       -0.6616221E-04
   maximum displ.:     0.0589237 α      in ANC's #1, #3, #6, ...

........................................................................
.............................. CYCLE   24 ..............................
........................................................................
   1    -87.8045180 -0.878045E+02  0.803E-03    0.08       0.0  T
   2    -87.8028171  0.170093E-02  0.110E-01    0.06       1.0  T
   3    -87.8045164 -0.169928E-02  0.837E-03    0.08       1.8  T
   4    -87.8045188 -0.241874E-05  0.696E-03    0.08       2.1  T
   5    -87.8045233 -0.456354E-05  0.347E-03    0.08       4.3  T
   6    -87.8045249 -0.159904E-05  0.220E-04    0.08      67.0  T
   7    -87.8045249 -0.594603E-08  0.430E-05    0.08     343.0  T
   8    -87.8045249 -0.227857E-09  0.415E-06    0.08    3553.0  T
     SCC iter.                  ...        0 min,  0.048 sec
     gradient                   ...        0 min,  0.065 sec
 * total energy  :   -87.0197144 Eh     change       -0.5538542E-04 Eh
   gradient norm :     0.0046617 Eh/α   predicted    -0.3374389E-04 ( -39.07%)
   displ. norm   :     0.3087981 α      lambda       -0.1452620E-03
   maximum displ.:     0.1366161 α      in ANC's #1, #3, #14, ...

........................................................................
.............................. CYCLE   25 ..............................
........................................................................
   1    -87.8040262 -0.878040E+02  0.278E-02    0.08       0.0  T
   2    -87.7698183  0.342078E-01  0.492E-01    0.05       1.0  T
   3    -87.8041060 -0.342876E-01  0.132E-02    0.08       1.1  T
   4    -87.8041181 -0.120878E-04  0.893E-03    0.08       1.7  T
   5    -87.8041243 -0.621213E-05  0.552E-03    0.08       2.7  T
   6    -87.8041282 -0.397079E-05  0.576E-04    0.08      25.6  T
   7    -87.8041283 -0.403491E-07  0.177E-04    0.08      83.2  T
   8    -87.8041283 -0.417327E-08  0.945E-06    0.08    1560.5  T
     SCC iter.                  ...        0 min,  0.047 sec
     gradient                   ...        0 min,  0.066 sec
 * total energy  :   -87.0198305 Eh     change       -0.1161763E-03 Eh
   gradient norm :     0.0058498 Eh/α   predicted    -0.7955860E-04 ( -31.52%)
   displ. norm   :     0.4029226 α      lambda       -0.1707125E-03
   maximum displ.:     0.1854767 α      in ANC's #1, #14, #3, ...

........................................................................
.............................. CYCLE   26 ..............................
........................................................................
   1    -87.8027125 -0.878027E+02  0.521E-02    0.09       0.0  T
   2    -87.6806314  0.122081E+00  0.930E-01    0.08       1.0  T
   3    -87.8030583 -0.122427E+00  0.141E-02    0.08       1.0  T
   4    -87.8030852 -0.268779E-04  0.244E-03    0.08       6.1  T
   5    -87.8030851  0.894546E-07  0.209E-03    0.08       7.1  T
   6    -87.8030856 -0.498770E-06  0.339E-04    0.08      43.5  T
   7    -87.8030857 -0.149293E-07  0.625E-05    0.08     235.9  T
   8    -87.8030857 -0.385938E-09  0.167E-05    0.08     883.4  T
     SCC iter.                  ...        0 min,  0.050 sec
     gradient                   ...        0 min,  0.066 sec
 * total energy  :   -87.0199559 Eh     change       -0.1253692E-03 Eh
   gradient norm :     0.0062279 Eh/α   predicted    -0.9921878E-04 ( -20.86%)
   displ. norm   :     0.2870731 α      lambda       -0.1358428E-03
   maximum displ.:     0.1442673 α      in ANC's #1, #14, #3, ...

........................................................................
.............................. CYCLE   27 ..............................
........................................................................
   1    -87.8031426 -0.878031E+02  0.536E-02    0.09       0.0  T
   2    -87.6755644  0.127578E+00  0.952E-01    0.08       1.0  T
   3    -87.8035081 -0.127944E+00  0.144E-02    0.08       1.0  T
   4    -87.8035360 -0.278692E-04  0.444E-03    0.08       3.3  T
   5    -87.8035379 -0.194654E-05  0.220E-03    0.08       6.7  T
   6    -87.8035384 -0.420420E-06  0.102E-03    0.08      14.4  T
   7    -87.8035385 -0.136079E-06  0.231E-04    0.08      63.9  T
   8    -87.8035385 -0.691215E-08  0.457E-05    0.08     322.3  T
   9    -87.8035385 -0.145860E-09  0.274E-05    0.08     537.6  T
     SCC iter.                  ...        0 min,  0.052 sec
     gradient                   ...        0 min,  0.065 sec
 * total energy  :   -87.0200617 Eh     change       -0.1057812E-03 Eh
   gradient norm :     0.0052705 Eh/α   predicted    -0.7353711E-04 ( -30.48%)
   displ. norm   :     0.2689908 α      lambda       -0.1686236E-03
   maximum displ.:     0.1487671 α      in ANC's #1, #14, #2, ...

........................................................................
.............................. CYCLE   28 ..............................
........................................................................
   1    -87.8048804 -0.878049E+02  0.686E-02    0.09       0.0  T
   2    -87.6290656  0.175815E+00  0.112E+00    0.11       1.0  T
   3    -87.8054863 -0.176421E+00  0.159E-02    0.08       1.0  T
   4    -87.8055086 -0.222962E-04  0.108E-02    0.08       1.4  T
   5    -87.8055215 -0.129560E-04  0.438E-03    0.08       3.4  T
   6    -87.8055237 -0.219009E-05  0.971E-04    0.08      15.2  T
   7    -87.8055238 -0.101983E-06  0.353E-04    0.08      41.8  T
   8    -87.8055238 -0.158980E-07  0.638E-05    0.08     231.0  T
   9    -87.8055239 -0.402423E-09  0.245E-05    0.08     600.7  T
     SCC iter.                  ...        0 min,  0.055 sec
     gradient                   ...        0 min,  0.070 sec
 * total energy  :   -87.0201852 Eh     change       -0.1235468E-03 Eh
   gradient norm :     0.0046408 Eh/α   predicted    -0.9041359E-04 ( -26.82%)
   displ. norm   :     0.3907572 α      lambda       -0.1442562E-03
   maximum displ.:     0.2113521 α      in ANC's #1, #14, #2, ...

........................................................................
.............................. CYCLE   29 ..............................
........................................................................
   1    -87.8029469 -0.878029E+02  0.100E-01    0.10       0.0  T
   2    -87.5670178  0.235929E+00  0.131E+00    0.19       1.0  T
   3    -87.8043326 -0.237315E+00  0.561E-03    0.08       2.6  T
   4    -87.8043074  0.252189E-04  0.142E-02    0.08       1.0  T
   5    -87.8043337 -0.262775E-04  0.248E-03    0.08       5.9  T
   6    -87.8043338 -0.109591E-06  0.195E-03    0.08       7.6  T
   7    -87.8043342 -0.463202E-06  0.411E-04    0.08      35.9  T
   8    -87.8043343 -0.205603E-07  0.675E-05    0.08     218.5  T
   9    -87.8043343 -0.428031E-09  0.240E-05    0.08     614.6  T
     SCC iter.                  ...        0 min,  0.057 sec
     gradient                   ...        0 min,  0.067 sec
 * total energy  :   -87.0202976 Eh     change       -0.1123130E-03 Eh
   gradient norm :     0.0065032 Eh/α   predicted    -0.8314929E-04 ( -25.97%)
   displ. norm   :     0.3949788 α      lambda       -0.1897023E-03
   maximum displ.:     0.2302914 α      in ANC's #1, #2, #14, ...

........................................................................
.............................. CYCLE   30 ..............................
........................................................................
   1    -87.8026347 -0.878026E+02  0.125E-01    0.10       0.0  T
   2    -87.5467959  0.255839E+00  0.137E+00    0.25       1.0  T
   3    -87.8047089 -0.257913E+00  0.250E-02    0.08       1.0  T
   4    -87.8047637 -0.548525E-04  0.125E-02    0.08       1.2  T
   5    -87.8047840 -0.203103E-04  0.144E-03    0.08      10.3  T
   6    -87.8047816  0.246654E-05  0.435E-03    0.08       3.4  T
   7    -87.8047841 -0.250446E-05  0.216E-04    0.08      68.4  T
   8    -87.8047841 -0.418788E-08  0.104E-04    0.08     142.3  T
   9    -87.8047841 -0.137086E-08  0.151E-05    0.08     977.5  T
     SCC iter.                  ...        0 min,  0.056 sec
     gradient                   ...        0 min,  0.070 sec
 * total energy  :   -87.0204360 Eh     change       -0.1384533E-03 Eh
   gradient norm :     0.0067011 Eh/α   predicted    -0.1096504E-03 ( -20.80%)
   displ. norm   :     0.3400825 α      lambda       -0.1461041E-03
   maximum displ.:     0.2013388 α      in ANC's #1, #2, #14, ...

........................................................................
.............................. CYCLE   31 ..............................
........................................................................
   1    -87.8028590 -0.878029E+02  0.108E-01    0.10       0.0  T
   2    -87.5560516  0.246807E+00  0.134E+00    0.20       1.0  T
   3    -87.8044613 -0.248410E+00  0.752E-03    0.08       2.0  T
   4    -87.8044555  0.573838E-05  0.893E-03    0.08       1.7  T
   5    -87.8044662 -0.107078E-04  0.840E-04    0.08      17.6  T
   6    -87.8044660  0.246138E-06  0.142E-03    0.08      10.4  T
   7    -87.8044662 -0.258031E-06  0.834E-05    0.08     176.7  T
   8    -87.8044662 -0.554238E-09  0.242E-05    0.08     610.4  T
     SCC iter.                  ...        0 min,  0.050 sec
     gradient                   ...        0 min,  0.070 sec
 * total energy  :   -87.0205587 Eh     change       -0.1226427E-03 Eh
   gradient norm :     0.0056651 Eh/α   predicted    -0.8150856E-04 ( -33.54%)
   displ. norm   :     0.4084686 α      lambda       -0.2171834E-03
   maximum displ.:     0.2474058 α      in ANC's #1, #2, #3, ...

........................................................................
.............................. CYCLE   32 ..............................
........................................................................
   1    -87.8041288 -0.878041E+02  0.120E-01    0.11       0.0  T
   2    -87.5468489  0.257280E+00  0.137E+00    0.23       1.0  T
   3    -87.8060770 -0.259228E+00  0.983E-03    0.08       1.5  T
   4    -87.8060845 -0.750816E-05  0.422E-03    0.08       3.5  T
   5    -87.8060847 -0.164018E-06  0.382E-03    0.09       3.9  T
   6    -87.8060861 -0.145117E-05  0.156E-03    0.08       9.5  T
   7    -87.8060864 -0.301096E-06  0.387E-04    0.08      38.1  T
   8    -87.8060864 -0.199172E-07  0.583E-05    0.08     252.8  T
   9    -87.8060864 -0.342382E-09  0.120E-05    0.08    1228.9  T
     SCC iter.                  ...        0 min,  0.056 sec
     gradient                   ...        0 min,  0.071 sec
 * total energy  :   -87.0207168 Eh     change       -0.1581429E-03 Eh
   gradient norm :     0.0041723 Eh/α   predicted    -0.1267110E-03 ( -19.88%)
   displ. norm   :     0.6854522 α      lambda       -0.2528412E-03
   maximum displ.:     0.4029095 α      in ANC's #1, #2, #3, ...

........................................................................
.............................. CYCLE   33 ..............................
........................................................................
   1    -87.7967633 -0.877968E+02  0.173E-01    0.12       0.0  T
   2    -87.5183422  0.278421E+00  0.145E+00    0.35       1.0  T
   3    -87.8002875 -0.281945E+00  0.626E-02    0.08       1.0  T
   4    -87.8007518 -0.464308E-03  0.200E-02    0.09       1.0  T
   5    -87.8008026 -0.507173E-04  0.359E-03    0.09       4.1  T
   6    -87.8008027 -0.175207E-06  0.219E-03    0.09       6.7  T
   7    -87.8008033 -0.534605E-06  0.511E-04    0.09      28.9  T
   8    -87.8008033  0.745453E-08  0.548E-04    0.09      26.9  T
   9    -87.8008033 -0.297076E-07  0.296E-04    0.09      49.9  T
  10    -87.8008033 -0.119018E-07  0.495E-06    0.09    2975.7  T
  11    -87.8008033  0.980549E-12  0.354E-06    0.09    4169.4  T
     SCC iter.                  ...        0 min,  0.070 sec
     gradient                   ...        0 min,  0.071 sec
 * total energy  :   -87.0207887 Eh     change       -0.7188195E-04 Eh
   gradient norm :     0.0103402 Eh/α   predicted    -0.1858256E-03 ( 158.52%)
   displ. norm   :     0.0799878 α      lambda       -0.2227408E-03
   maximum displ.:     0.0433334 α      in ANC's #14, #4, #13, ...

........................................................................
.............................. CYCLE   34 ..............................
........................................................................
   1    -87.8045231 -0.878045E+02  0.266E-02    0.08       0.0  T
   2    -87.7965969  0.792624E-02  0.244E-01    0.14       1.0  T
   3    -87.8046007 -0.800381E-02  0.932E-03    0.09       1.6  T
   4    -87.8046024 -0.173416E-05  0.747E-03    0.09       2.0  T
   5    -87.8046094 -0.696513E-05  0.668E-04    0.09      22.1  T
   6    -87.8046094 -0.406291E-08  0.448E-04    0.09      32.9  T
   7    -87.8046094 -0.236621E-07  0.449E-05    0.09     328.3  T
   8    -87.8046094  0.134307E-09  0.351E-05    0.09     419.8  T
     SCC iter.                  ...        0 min,  0.052 sec
     gradient                   ...        0 min,  0.070 sec
 * total energy  :   -87.0209186 Eh     change       -0.1299222E-03 Eh
   gradient norm :     0.0041812 Eh/α   predicted    -0.1120843E-03 ( -13.73%)
   displ. norm   :     0.2778082 α      lambda       -0.9776391E-04
   maximum displ.:     0.1765015 α      in ANC's #1, #2, #3, ...

........................................................................
.............................. CYCLE   35 ..............................
........................................................................
   1    -87.8056231 -0.878056E+02  0.525E-02    0.10       0.0  T
   2    -87.6875700  0.118053E+00  0.921E-01    0.08       1.0  T
   3    -87.8059479 -0.118378E+00  0.181E-02    0.09       1.0  T
   4    -87.8059943 -0.464240E-04  0.118E-03    0.09      12.5  T
   5    -87.8059943 -0.268594E-07  0.575E-04    0.09      25.7  T
   6    -87.8059942  0.783512E-07  0.769E-04    0.09      19.2  T
   7    -87.8059943 -0.689904E-07  0.272E-04    0.09      54.3  T
   8    -87.8059943 -0.100978E-07  0.201E-05    0.09     735.2  T
   9    -87.8059943 -0.378861E-10  0.982E-06    0.09    1501.5  T
     SCC iter.                  ...        0 min,  0.058 sec
     gradient                   ...        0 min,  0.070 sec
 * total energy  :   -87.0209988 Eh     change       -0.8024191E-04 Eh
   gradient norm :     0.0035366 Eh/α   predicted    -0.5265609E-04 ( -34.38%)
   displ. norm   :     0.4935453 α      lambda       -0.1454401E-03
   maximum displ.:     0.3162104 α      in ANC's #1, #2, #14, ...

........................................................................
.............................. CYCLE   36 ..............................
........................................................................
   1    -87.8043460 -0.878043E+02  0.845E-02    0.10       0.0  T
   2    -87.5860011  0.218345E+00  0.126E+00    0.14       1.0  T
   3    -87.8052790 -0.219278E+00  0.155E-02    0.09       1.0  T
   4    -87.8053060 -0.269470E-04  0.777E-03    0.09       1.9  T
   5    -87.8053129 -0.697922E-05  0.273E-03    0.09       5.4  T
   6    -87.8053137 -0.780121E-06  0.571E-04    0.09      25.8  T
   7    -87.8053137 -0.308527E-07  0.205E-04    0.09      71.8  T
   8    -87.8053138 -0.474482E-08  0.660E-05    0.09     223.5  T
   9    -87.8053138 -0.300645E-09  0.408E-05    0.09     361.1  T
     SCC iter.                  ...        0 min,  0.058 sec
     gradient                   ...        0 min,  0.070 sec
 * total energy  :   -87.0211150 Eh     change       -0.1161732E-03 Eh
   gradient norm :     0.0038506 Eh/α   predicted    -0.9043407E-04 ( -22.16%)
   displ. norm   :     0.5433902 α      lambda       -0.1611388E-03
   maximum displ.:     0.3555581 α      in ANC's #1, #2, #14, ...

........................................................................
.............................. CYCLE   37 ..............................
........................................................................
   1    -87.8043561 -0.878044E+02  0.682E-02    0.10       0.0  T
   2    -87.6329275  0.171429E+00  0.111E+00    0.10       1.0  T
   3    -87.8048739 -0.171946E+00  0.261E-02    0.09       1.0  T
   4    -87.8049683 -0.944432E-04  0.217E-03    0.09       6.8  T
   5    -87.8049684 -0.772571E-07  0.125E-03    0.09      11.8  T
   6    -87.8049684 -0.202892E-07  0.565E-04    0.09      26.1  T
   7    -87.8049685 -0.330989E-07  0.222E-04    0.09      66.4  T
   8    -87.8049685 -0.647373E-08  0.241E-05    0.09     612.0  T
   9    -87.8049685 -0.194689E-10  0.126E-05    0.09    1165.6  T
     SCC iter.                  ...        0 min,  0.058 sec
     gradient                   ...        0 min,  0.070 sec
 * total energy  :   -87.0212294 Eh     change       -0.1144237E-03 Eh
   gradient norm :     0.0059796 Eh/α   predicted    -0.1043640E-03 (  -8.79%)
   displ. norm   :     0.4358924 α      lambda       -0.1568943E-03
   maximum displ.:     0.2892946 α      in ANC's #1, #2, #4, ...

........................................................................
.............................. CYCLE   38 ..............................
........................................................................
   1    -87.8053858 -0.878054E+02  0.414E-02    0.10       0.0  T
   2    -87.7341064  0.712794E-01  0.720E-01    0.06       1.0  T
   3    -87.8055769 -0.714705E-01  0.159E-02    0.09       1.0  T
   4    -87.8056115 -0.345755E-04  0.181E-03    0.09       8.1  T
   5    -87.8056113  0.205967E-06  0.166E-03    0.09       8.9  T
   6    -87.8056116 -0.290391E-06  0.120E-04    0.09     122.9  T
   7    -87.8056116 -0.113006E-08  0.419E-05    0.09     351.5  T
     SCC iter.                  ...        0 min,  0.045 sec
     gradient                   ...        0 min,  0.070 sec
 * total energy  :   -87.0213449 Eh     change       -0.1154095E-03 Eh
   gradient norm :     0.0069042 Eh/α   predicted    -0.9335468E-04 ( -19.11%)
   displ. norm   :     0.3702218 α      lambda       -0.1859932E-03
   maximum displ.:     0.2383473 α      in ANC's #1, #2, #4, ...

........................................................................
.............................. CYCLE   39 ..............................
........................................................................
   1    -87.8079990 -0.878080E+02  0.266E-02    0.10       0.0  T
   2    -87.7852395  0.227594E-01  0.408E-01    0.06       1.0  T
   3    -87.8080339 -0.227944E-01  0.195E-02    0.09       1.0  T
   4    -87.8080725 -0.385709E-04  0.891E-03    0.09       1.7  T
   5    -87.8080788 -0.625068E-05  0.492E-03    0.09       3.0  T
   6    -87.8080818 -0.298705E-05  0.952E-04    0.09      15.5  T
   7    -87.8080819 -0.112976E-06  0.239E-04    0.09      61.7  T
   8    -87.8080819 -0.706196E-08  0.158E-05    0.09     931.7  T
   9    -87.8080819 -0.165272E-10  0.482E-06    0.09    3056.0  T
     SCC iter.                  ...        0 min,  0.058 sec
     gradient                   ...        0 min,  0.070 sec
 * total energy  :   -87.0214559 Eh     change       -0.1110179E-03 Eh
   gradient norm :     0.0065597 Eh/α   predicted    -0.1057430E-03 (  -4.75%)
   displ. norm   :     0.6228692 α      lambda       -0.2364768E-03
   maximum displ.:     0.4096890 α      in ANC's #1, #2, #4, ...

........................................................................
.............................. CYCLE   40 ..............................
........................................................................
   1    -87.8029183 -0.878029E+02  0.135E-01    0.12       0.0  T
   2    -87.5270684  0.275850E+00  0.144E+00    0.25       1.0  T
   3    -87.8053376 -0.278269E+00  0.699E-03    0.09       2.1  T
   4    -87.8053360  0.162657E-05  0.587E-03    0.09       2.5  T
   5    -87.8053357  0.338617E-06  0.585E-03    0.09       2.5  T
   6    -87.8053395 -0.385897E-05  0.145E-03    0.09      10.2  T
   7    -87.8053398 -0.244155E-06  0.364E-04    0.09      40.5  T
   8    -87.8053398 -0.161450E-07  0.631E-05    0.09     233.7  T
   9    -87.8053398 -0.245024E-09  0.163E-05    0.09     906.2  T
     SCC iter.                  ...        0 min,  0.057 sec
     gradient                   ...        0 min,  0.070 sec
 * total energy  :   -87.0216178 Eh     change       -0.1619608E-03 Eh
   gradient norm :     0.0061907 Eh/α   predicted    -0.1641122E-03 (   1.33%)
   displ. norm   :     0.3695466 α      lambda       -0.1534810E-03
   maximum displ.:     0.2441054 α      in ANC's #1, #2, #4, ...

........................................................................
.............................. CYCLE   41 ..............................
........................................................................
   1    -87.8027145 -0.878027E+02  0.136E-01    0.12       0.0  T
   2    -87.5232799  0.279435E+00  0.145E+00    0.25       1.0  T
   3    -87.8051846 -0.281905E+00  0.929E-03    0.10       1.6  T
   4    -87.8051862 -0.158396E-05  0.691E-03    0.09       2.1  T
   5    -87.8051920 -0.588683E-05  0.118E-03    0.10      12.5  T
   6    -87.8051920  0.949191E-07  0.110E-03    0.10      13.4  T
   7    -87.8051921 -0.128140E-06  0.225E-04    0.10      65.5  T
   8    -87.8051921 -0.642935E-08  0.275E-05    0.10     536.3  T
   9    -87.8051921  0.112976E-10  0.188E-05    0.10     785.0  T
     SCC iter.                  ...        0 min,  0.057 sec
     gradient                   ...        0 min,  0.070 sec
 * total energy  :   -87.0217221 Eh     change       -0.1042377E-03 Eh
   gradient norm :     0.0070270 Eh/α   predicted    -0.8722168E-04 ( -16.32%)
   displ. norm   :     0.3206530 α      lambda       -0.1445113E-03
   maximum displ.:     0.2119405 α      in ANC's #1, #2, #4, ...

........................................................................
.............................. CYCLE   42 ..............................
........................................................................
   1    -87.8037769 -0.878038E+02  0.132E-01    0.12       0.0  T
   2    -87.5237720  0.280005E+00  0.145E+00    0.24       1.0  T
   3    -87.8060849 -0.282313E+00  0.531E-03    0.10       2.8  T
   4    -87.8060778  0.712919E-05  0.834E-03    0.10       1.8  T
   5    -87.8060862 -0.839225E-05  0.145E-03    0.10      10.2  T
   6    -87.8060861  0.896797E-07  0.115E-03    0.10      12.9  T
   7    -87.8060863 -0.147135E-06  0.133E-04    0.10     110.6  T
   8    -87.8060863 -0.162261E-08  0.619E-05    0.10     238.4  T
     SCC iter.                  ...        0 min,  0.051 sec
     gradient                   ...        0 min,  0.070 sec
 * total energy  :   -87.0218214 Eh     change       -0.9930705E-04 Eh
   gradient norm :     0.0046840 Eh/α   predicted    -0.7968845E-04 ( -19.76%)
   displ. norm   :     0.4561051 α      lambda       -0.1047108E-03
   maximum displ.:     0.3023806 α      in ANC's #1, #2, #4, ...
 * RMSD in coord.:     1.0233901 α      energy gain  -0.2489485E-02 Eh

generating ANC from model Hessian ...
Using Lindh-Hessian (1995)
 Shifting diagonal of input Hessian by   9.832688901466515E-003
 Lowest  eigenvalues of input Hessian
    0.000000    0.000000    0.000000    0.000000    0.000000    0.000000
    0.010000    0.010133    0.010406    0.010612    0.011237    0.011902
    0.012071    0.012710    0.013583    0.013727    0.014611    0.014931
 Highest eigenvalues
    1.978285    2.002439    2.155256    2.156851    2.332190    2.341038
 

........................................................................
.............................. CYCLE   43 ..............................
........................................................................
   1    -87.8038563 -0.878039E+02  0.119E-01    0.12       0.0  T
   2    -87.5306179  0.273238E+00  0.143E+00    0.21       1.0  T
   3    -87.8057049 -0.275087E+00  0.127E-02    0.10       1.2  T
   4    -87.8057145 -0.962249E-05  0.104E-02    0.10       1.4  T
   5    -87.8057270 -0.125031E-04  0.300E-03    0.10       4.9  T
   6    -87.8057277 -0.670212E-06  0.146E-03    0.10      10.1  T
   7    -87.8057279 -0.234855E-06  0.313E-04    0.10      47.2  T
   8    -87.8057279 -0.963587E-08  0.109E-04    0.10     135.7  T
   9    -87.8057279 -0.101495E-08  0.542E-05    0.10     272.3  T
     SCC iter.                  ...        0 min,  0.057 sec
     gradient                   ...        0 min,  0.071 sec
 * total energy  :   -87.0218957 Eh     change       -0.7428515E-04 Eh
   gradient norm :     0.0043110 Eh/α   predicted     0.0000000E+00 (-100.00%)
   displ. norm   :     0.0420747 α      lambda       -0.5659827E-04
   maximum displ.:     0.0170486 α      in ANC's #8, #11, #3, ...

........................................................................
.............................. CYCLE   44 ..............................
........................................................................
   1    -87.8072252 -0.878072E+02  0.176E-02    0.10       0.0  T
   2    -87.8035578  0.366738E-02  0.169E-01    0.14       1.0  T
   3    -87.8072567 -0.369893E-02  0.906E-03    0.10       1.6  T
   4    -87.8072669 -0.101865E-04  0.164E-03    0.10       9.0  T
   5    -87.8072671 -0.203873E-06  0.895E-04    0.10      16.5  T
   6    -87.8072672 -0.801262E-07  0.259E-04    0.10      56.9  T
   7    -87.8072672 -0.834196E-08  0.272E-05    0.10     541.8  T
   8    -87.8072672 -0.757012E-10  0.667E-06    0.10    2211.0  T
     SCC iter.                  ...        0 min,  0.051 sec
     gradient                   ...        0 min,  0.070 sec
 * total energy  :   -87.0219388 Eh     change       -0.4314729E-04 Eh
   gradient norm :     0.0019122 Eh/α   predicted    -0.2837595E-04 ( -34.23%)
   displ. norm   :     0.1399770 α      lambda       -0.5899364E-04
   maximum displ.:     0.0586598 α      in ANC's #8, #3, #2, ...

........................................................................
.............................. CYCLE   45 ..............................
........................................................................
   1    -87.8089919 -0.878090E+02  0.344E-02    0.09       0.0  T
   2    -87.8000839  0.890807E-02  0.266E-01    0.17       1.0  T
   3    -87.8090514 -0.896748E-02  0.280E-02    0.10       1.0  T
   4    -87.8091447 -0.933775E-04  0.860E-03    0.10       1.7  T
   5    -87.8091490 -0.431554E-05  0.672E-03    0.10       2.2  T
   6    -87.8091547 -0.566729E-05  0.113E-03    0.10      13.0  T
   7    -87.8091549 -0.172479E-06  0.386E-05    0.10     382.0  T
   8    -87.8091549  0.518767E-09  0.644E-05    0.10     228.8  T
     SCC iter.                  ...        0 min,  0.051 sec
     gradient                   ...        0 min,  0.067 sec
 * total energy  :   -87.0219877 Eh     change       -0.4885490E-04 Eh
   gradient norm :     0.0028567 Eh/α   predicted    -0.2975398E-04 ( -39.10%)
   displ. norm   :     0.0724922 α      lambda       -0.2905595E-04
   maximum displ.:     0.0298550 α      in ANC's #2, #8, #3, ...

........................................................................
.............................. CYCLE   46 ..............................
........................................................................
   1    -87.8088400 -0.878088E+02  0.594E-03    0.10       0.0  T
   2    -87.8081552  0.684757E-03  0.721E-02    0.09       1.0  T
   3    -87.8088436 -0.688413E-03  0.220E-03    0.10       6.7  T
   4    -87.8088442 -0.593493E-06  0.472E-04    0.10      31.2  T
   5    -87.8088442 -0.796760E-09  0.312E-04    0.10      47.3  T
   6    -87.8088442 -0.938051E-08  0.647E-05    0.10     227.8  T
   7    -87.8088442 -0.460034E-09  0.102E-05    0.10    1450.0  T
     SCC iter.                  ...        0 min,  0.044 sec
     gradient                   ...        0 min,  0.067 sec
 * total energy  :   -87.0220147 Eh     change       -0.2701374E-04 Eh
   gradient norm :     0.0025163 Eh/α   predicted    -0.1472116E-04 ( -45.50%)
   displ. norm   :     0.3394496 α      lambda       -0.1263874E-03
   maximum displ.:     0.1429330 α      in ANC's #2, #8, #3, ...

........................................................................
.............................. CYCLE   47 ..............................
........................................................................
   1    -87.8059744 -0.878060E+02  0.551E-02    0.11       0.0  T
   2    -87.6884261  0.117548E+00  0.933E-01    0.07       1.0  T
   3    -87.8063210 -0.117895E+00  0.188E-02    0.10       1.0  T
   4    -87.8063688 -0.477811E-04  0.248E-03    0.10       6.0  T
   5    -87.8063690 -0.168502E-06  0.139E-03    0.10      10.6  T
   6    -87.8063688  0.153570E-06  0.132E-03    0.10      11.2  T
   7    -87.8063690 -0.221540E-06  0.275E-04    0.10      53.6  T
   8    -87.8063690 -0.955481E-08  0.450E-05    0.10     328.0  T
   9    -87.8063690 -0.245009E-09  0.672E-06    0.10    2193.1  T
     SCC iter.                  ...        0 min,  0.055 sec
     gradient                   ...        0 min,  0.070 sec
 * total energy  :   -87.0220888 Eh     change       -0.7412738E-04 Eh
   gradient norm :     0.0040482 Eh/α   predicted    -0.7048380E-04 (  -4.92%)
   displ. norm   :     0.0791495 α      lambda       -0.3245419E-04
   maximum displ.:     0.0429422 α      in ANC's #2, #3, #8, ...

........................................................................
.............................. CYCLE   48 ..............................
........................................................................
   1    -87.8064971 -0.878065E+02  0.284E-02    0.10       0.0  T
   2    -87.7787682  0.277288E-01  0.455E-01    0.06       1.0  T
   3    -87.8065970 -0.278288E-01  0.709E-03    0.10       2.1  T
   4    -87.8066039 -0.686317E-05  0.449E-04    0.10      32.8  T
   5    -87.8066039 -0.219454E-08  0.268E-04    0.10      55.1  T
   6    -87.8066038  0.171506E-07  0.365E-04    0.10      40.4  T
   7    -87.8066039 -0.174594E-07  0.502E-05    0.10     293.7  T
   8    -87.8066039 -0.266041E-09  0.204E-05    0.10     723.0  T
     SCC iter.                  ...        0 min,  0.050 sec
     gradient                   ...        0 min,  0.070 sec
 * total energy  :   -87.0221179 Eh     change       -0.2907679E-04 Eh
   gradient norm :     0.0033696 Eh/α   predicted    -0.1636527E-04 ( -43.72%)
   displ. norm   :     0.2228016 α      lambda       -0.9971425E-04
   maximum displ.:     0.1267963 α      in ANC's #2, #3, #7, ...

........................................................................
.............................. CYCLE   49 ..............................
........................................................................
   1    -87.8070661 -0.878071E+02  0.760E-02    0.11       0.0  T
   2    -87.6099031  0.197163E+00  0.121E+00    0.11       1.0  T
   3    -87.8077517 -0.197849E+00  0.235E-02    0.10       1.0  T
   4    -87.8078262 -0.745359E-04  0.221E-03    0.10       6.7  T
   5    -87.8078266 -0.374284E-06  0.892E-04    0.10      16.5  T
   6    -87.8078264  0.169685E-06  0.118E-03    0.10      12.5  T
   7    -87.8078266 -0.171355E-06  0.288E-04    0.10      51.3  T
   8    -87.8078266 -0.103868E-07  0.613E-05    0.10     240.7  T
   9    -87.8078266 -0.487020E-09  0.123E-05    0.10    1193.9  T
     SCC iter.                  ...        0 min,  0.058 sec
     gradient                   ...        0 min,  0.071 sec
 * total energy  :   -87.0221904 Eh     change       -0.7253610E-04 Eh
   gradient norm :     0.0019112 Eh/α   predicted    -0.5235143E-04 ( -27.83%)
   displ. norm   :     0.5409268 α      lambda       -0.8373175E-04
   maximum displ.:     0.2921035 α      in ANC's #2, #3, #6, ...

........................................................................
.............................. CYCLE   50 ..............................
........................................................................
   1    -87.8030976 -0.878031E+02  0.121E-01    0.13       0.0  T
   2    -87.5215567  0.281541E+00  0.146E+00    0.21       1.0  T
   3    -87.8049640 -0.283407E+00  0.174E-02    0.10       1.0  T
   4    -87.8049907 -0.267667E-04  0.108E-02    0.10       1.4  T
   5    -87.8050041 -0.133956E-04  0.306E-03    0.10       4.8  T
   6    -87.8050049 -0.753419E-06  0.895E-04    0.10      16.5  T
   7    -87.8050050 -0.716059E-07  0.209E-04    0.10      70.5  T
   8    -87.8050050 -0.368856E-08  0.643E-05    0.10     229.3  T
   9    -87.8050050 -0.118604E-09  0.435E-05    0.10     338.7  T
     SCC iter.                  ...        0 min,  0.057 sec
     gradient                   ...        0 min,  0.069 sec
 * total energy  :   -87.0222434 Eh     change       -0.5295210E-04 Eh
   gradient norm :     0.0060962 Eh/α   predicted    -0.4731195E-04 ( -10.65%)
   displ. norm   :     0.0945779 α      lambda       -0.9307059E-04
   maximum displ.:     0.0614692 α      in ANC's #2, #7, #3, ...

........................................................................
.............................. CYCLE   51 ..............................
........................................................................
   1    -87.8071689 -0.878072E+02  0.516E-03    0.10       0.0  T
   2    -87.8070916  0.773228E-04  0.248E-02    0.10       1.0  T
   3    -87.8071677 -0.761597E-04  0.459E-03    0.10       3.2  T
   4    -87.8071690 -0.128724E-05  0.288E-03    0.10       5.1  T
   5    -87.8071697 -0.639079E-06  0.130E-03    0.10      11.4  T
   6    -87.8071699 -0.222657E-06  0.937E-05    0.10     157.3  T
   7    -87.8071699 -0.891447E-10  0.768E-05    0.10     192.0  T
     SCC iter.                  ...        0 min,  0.044 sec
     gradient                   ...        0 min,  0.070 sec
 * total energy  :   -87.0223079 Eh     change       -0.6451839E-04 Eh
   gradient norm :     0.0036448 Eh/α   predicted    -0.4695366E-04 ( -27.22%)
   displ. norm   :     0.2076032 α      lambda       -0.7803816E-04
   maximum displ.:     0.1378150 α      in ANC's #2, #3, #7, ...

........................................................................
.............................. CYCLE   52 ..............................
........................................................................
   1    -87.8082393 -0.878082E+02  0.949E-03    0.10       0.0  T
   2    -87.8070300  0.120931E-02  0.969E-02    0.12       1.0  T
   3    -87.8082497 -0.121977E-02  0.332E-03    0.10       4.4  T
   4    -87.8082508 -0.108371E-05  0.106E-03    0.10      14.0  T
   5    -87.8082508  0.722218E-08  0.842E-04    0.10      17.5  T
   6    -87.8082509 -0.841808E-07  0.250E-04    0.10      59.0  T
   7    -87.8082509 -0.811076E-08  0.178E-05    0.10     829.5  T
   8    -87.8082509  0.240306E-10  0.174E-05    0.10     846.5  T
     SCC iter.                  ...        0 min,  0.051 sec
     gradient                   ...        0 min,  0.068 sec
 * total energy  :   -87.0223730 Eh     change       -0.6513050E-04 Eh
   gradient norm :     0.0029607 Eh/α   predicted    -0.4070590E-04 ( -37.50%)
   displ. norm   :     0.3813546 α      lambda       -0.1200835E-03
   maximum displ.:     0.2486276 α      in ANC's #2, #3, #7, ...

........................................................................
.............................. CYCLE   53 ..............................
........................................................................
   1    -87.8079243 -0.878079E+02  0.227E-02    0.09       0.0  T
   2    -87.8029199  0.500440E-02  0.199E-01    0.15       1.0  T
   3    -87.8079764 -0.505649E-02  0.113E-02    0.10       1.3  T
   4    -87.8079899 -0.134413E-04  0.494E-03    0.10       3.0  T
   5    -87.8079910 -0.117843E-05  0.380E-03    0.10       3.9  T
   6    -87.8079930 -0.192518E-05  0.272E-04    0.10      54.2  T
   7    -87.8079930 -0.853326E-08  0.429E-05    0.10     343.6  T
   8    -87.8079930  0.759854E-10  0.387E-05    0.10     380.8  T
     SCC iter.                  ...        0 min,  0.051 sec
     gradient                   ...        0 min,  0.068 sec
 * total energy  :   -87.0224765 Eh     change       -0.1034513E-03 Eh
   gradient norm :     0.0033107 Eh/α   predicted    -0.6877455E-04 ( -33.52%)
   displ. norm   :     0.4726757 α      lambda       -0.1262702E-03
   maximum displ.:     0.3142661 α      in ANC's #2, #3, #7, ...

........................................................................
.............................. CYCLE   54 ..............................
........................................................................
   1    -87.8062405 -0.878062E+02  0.161E-02    0.09       0.0  T
   2    -87.8033957  0.284486E-02  0.149E-01    0.13       1.0  T
   3    -87.8062701 -0.287439E-02  0.476E-03    0.10       3.1  T
   4    -87.8062691  0.911674E-06  0.526E-03    0.10       2.8  T
   5    -87.8062723 -0.312146E-05  0.936E-04    0.10      15.7  T
   6    -87.8062724 -0.968580E-07  0.287E-04    0.10      51.4  T
   7    -87.8062724 -0.918187E-08  0.742E-05    0.10     198.7  T
   8    -87.8062724 -0.355598E-09  0.425E-05    0.10     347.0  T
[...]
C5-C3-O2-C1=179.44            N6-C5-C3-O2=359.87            N6-C5-C3-O4=179.89            C25-C5-C3-O2=180.46           
C25-C5-C3-O4=  0.49           C7-N6-C5-C3=180.08            C7-N6-C5-C25=359.51           C8-C7-N6-C5=178.57            
N21-C7-N6-C5=359.09           C9-C8-C7-N6=248.09            C9-C8-C7-N21= 67.56           C10-C8-C7-N6=  7.75           
C10-C8-C7-N21=187.22          N11-C8-C7-N6=127.30           N11-C8-C7-N21=306.78          H30-C9-C8-C7= 53.73           
H30-C9-C8-C10=294.08          H30-C9-C8-N11=173.23          H31-C9-C8-C7=173.25           H31-C9-C8-C10= 53.60          
H31-C9-C8-N11=292.75          H32-C9-C8-C7=293.19           H32-C9-C8-C10=173.55          H32-C9-C8-N11= 52.69          
H33-C10-C8-C7=301.38          H33-C10-C8-C9= 61.67          H33-C10-C8-N11=182.84         H34-C10-C8-C7=181.44          
H34-C10-C8-C9=301.74          H34-C10-C8-N11= 62.90         H35-C10-C8-C7= 61.67          H35-C10-C8-C9=181.97          
H35-C10-C8-N11=303.14         
           -------------------------------------------------
          |                Final Singlepoint                |
           -------------------------------------------------

          ...................................................
          :                      SETUP                      :
          :.................................................:
          :  # basis functions                 144          :
          :  # atomic orbitals                 144          :
          :  # shells                           92          :
          :  # electrons                       142          :
          :  # halogen bonds                     0          :
          :  max. iterations                   250          :
          :  Hamiltonian                  GFN1-xTB          :
          :  restarted?                      false          :
          :  GBSA solvation                   true          :
          :  PC potential                    false          :
          :  electronic temp.          300.0000000     K    :
          :  accuracy                    1.0000000          :
          :  -> integral cutoff          0.2500000E+02      :
          :  -> integral neglect         0.1000000E-07      :
          :  -> SCF convergence          0.1000000E-05 Eh   :
          :  -> wf. convergence          0.2000000E-04 e    :
          :  Broyden damping             0.4000000          :
          ...................................................

 iter      E             dE          RMSdq      gap      omega  full diag
   1    -87.8088857 -0.878089E+02  0.193E-05    0.10       0.0  T
   2    -87.8088856  0.562737E-08  0.210E-04    0.10      70.2  T
   3    -87.8088857 -0.567429E-08  0.143E-06    0.10   10274.7  T
   4    -87.8088857  0.383693E-12  0.190E-06    0.10    7743.6  T

   *** convergence criteria satisfied after 4 iterations ***

         #    Occupation            Energy/Eh            Energy/eV
      -------------------------------------------------------------
         1        2.0000           -0.8141699             -22.1547
       ...           ...                  ...                  ...
        65        2.0000           -0.4214351             -11.4678
        66        2.0000           -0.4174868             -11.3604
        67        2.0000           -0.4157603             -11.3134
        68        2.0000           -0.4018534             -10.9350
        69        2.0000           -0.3957665             -10.7694
        70        2.0000           -0.3918606             -10.6631
        71        1.7629           -0.3060096              -8.3269 (HOMO)
        72        0.2371           -0.3021980              -8.2232 (LUMO)
        73                         -0.2561218              -6.9694
        74                         -0.2143627              -5.8331
        75                         -0.2037500              -5.5443
        76                         -0.1617074              -4.4003
       ...                                ...                  ...
       144                          0.7269685              19.7818
      -------------------------------------------------------------
                  HL-Gap            0.0038116 Eh            0.1037 eV
             Fermi-level           -0.3041038 Eh           -8.2751 eV

 SCC (total)                   0 d,  0 h,  0 min,  0.129 sec
 SCC setup                      ...        0 min,  0.002 sec (  1.507%)
 Dispersion                     ...        0 min,  0.000 sec (  0.223%)
 classical contributions        ...        0 min,  0.000 sec (  0.074%)
 integral evaluation            ...        0 min,  0.029 sec ( 22.689%)
 iterations                     ...        0 min,  0.027 sec ( 20.754%)
 molecular gradient             ...        0 min,  0.069 sec ( 53.609%)
 printout                       ...        0 min,  0.001 sec (  1.130%)

         :::::::::::::::::::::::::::::::::::::::::::::::::::::
         ::                     SUMMARY                     ::
         :::::::::::::::::::::::::::::::::::::::::::::::::::::
         :: total energy             -87.023272635914 Eh    ::
         :: total w/o Gsasa/hb       -86.998929451166 Eh    ::
         :: gradient norm              0.000608290490 Eh/a0 ::
         :: HOMO-LUMO gap              0.103720265166 eV    ::
         ::.................................................::
         :: SCC energy               -87.808885654398 Eh    ::
         :: -> electrostatic           0.418141546824 Eh    ::
         :: -> Gsolv                  -0.105605916509 Eh    ::
         ::    -> Gelec               -0.081262731761 Eh    ::
         ::    -> Gsasa               -0.025566831416 Eh    ::
         ::    -> Ghb                 -0.006400632336 Eh    ::
         ::    -> Gshift               0.007624279005 Eh    ::
         :: repulsion energy           0.814822240832 Eh    ::
         :: dispersion energy         -0.029209222348 Eh    ::
         :: halogen bond corr.         0.000000000000 Eh    ::
         :: add. restraining           0.000000000000 Eh    ::
         :: total charge              -1.000000000000 e     ::
         :::::::::::::::::::::::::::::::::::::::::::::::::::::

           -------------------------------------------------
          |                Property Printout                |
           -------------------------------------------------

    * Orbital Energies and Occupations

         #    Occupation            Energy/Eh            Energy/eV
      -------------------------------------------------------------
         1        2.0000           -0.8141699             -22.1547
       ...           ...                  ...                  ...
        59        2.0000           -0.4739631             -12.8972
        60        2.0000           -0.4575212             -12.4498
        61        2.0000           -0.4466777             -12.1547
        62        2.0000           -0.4408284             -11.9956
        63        2.0000           -0.4368932             -11.8885
        64        2.0000           -0.4323129             -11.7638
        65        2.0000           -0.4214351             -11.4678
        66        2.0000           -0.4174868             -11.3604
        67        2.0000           -0.4157603             -11.3134
        68        2.0000           -0.4018534             -10.9350
        69        2.0000           -0.3957665             -10.7694
        70        2.0000           -0.3918606             -10.6631
        71        1.7629           -0.3060096              -8.3269 (HOMO)
        72        0.2371           -0.3021980              -8.2232 (LUMO)
        73                         -0.2561218              -6.9694
        74                         -0.2143627              -5.8331
        75                         -0.2037500              -5.5443
        76                         -0.1617074              -4.4003
        77                         -0.1302564              -3.5445
        78                         -0.1296459              -3.5278
        79                         -0.1261482              -3.4327
        80                         -0.1221793              -3.3247
        81                         -0.1130575              -3.0765
        82                         -0.1072785              -2.9192
       ...                                ...                  ...
       144                          0.7269685              19.7818
      -------------------------------------------------------------
                  HL-Gap            0.0038116 Eh            0.1037 eV
             Fermi-level           -0.3041038 Eh           -8.2751 eV

  Mulliken/CM5 charges         n(s)   n(p)   n(d)
     1C     0.17013  0.05047   0.974  2.856  0.000
     2O    -0.43274 -0.51396   1.690  4.743  0.000
     3C     0.54670  0.61124   0.970  2.484  0.000
     4O    -0.59813 -0.64303   1.731  4.867  0.000
     5C     0.05751  0.13489   1.035  2.907  0.000
     6N    -0.38878 -0.57671   1.526  3.863  0.000
     7C     0.26122  0.41178   1.023  2.715  0.000
     8C     0.14564  0.18216   1.069  2.785  0.000
     9C    -0.09578 -0.23616   1.015  3.081  0.000
    10C    -0.09216 -0.23006   1.015  3.077  0.000
    11N    -0.40991 -0.74792   1.490  3.920  0.000
    12C     0.20315  0.28325   0.955  2.842  0.000
    13O    -0.47581 -0.55916   1.689  4.787  0.000
    14C     0.16744  0.04788   0.975  2.858  0.000
    15C     0.30407  0.41485   0.997  2.699  0.000
    16N    -0.39858 -0.50227   1.583  3.816  0.000
    17N    -0.31184 -0.42097   1.572  3.740  0.000
    18C     0.34292  0.45185   0.991  2.666  0.000
    19C    -0.10980 -0.24691   1.008  3.102  0.000
    20O    -0.41856 -0.46904   1.709  4.710  0.000
    21N    -0.22395 -0.47024   1.453  3.771  0.000
    22C     0.05533 -0.03166   0.988  2.956  0.000
    23C     0.40699  0.50610   0.986  2.607  0.000
    24O    -0.62821 -0.67778   1.736  4.892  0.000
    25C     0.19185  0.22474   1.021  2.787  0.000
    26O    -0.52622 -0.71762   1.699  4.827  0.000
    27H     0.03994  0.10159   0.960  0.000  0.000
    28H     0.03983  0.10144   0.960  0.000  0.000
    29H     0.04050  0.10074   0.960  0.000  0.000
    30H     0.02572  0.08040   0.974  0.000  0.000
    31H     0.04625  0.10567   0.954  0.000  0.000
    32H     0.03394  0.09266   0.966  0.000  0.000
    33H     0.02646  0.08524   0.974  0.000  0.000
    34H     0.02964  0.08759   0.970  0.000  0.000
    35H     0.03161  0.09231   0.968  0.000  0.000
    36H     0.20044  0.40294   0.800  0.000  0.000
    37H     0.02532  0.08505   0.975  0.000  0.000
    38H     0.01744  0.07773   0.983  0.000  0.000
    39H     0.01293  0.07283   0.987  0.000  0.000
    40H     0.05014  0.10436   0.950  0.000  0.000
    41H     0.04420  0.09995   0.956  0.000  0.000
    42H     0.05043  0.10456   0.950  0.000  0.000
    43H     0.04709  0.11058   0.953  0.000  0.000
    44H     0.04587  0.12119   0.954  0.000  0.000
    45H     0.05890  0.12689   0.941  0.000  0.000
    46H     0.39091  0.57057   0.609  0.000  0.000

Wiberg/Mayer (AO) data.
largest (>0.10) Wiberg bond orders for each atom

 ---------------------------------------------------------------------------
     #   Z sym  total        # sym  WBO       # sym  WBO       # sym  WBO
 ---------------------------------------------------------------------------
     1   6 C    3.890 --    29 H    0.987    27 H    0.980    28 H    0.980
                             2 O    0.917
     2   8 O    2.147 --     3 C    1.055     1 C    0.917     4 O    0.116
     3   6 C    3.783 --     4 O    1.598     5 C    1.062     2 O    1.055
     4   8 O    1.836 --     3 C    1.598     2 O    0.116
     5   6 C    3.878 --    25 C    1.390     6 N    1.182     3 C    1.062
     6   7 N    3.019 --     7 C    1.572     5 C    1.182
     7   6 C    3.908 --     6 N    1.572    21 N    1.146     8 C    0.982
     8   6 C    3.956 --    10 C    0.992     9 C    0.986     7 C    0.982
                            11 N    0.938
     9   6 C    3.993 --    30 H    0.987     8 C    0.986    32 H    0.981
                            31 H    0.981
    10   6 C    3.994 --     8 C    0.992    33 H    0.985    35 H    0.984
                            34 H    0.984
    11   7 N    3.055 --    12 C    0.983     8 C    0.938    36 H    0.934
    12   6 C    3.589 --    15 C    1.419    11 N    0.983    13 O    0.960
    13   8 O    2.015 --    12 C    0.960    14 C    0.927
    14   6 C    3.910 --    37 H    0.986    38 H    0.983    39 H    0.983
                            13 O    0.927
    15   6 C    3.866 --    12 C    1.419    16 N    1.314    20 O    0.979
    16   7 N    2.739 --    15 C    1.314    17 N    1.158
    17   7 N    2.981 --    18 C    1.663    16 N    1.158
    18   6 C    3.837 --    17 N    1.663    19 C    1.022    20 O    1.013
    19   6 C    3.994 --    18 C    1.022    41 H    0.986    40 H    0.973
                            42 H    0.972
    20   8 O    2.192 --    18 C    1.013    15 C    0.979
    21   7 N    3.431 --     7 C    1.146    23 C    1.096    22 C    0.935
                            24 O    0.117
    22   6 C    3.930 --    43 H    0.978    45 H    0.977    44 H    0.971
                            21 N    0.935
    23   6 C    3.872 --    24 O    1.494    25 C    1.147    21 N    1.096
    24   8 O    1.818 --    23 C    1.494    21 N    0.117
    25   6 C    3.805 --     5 C    1.390    23 C    1.147    26 O    1.063
    26   8 O    2.022 --    25 C    1.063    46 H    0.823
    27   1 H    1.011 --     1 C    0.980
    28   1 H    1.011 --     1 C    0.980
    29   1 H    1.014 --     1 C    0.987
    30   1 H    1.005 --     9 C    0.987
    31   1 H    1.013 --     9 C    0.981
    32   1 H    1.008 --     9 C    0.981
    33   1 H    1.016 --    10 C    0.985
    34   1 H    1.013 --    10 C    0.984
    35   1 H    1.018 --    10 C    0.984
    36   1 H    0.987 --    11 N    0.934
    37   1 H    1.018 --    14 C    0.986
    38   1 H    1.017 --    14 C    0.983
    39   1 H    1.016 --    14 C    0.983
    40   1 H    1.003 --    19 C    0.973
    41   1 H    1.005 --    19 C    0.986
    42   1 H    1.003 --    19 C    0.972
    43   1 H    1.004 --    22 C    0.978
    44   1 H    1.031 --    22 C    0.971
    45   1 H    1.011 --    22 C    0.977
    46   1 H    0.865 --    26 O    0.823
 ---------------------------------------------------------------------------

Topologies differ in total number of bonds
Writing topology from bond orders to xtbtopo.mol

 dipole moment from electron density (au)
     X       Y       Z   
  -2.9853  -1.3038   0.8163  total (Debye):    8.536

           -------------------------------------------------
          |                Geometry Summary                 |
           -------------------------------------------------

      molecular mass/u    :      366.3497991
   center of mass at/Å    :        0.4275659       0.0438998      -0.1500333
  moments of inertia/u·Å² :        0.1580403E+04   0.4605838E+04   0.5495980E+04
rotational constants/cm⁻¹ :        0.1066666E-01   0.3660058E-02   0.3067266E-02

 * 42 selected distances

     #   Z          #   Z                                           value/Å
     1   6 C        2   8 O                                       1.4232928
     2   8 O        3   6 C                                       1.3557113
     3   6 C        4   8 O                                       1.2203009
     5   6 C        6   7 N                                       1.3699325
     6   7 N        7   6 C                                       1.2945422
     8   6 C        9   6 C                                       1.5350294
     8   6 C       10   6 C                                       1.5392719 (max)
    12   6 C       13   8 O                                       1.3869013
    13   8 O       14   6 C                                       1.4267194
    12   6 C       15   6 C                                       1.3735377
    15   6 C       16   7 N                                       1.3483012
    17   7 N       18   6 C                                       1.2867358
    18   6 C       19   6 C                                       1.4856663
    15   6 C       20   8 O                                       1.3777872
    18   6 C       20   8 O                                       1.3685142
     7   6 C       21   7 N                                       1.3792085
    21   7 N       22   6 C                                       1.4622375
    21   7 N       23   6 C                                       1.3934481
    23   6 C       24   8 O                                       1.2395677
     5   6 C       25   6 C                                       1.3852748
    23   6 C       25   6 C                                       1.4329156
    25   6 C       26   8 O                                       1.3554016
     1   6 C       27   1 H                                       1.0942447
     1   6 C       28   1 H                                       1.0945141
     1   6 C       29   1 H                                       1.0891590
     9   6 C       30   1 H                                       1.0898188
     9   6 C       31   1 H                                       1.0891519
     9   6 C       32   1 H                                       1.0875321
    10   6 C       33   1 H                                       1.0888649
    10   6 C       34   1 H                                       1.0894952
    10   6 C       35   1 H                                       1.0902701
    11   7 N       36   1 H                                       1.0228920
    14   6 C       37   1 H                                       1.0911527
    14   6 C       38   1 H                                       1.0968379
    14   6 C       39   1 H                                       1.0967964
    19   6 C       40   1 H                                       1.0906234
    19   6 C       41   1 H                                       1.0879833
    19   6 C       42   1 H                                       1.0908047
    22   6 C       43   1 H                                       1.0914205
    22   6 C       44   1 H                                       1.0861072
    22   6 C       45   1 H                                       1.0907701
    26   8 O       46   1 H                                       0.9733789 (min)

 * 6 distinct bonds (by element types)

   Z      Z             #   av. dist./Å        max./Å        min./Å
   1 H    6 C          18     1.0908637     1.0968379     1.0861072
   6 C    6 C           6     1.4586160     1.5392719     1.3735377
   1 H    7 N           1     1.0228920     1.0228920     1.0228920
   6 C    7 N           7     1.3620580     1.4622375     1.2867358
   1 H    8 O           1     0.9733789     0.9733789     0.9733789
   6 C    8 O           9     1.3504663     1.4267194     1.2203009


optimized geometry written to: xtbopt.xyz


           -------------------------------------------------
          | TOTAL ENERGY              -87.023272635914 Eh   |
          | GRADIENT NORM               0.000608290490 Eh/α |
          | HOMO-LUMO GAP               0.103720265166 eV   |
           -------------------------------------------------

------------------------------------------------------------------------
 * finished run on 2023/06/20 at 15:23:00.434     
------------------------------------------------------------------------
 total:
 * wall-time:     0 d,  0 h,  0 min, 12.079 sec
 *  cpu-time:     0 d,  0 h,  0 min, 12.029 sec
 * ratio c/w:     0.996 speedup
 SCF:
 * wall-time:     0 d,  0 h,  0 min,  0.235 sec
 *  cpu-time:     0 d,  0 h,  0 min,  0.235 sec
 * ratio c/w:     1.000 speedup
 ANC optimizer:
 * wall-time:     0 d,  0 h,  0 min, 11.762 sec
 *  cpu-time:     0 d,  0 h,  0 min, 11.750 sec
 * ratio c/w:     0.999 speedup

