      -----------------------------------------------------------      
     |                   =====================                   |     
     |                           x T B                           |     
     |                   =====================                   |     
     |                         S. Grimme                         |     
     |          Mulliken Center for Theoretical Chemistry        |     
     |                    University of Bonn                     |     
      -----------------------------------------------------------      

   * xtb version 6.5.1 (579679a) compiled by 'ehlert@majestix' on 2022-07-11

   xtb is free software: you can redistribute it and/or modify it under
   the terms of the GNU Lesser General Public License as published by
   the Free Software Foundation, either version 3 of the License, or
   (at your option) any later version.
   
   xtb is distributed in the hope that it will be useful,
   but WITHOUT ANY WARRANTY; without even the implied warranty of
   MERCHANTABILITY or FITNESS FOR A PARTICULAR PURPOSE.  See the
   GNU Lesser General Public License for more details.
   
   Cite this work as:
   * C. Bannwarth, E. Caldeweyher, S. Ehlert, A. Hansen, P. Pracht,
     J. Seibert, S. Spicher, S. Grimme, WIREs Comput. Mol. Sci., 2020, 11,
     e01493. DOI: 10.1002/wcms.1493
   
   for GFN2-xTB:
   * C. Bannwarth, S. Ehlert and S. Grimme., J. Chem. Theory Comput., 2019,
     15, 1652-1671. DOI: 10.1021/acs.jctc.8b01176
   for GFN1-xTB:
   * S. Grimme, C. Bannwarth, P. Shushkov, J. Chem. Theory Comput., 2017,
     13, 1989-2009. DOI: 10.1021/acs.jctc.7b00118
   for GFN0-xTB:
   * P. Pracht, E. Caldeweyher, S. Ehlert, S. Grimme, ChemRxiv, 2019, preprint.
     DOI: 10.26434/chemrxiv.8326202.v1
   for GFN-FF:
   * S. Spicher and S. Grimme, Angew. Chem. Int. Ed., 2020, 59, 15665-15673.
     DOI: 10.1002/anie.202004239
   
   for ALPB and GBSA implicit solvation:
   * S. Ehlert, M. Stahn, S. Spicher, S. Grimme, J. Chem. Theory Comput.,
     2021, 17, 4250-4261. DOI: 10.1021/acs.jctc.1c00471
   
   for DFT-D4:
   * E. Caldeweyher, C. Bannwarth and S. Grimme, J. Chem. Phys., 2017,
     147, 034112. DOI: 10.1063/1.4993215
   * E. Caldeweyher, S. Ehlert, A. Hansen, H. Neugebauer, S. Spicher,
     C. Bannwarth and S. Grimme, J. Chem. Phys., 2019, 150, 154122.
     DOI: 10.1063/1.5090222
   * E. Caldeweyher, J.-M. Mewes, S. Ehlert and S. Grimme, Phys. Chem. Chem. Phys.
     2020, 22, 8499-8512. DOI: 10.1039/D0CP00502A
   
   for sTDA-xTB:
   * S. Grimme and C. Bannwarth, J. Chem. Phys., 2016, 145, 054103.
     DOI: 10.1063/1.4959605
   
   in the mass-spec context:
   * V. Asgeirsson, C. Bauer and S. Grimme, Chem. Sci., 2017, 8, 4879.
     DOI: 10.1039/c7sc00601b
   * J. Koopman and S. Grimme, ACS Omega 2019, 4, 12, 15120-15133.
     DOI: 10.1021/acsomega.9b02011
   
   for metadynamics refer to:
   * S. Grimme, J. Chem. Theory Comput., 2019, 155, 2847-2862
     DOI: 10.1021/acs.jctc.9b00143
   
   for SPH calculations refer to:
   * S. Spicher and S. Grimme, J. Chem. Theory Comput., 2021, 17, 1701-1714
     DOI: 10.1021/acs.jctc.0c01306
   
   with help from (in alphabetical order)
   P. Atkinson, C. Bannwarth, F. Bohle, G. Brandenburg, E. Caldeweyher
   M. Checinski, S. Dohm, S. Ehlert, S. Ehrlich, I. Gerasimov, C. Hölzer
   A. Katbashev, J. Koopman, C. Lavigne, S. Lehtola, F. März, M. Müller,
   F. Musil, H. Neugebauer, J. Pisarek, C. Plett, P. Pracht, F. Pultar,
   J. Seibert, P. Shushkov, S. Spicher, M. Stahn, M. Steiner, T. Strunk,
   J. Stückrath, T. Rose, and J. Unsleber
   
 * started run on 2023/06/20 at 18:17:44.359     

           -------------------------------------------------
          |                Calculation Setup                |
           -------------------------------------------------

          program call               : /lustre/hpc/kemi/ree/PhD/git/ReactivityQM/dep/xtb-6.5.1/bin/xtb --gfn 1 /lustre/hpc/kemi/ree/PhD/git/ReactivityQM/calculations/R02deprot/reac01prodN10/conf15/R02deprot_reac01prodN10_conf15_gfn1.xyz --opt --vfukui --chrg 0 --uhf 0 --alpb DMSO
          hostname                   : node308
          coordinate file            : /lustre/hpc/kemi/ree/PhD/git/ReactivityQM/calculations/R02deprot/reac01prodN10/conf15/R02deprot_reac01prodN10_conf15_gfn1.xyz
          omp threads                :                     1

   ID    Z sym.   atoms
    1    6 C      1, 3, 5, 6, 8-11, 13, 15, 18, 19, 22, 24
    2    8 O      2, 4, 14, 20, 23, 25
    3    7 N      7, 12, 16, 17, 21
    4    1 H      26-42

           -------------------------------------------------
          |                 G F N 1 - x T B                 |
           -------------------------------------------------

        Reference                      10.1021/acs.jctc.7b00118
      * Hamiltonian:
        H0-scaling (s, p, d)           1.850000    2.250000    2.000000
        zeta-weighting                 0.000000
      * Dispersion:
        s8                             2.400000
        a1                             0.630000
        a2                             5.000000
        s9                             0.000000
      * Repulsion:
        kExp                           1.500000
        rExp                           1.000000
      * Coulomb:
        alpha                          2.000000
        third order                    atomic
        anisotropic                    false
      * Halogen bond correction:
        rad-scale                      1.300000
        damping                        0.440000

      * Solvation model:               ALPB
        Solvent                        DMSO
        Parameter file                 internal GFN1-xTB/ALPB
        Dielectric constant                4.6680E+01
        Reference state                gsolv [1 M gas/solution]
        Free energy shift                  7.6243E-03 Eh       4.7843E+00 kcal/mol
        Temperature                        2.9815E+02 K
        Density                            1.1000E+00 kg/L
        Solvent mass                       7.8130E+01 g/mol
        Interaction kernel             P16
        Born radius scaling (c1)           1.7672E+00
        Born radii integrator          GBOBC
        Born offset                        0.0000E+00 a0       0.0000E+00 AA
        H-bond correction              true
        Ion screening                  false
        Surface tension                    1.0000E-05 Eh       1.5569E+01 dyn/cm
        Grid points                               230 per atom

          ...................................................
          :                      SETUP                      :
          :.................................................:
          :  # basis functions                 134          :
          :  # atomic orbitals                 134          :
          :  # shells                           84          :
          :  # electrons                       134          :
          :  # halogen bonds                     0          :
          :  max. iterations                   250          :
          :  Hamiltonian                  GFN1-xTB          :
          :  restarted?                      false          :
          :  GBSA solvation                   true          :
          :  PC potential                    false          :
          :  electronic temp.          300.0000000     K    :
          :  accuracy                    1.0000000          :
          :  -> integral cutoff          0.2500000E+02      :
          :  -> integral neglect         0.1000000E-07      :
          :  -> SCF convergence          0.1000000E-05 Eh   :
          :  -> wf. convergence          0.2000000E-04 e    :
          :  Broyden damping             0.4000000          :
          ...................................................

 iter      E             dE          RMSdq      gap      omega  full diag
   1    -83.3419363 -0.833419E+02  0.843E+00    1.92       0.0  T
   2    -83.6520838 -0.310148E+00  0.507E+00    0.89       1.0  T
   3    -83.5992841  0.527998E-01  0.206E+00    1.69       1.0  T
   4    -83.6596865 -0.604024E-01  0.630E-01    0.85       1.0  T
   5    -83.6796145 -0.199280E-01  0.305E-01    1.20       1.0  T
   6    -83.6846364 -0.502190E-02  0.628E-02    1.08       1.0  T
   7    -83.6847762 -0.139824E-03  0.121E-02    1.04       1.3  T
   8    -83.6847814 -0.522079E-05  0.770E-03    1.05       2.0  T
   9    -83.6847825 -0.106042E-05  0.314E-03    1.05       4.9  T
  10    -83.6847826 -0.158053E-06  0.145E-03    1.05      10.6  T
  11    -83.6847827 -0.680897E-07  0.452E-04    1.05      34.2  T
  12    -83.6847827 -0.759641E-08  0.403E-05    1.05     382.9  T
  13    -83.6847827 -0.511164E-10  0.120E-05    1.05    1285.2  T

   *** convergence criteria satisfied after 13 iterations ***

         #    Occupation            Energy/Eh            Energy/eV
      -------------------------------------------------------------
         1        2.0000           -0.8745533             -23.7978
       ...           ...                  ...                  ...
        61        2.0000           -0.4618446             -12.5674
        62        2.0000           -0.4528979             -12.3240
        63        2.0000           -0.4514976             -12.2859
        64        2.0000           -0.4430655             -12.0564
        65        2.0000           -0.4381973             -11.9240
        66        2.0000           -0.4365460             -11.8790
        67        2.0000           -0.4323036             -11.7636 (HOMO)
        68                         -0.3938412             -10.7170 (LUMO)
        69                         -0.3149204              -8.5694
        70                         -0.3066921              -8.3455
        71                         -0.2771601              -7.5419
        72                         -0.2587015              -7.0396
       ...                                ...                  ...
       134                          0.6957255              18.9317
      -------------------------------------------------------------
                  HL-Gap            0.0384623 Eh            1.0466 eV
             Fermi-level           -0.4130660 Eh          -11.2401 eV

 SCC (total)                   0 d,  0 h,  0 min,  0.257 sec
 SCC setup                      ...        0 min,  0.002 sec (  0.908%)
 Dispersion                     ...        0 min,  0.000 sec (  0.177%)
 classical contributions        ...        0 min,  0.000 sec (  0.053%)
 integral evaluation            ...        0 min,  0.059 sec ( 23.128%)
 iterations                     ...        0 min,  0.112 sec ( 43.483%)
 molecular gradient             ...        0 min,  0.082 sec ( 31.787%)
 printout                       ...        0 min,  0.001 sec (  0.444%)

         :::::::::::::::::::::::::::::::::::::::::::::::::::::
         ::                     SUMMARY                     ::
         :::::::::::::::::::::::::::::::::::::::::::::::::::::
         :: total energy             -82.930988071347 Eh    ::
         :: total w/o Gsasa/hb       -82.906496271265 Eh    ::
         :: gradient norm              0.126559664134 Eh/a0 ::
         :: HOMO-LUMO gap              1.046613670770 eV    ::
         ::.................................................::
         :: SCC energy               -83.684782710155 Eh    ::
         :: -> electrostatic           0.357452950447 Eh    ::
         :: -> Gsolv                  -0.053164178290 Eh    ::
         ::    -> Gelec               -0.028672378208 Eh    ::
         ::    -> Gsasa               -0.024144853895 Eh    ::
         ::    -> Ghb                 -0.007971225192 Eh    ::
         ::    -> Gshift               0.007624279005 Eh    ::
         :: repulsion energy           0.779712675715 Eh    ::
         :: dispersion energy         -0.025918036908 Eh    ::
         :: halogen bond corr.         0.000000000000 Eh    ::
         :: add. restraining           0.000000000000 Eh    ::
         :: total charge               0.000000000044 e     ::
         :::::::::::::::::::::::::::::::::::::::::::::::::::::

      ----------------------------------------------------------- 
     |                   =====================                   |
     |                        A N C O P T                        |
     |                   =====================                   |
     |               Approximate Normal Coordinate               |
     |                Rational Function Optimizer                |
      ----------------------------------------------------------- 

          ...................................................
          :                      SETUP                      :
          :.................................................:
          :   optimization level            normal          :
          :   max. optcycles                   200          :
          :   ANC micro-cycles                  20          :
          :   degrees of freedom               120          :
          :.................................................:
          :   RF solver                   davidson          :
          :   write xtbopt.log                true          :
          :   linear?                        false          :
          :   energy convergence         0.5000000E-05 Eh   :
          :   grad. convergence          0.1000000E-02 Eh/α :
          :   maximium RF displ.         1.0000000          :
          :   Hlow (freq-cutoff)         0.1000000E-01      :
          :   Hmax (freq-cutoff)         5.0000000          :
          :   S6 in model hess.         20.0000000          :
          ...................................................

generating ANC from model Hessian ...
Using Lindh-Hessian (1995)
 Shifting diagonal of input Hessian by   9.822275068707290E-003
 Lowest  eigenvalues of input Hessian
    0.000000    0.000000    0.000000    0.000000    0.000000    0.000000
    0.010000    0.010082    0.010805    0.010861    0.011454    0.012382
    0.013387    0.014401    0.014546    0.015122    0.017297    0.017595
 Highest eigenvalues
    2.034573    2.102978    2.134109    2.278709    2.347216    2.356873
 

........................................................................
.............................. CYCLE    1 ..............................
........................................................................
   1    -83.6847827 -0.836848E+02  0.770E-06    1.05       0.0  T
   2    -83.6847827  0.210321E-11  0.882E-06    1.05    1748.9  T
   3    -83.6847827 -0.488853E-11  0.184E-06    1.05    8383.3  T
     SCC iter.                  ...        0 min,  0.011 sec
     gradient                   ...        0 min,  0.082 sec
 * total energy  :   -82.9309881 Eh     change       -0.3339551E-11 Eh
   gradient norm :     0.1265595 Eh/α   predicted     0.0000000E+00 (-100.00%)
   displ. norm   :     0.3163882 α      lambda       -0.1768458E-01
   maximum displ.:     0.1732199 α      in ANC's #24, #26, #22, ...

........................................................................
.............................. CYCLE    2 ..............................
........................................................................
   1    -83.7003665 -0.837004E+02  0.111E-01    1.15       0.0  T
   2    -83.7004076 -0.410208E-04  0.106E-01    1.06       1.0  T
   3    -83.7010359 -0.628316E-03  0.270E-02    1.12       1.0  T
   4    -83.7010581 -0.221770E-04  0.122E-02    1.11       1.3  T
   5    -83.7010581 -0.790613E-07  0.247E-03    1.11       6.2  T
   6    -83.7010583 -0.185639E-06  0.654E-04    1.11      23.6  T
   7    -83.7010583 -0.900074E-08  0.208E-04    1.11      74.2  T
   8    -83.7010583 -0.766775E-09  0.780E-05    1.11     197.7  T
   9    -83.7010583 -0.633804E-10  0.200E-05    1.11     770.6  T
     SCC iter.                  ...        0 min,  0.027 sec
     gradient                   ...        0 min,  0.081 sec
 * total energy  :   -82.9439672 Eh     change       -0.1297918E-01 Eh
   gradient norm :     0.0656916 Eh/α   predicted    -0.9738510E-02 ( -24.97%)
   displ. norm   :     0.3641023 α      lambda       -0.8697582E-02
   maximum displ.:     0.2021891 α      in ANC's #24, #16, #26, ...

........................................................................
.............................. CYCLE    3 ..............................
........................................................................
   1    -83.7133888 -0.837134E+02  0.108E-01    1.19       0.0  T
   2    -83.7135570 -0.168132E-03  0.846E-02    1.11       1.0  T
   3    -83.7139542 -0.397290E-03  0.249E-02    1.16       1.0  T
   4    -83.7139731 -0.188886E-04  0.107E-02    1.15       1.4  T
   5    -83.7139732 -0.635438E-07  0.231E-03    1.15       6.7  T
   6    -83.7139733 -0.139551E-06  0.560E-04    1.15      27.5  T
   7    -83.7139733 -0.659362E-08  0.179E-04    1.15      86.3  T
   8    -83.7139733 -0.428741E-09  0.768E-05    1.15     201.0  T
     SCC iter.                  ...        0 min,  0.029 sec
     gradient                   ...        0 min,  0.073 sec
 * total energy  :   -82.9492754 Eh     change       -0.5308138E-02 Eh
   gradient norm :     0.0219607 Eh/α   predicted    -0.4925314E-02 (  -7.21%)
   displ. norm   :     0.2512703 α      lambda       -0.1634931E-02
   maximum displ.:     0.1097059 α      in ANC's #24, #16, #14, ...

........................................................................
.............................. CYCLE    4 ..............................
........................................................................
   1    -83.7172285 -0.837172E+02  0.296E-02    1.17       0.0  T
   2    -83.7172523 -0.237843E-04  0.140E-02    1.16       1.1  T
   3    -83.7172590 -0.669570E-05  0.840E-03    1.17       1.8  T
   4    -83.7172604 -0.146933E-05  0.366E-03    1.16       4.2  T
   5    -83.7172606 -0.165672E-06  0.892E-04    1.16      17.3  T
   6    -83.7172606 -0.890712E-08  0.185E-04    1.16      83.4  T
   7    -83.7172606 -0.872021E-09  0.684E-05    1.16     225.5  T
     SCC iter.                  ...        0 min,  0.026 sec
     gradient                   ...        0 min,  0.077 sec
 * total energy  :   -82.9504588 Eh     change       -0.1183373E-02 Eh
   gradient norm :     0.0134116 Eh/α   predicted    -0.8690917E-03 ( -26.56%)
   displ. norm   :     0.2802891 α      lambda       -0.1022287E-02
   maximum displ.:     0.1113915 α      in ANC's #7, #16, #24, ...

........................................................................
.............................. CYCLE    5 ..............................
........................................................................
   1    -83.7197577 -0.837198E+02  0.183E-02    1.17       0.0  T
   2    -83.7197690 -0.112419E-04  0.109E-02    1.18       1.4  T
   3    -83.7197710 -0.207135E-05  0.479E-03    1.17       3.2  T
   4    -83.7197712 -0.183234E-06  0.419E-03    1.17       3.7  T
   5    -83.7197716 -0.424613E-06  0.704E-04    1.17      21.9  T
   6    -83.7197716 -0.960112E-08  0.151E-04    1.17     101.9  T
   7    -83.7197716 -0.782109E-09  0.528E-05    1.17     292.4  T
     SCC iter.                  ...        0 min,  0.025 sec
     gradient                   ...        0 min,  0.077 sec
 * total energy  :   -82.9511311 Eh     change       -0.6723352E-03 Eh
   gradient norm :     0.0093728 Eh/α   predicted    -0.5513004E-03 ( -18.00%)
   displ. norm   :     0.1827999 α      lambda       -0.3156830E-03
   maximum displ.:     0.0887454 α      in ANC's #7, #16, #2, ...

........................................................................
.............................. CYCLE    6 ..............................
........................................................................
   1    -83.7212552 -0.837213E+02  0.897E-03    1.18       0.0  T
   2    -83.7212573 -0.206915E-05  0.776E-03    1.19       2.0  T
   3    -83.7212598 -0.247602E-05  0.243E-03    1.18       6.4  T
   4    -83.7212598 -0.501029E-07  0.141E-03    1.18      10.9  T
   5    -83.7212599 -0.211785E-07  0.378E-04    1.18      40.8  T
   6    -83.7212599 -0.174464E-08  0.661E-05    1.18     233.6  T
   7    -83.7212599 -0.109608E-09  0.212E-05    1.18     726.4  T
     SCC iter.                  ...        0 min,  0.024 sec
     gradient                   ...        0 min,  0.078 sec
 * total energy  :   -82.9513502 Eh     change       -0.2190828E-03 Eh
   gradient norm :     0.0071231 Eh/α   predicted    -0.1631467E-03 ( -25.53%)
   displ. norm   :     0.1557421 α      lambda       -0.1738000E-03
   maximum displ.:     0.0813914 α      in ANC's #7, #2, #16, ...

........................................................................
.............................. CYCLE    7 ..............................
........................................................................
   1    -83.7220575 -0.837221E+02  0.850E-03    1.19       0.0  T
   2    -83.7220591 -0.163334E-05  0.619E-03    1.20       2.5  T
   3    -83.7220608 -0.163728E-05  0.253E-03    1.19       6.1  T
   4    -83.7220609 -0.940759E-07  0.114E-03    1.19      13.5  T
   5    -83.7220609 -0.165085E-07  0.371E-04    1.19      41.6  T
   6    -83.7220609 -0.132484E-08  0.446E-05    1.19     346.3  T
   7    -83.7220609 -0.767955E-10  0.125E-05    1.19    1239.2  T
     SCC iter.                  ...        0 min,  0.025 sec
     gradient                   ...        0 min,  0.080 sec
 * total energy  :   -82.9514736 Eh     change       -0.1234326E-03 Eh
   gradient norm :     0.0044110 Eh/α   predicted    -0.8904724E-04 ( -27.86%)
   displ. norm   :     0.1453074 α      lambda       -0.1146727E-03
   maximum displ.:     0.0684607 α      in ANC's #2, #7, #1, ...

........................................................................
.............................. CYCLE    8 ..............................
........................................................................
   1    -83.7222196 -0.837222E+02  0.795E-03    1.20       0.0  T
   2    -83.7222212 -0.152348E-05  0.468E-03    1.20       3.3  T
   3    -83.7222219 -0.734927E-06  0.263E-03    1.20       5.9  T
   4    -83.7222220 -0.110532E-06  0.111E-03    1.20      13.8  T
   5    -83.7222220 -0.229050E-07  0.293E-04    1.20      52.7  T
   6    -83.7222220 -0.924643E-09  0.419E-05    1.20     368.6  T
   7    -83.7222220 -0.796518E-10  0.112E-05    1.20    1377.3  T
     SCC iter.                  ...        0 min,  0.024 sec
     gradient                   ...        0 min,  0.077 sec
 * total energy  :   -82.9515563 Eh     change       -0.8264631E-04 Eh
   gradient norm :     0.0032526 Eh/α   predicted    -0.5854774E-04 ( -29.16%)
   displ. norm   :     0.1498359 α      lambda       -0.8777001E-04
   maximum displ.:     0.0751798 α      in ANC's #2, #1, #7, ...

........................................................................
.............................. CYCLE    9 ..............................
........................................................................
   1    -83.7219277 -0.837219E+02  0.632E-03    1.21       0.0  T
   2    -83.7219287 -0.949030E-06  0.327E-03    1.21       4.7  T
   3    -83.7219289 -0.238871E-06  0.211E-03    1.21       7.3  T
   4    -83.7219290 -0.593957E-07  0.923E-04    1.21      16.7  T
   5    -83.7219290 -0.244377E-07  0.206E-04    1.21      75.0  T
   6    -83.7219290 -0.535636E-09  0.337E-05    1.21     458.5  T
   7    -83.7219290 -0.417231E-10  0.127E-05    1.21    1217.0  T
     SCC iter.                  ...        0 min,  0.025 sec
     gradient                   ...        0 min,  0.077 sec
 * total energy  :   -82.9516207 Eh     change       -0.6444154E-04 Eh
   gradient norm :     0.0040397 Eh/α   predicted    -0.4487243E-04 ( -30.37%)
   displ. norm   :     0.1615187 α      lambda       -0.7759724E-04
   maximum displ.:     0.0833237 α      in ANC's #2, #1, #4, ...

........................................................................
.............................. CYCLE   10 ..............................
........................................................................
   1    -83.7215172 -0.837215E+02  0.434E-03    1.21       0.0  T
   2    -83.7215176 -0.409572E-06  0.202E-03    1.21       7.6  T
   3    -83.7215176 -0.266615E-07  0.122E-03    1.21      12.7  T
   4    -83.7215176  0.267144E-08  0.613E-04    1.21      25.2  T
   5    -83.7215176 -0.181074E-07  0.155E-04    1.21      99.7  T
   6    -83.7215176 -0.646182E-09  0.295E-05    1.21     523.7  T
     SCC iter.                  ...        0 min,  0.021 sec
     gradient                   ...        0 min,  0.078 sec
 * total energy  :   -82.9516792 Eh     change       -0.5851161E-04 Eh
   gradient norm :     0.0044359 Eh/α   predicted    -0.3981252E-04 ( -31.96%)
   displ. norm   :     0.1897388 α      lambda       -0.8206180E-04
   maximum displ.:     0.0999868 α      in ANC's #2, #1, #4, ...

........................................................................
.............................. CYCLE   11 ..............................
........................................................................
   1    -83.7211220 -0.837211E+02  0.396E-03    1.22       0.0  T
   2    -83.7211223 -0.268018E-06  0.215E-03    1.22       7.2  T
   3    -83.7211223 -0.384873E-07  0.143E-03    1.22      10.8  T
   4    -83.7211223 -0.296606E-07  0.577E-04    1.22      26.7  T
   5    -83.7211223 -0.114279E-07  0.121E-04    1.22     127.7  T
   6    -83.7211223 -0.327674E-09  0.313E-05    1.22     493.4  T
     SCC iter.                  ...        0 min,  0.021 sec
     gradient                   ...        0 min,  0.075 sec
 * total energy  :   -82.9517417 Eh     change       -0.6251078E-04 Eh
   gradient norm :     0.0038132 Eh/α   predicted    -0.4250902E-04 ( -32.00%)
   displ. norm   :     0.2113942 α      lambda       -0.7853784E-04
   maximum displ.:     0.1143838 α      in ANC's #2, #1, #4, ...

........................................................................
.............................. CYCLE   12 ..............................
........................................................................
   1    -83.7209023 -0.837209E+02  0.490E-03    1.23       0.0  T
   2    -83.7209026 -0.340602E-06  0.274E-03    1.23       5.6  T
   3    -83.7209028 -0.194642E-06  0.191E-03    1.23       8.1  T
   4    -83.7209029 -0.528547E-07  0.574E-04    1.23      26.9  T
   5    -83.7209029 -0.911029E-08  0.128E-04    1.23     120.3  T
   6    -83.7209029 -0.288395E-09  0.236E-05    1.23     652.9  T
     SCC iter.                  ...        0 min,  0.021 sec
     gradient                   ...        0 min,  0.077 sec
 * total energy  :   -82.9518015 Eh     change       -0.5982628E-04 Eh
   gradient norm :     0.0029249 Eh/α   predicted    -0.4102489E-04 ( -31.43%)
   displ. norm   :     0.2137108 α      lambda       -0.6951331E-04
   maximum displ.:     0.1180077 α      in ANC's #2, #1, #4, ...

........................................................................
.............................. CYCLE   13 ..............................
........................................................................
   1    -83.7210032 -0.837210E+02  0.515E-03    1.24       0.0  T
   2    -83.7210035 -0.312911E-06  0.270E-03    1.23       5.7  T
   3    -83.7210038 -0.272971E-06  0.198E-03    1.24       7.8  T
   4    -83.7210038 -0.722518E-07  0.560E-04    1.24      27.6  T
   5    -83.7210038 -0.250014E-08  0.137E-04    1.24     113.0  T
   6    -83.7210038 -0.362419E-09  0.196E-05    1.24     786.6  T
     SCC iter.                  ...        0 min,  0.021 sec
     gradient                   ...        0 min,  0.077 sec
 * total energy  :   -82.9518560 Eh     change       -0.5447547E-04 Eh
   gradient norm :     0.0029617 Eh/α   predicted    -0.3634569E-04 ( -33.28%)
   displ. norm   :     0.2274924 α      lambda       -0.7255394E-04
   maximum displ.:     0.1258865 α      in ANC's #2, #1, #4, ...

........................................................................
.............................. CYCLE   14 ..............................
........................................................................
   1    -83.7213546 -0.837214E+02  0.494E-03    1.25       0.0  T
   2    -83.7213549 -0.290716E-06  0.247E-03    1.24       6.2  T
   3    -83.7213552 -0.289543E-06  0.181E-03    1.24       8.5  T
   4    -83.7213552 -0.724485E-07  0.590E-04    1.24      26.1  T
   5    -83.7213552 -0.149680E-08  0.126E-04    1.24     122.1  T
   6    -83.7213552 -0.386223E-09  0.224E-05    1.24     688.1  T
     SCC iter.                  ...        0 min,  0.021 sec
     gradient                   ...        0 min,  0.077 sec
 * total energy  :   -82.9519153 Eh     change       -0.5930978E-04 Eh
   gradient norm :     0.0036155 Eh/α   predicted    -0.3815541E-04 ( -35.67%)
   displ. norm   :     0.2875724 α      lambda       -0.9007021E-04
   maximum displ.:     0.1581219 α      in ANC's #1, #2, #4, ...

........................................................................
.............................. CYCLE   15 ..............................
........................................................................
   1    -83.7214291 -0.837214E+02  0.443E-03    1.25       0.0  T
   2    -83.7214294 -0.313558E-06  0.201E-03    1.25       7.7  T
   3    -83.7214296 -0.158539E-06  0.158E-03    1.25       9.8  T
   4    -83.7214297 -0.635500E-07  0.521E-04    1.25      29.6  T
   5    -83.7214297 -0.792241E-09  0.129E-04    1.25     119.8  T
   6    -83.7214297 -0.495135E-09  0.304E-05    1.25     506.8  T
     SCC iter.                  ...        0 min,  0.021 sec
     gradient                   ...        0 min,  0.077 sec
 * total energy  :   -82.9519897 Eh     change       -0.7439637E-04 Eh
   gradient norm :     0.0042442 Eh/α   predicted    -0.4876200E-04 ( -34.46%)
   displ. norm   :     0.3469679 α      lambda       -0.1066465E-03
   maximum displ.:     0.1964737 α      in ANC's #1, #2, #4, ...

........................................................................
.............................. CYCLE   16 ..............................
........................................................................
   1    -83.7214508 -0.837215E+02  0.379E-03    1.26       0.0  T
   2    -83.7214512 -0.413669E-06  0.166E-03    1.26       9.3  T
   3    -83.7214513 -0.377276E-07  0.971E-04    1.26      15.9  T
   4    -83.7214513 -0.505291E-08  0.452E-04    1.26      34.1  T
   5    -83.7214513 -0.689825E-08  0.163E-04    1.26      94.9  T
   6    -83.7214513 -0.718316E-09  0.338E-05    1.26     456.7  T
     SCC iter.                  ...        0 min,  0.021 sec
     gradient                   ...        0 min,  0.077 sec
 * total energy  :   -82.9520768 Eh     change       -0.8707586E-04 Eh
   gradient norm :     0.0043107 Eh/α   predicted    -0.5974758E-04 ( -31.38%)
   displ. norm   :     0.3852697 α      lambda       -0.1112399E-03
   maximum displ.:     0.2250582 α      in ANC's #1, #2, #4, ...

........................................................................
.............................. CYCLE   17 ..............................
........................................................................
   1    -83.7209883 -0.837210E+02  0.466E-03    1.27       0.0  T
   2    -83.7209889 -0.581286E-06  0.262E-03    1.27       5.9  T
   3    -83.7209891 -0.201654E-06  0.137E-03    1.27      11.3  T
   4    -83.7209891 -0.162375E-07  0.662E-04    1.27      23.3  T
   5    -83.7209891 -0.108656E-07  0.152E-04    1.27     101.5  T
   6    -83.7209891 -0.392063E-09  0.332E-05    1.27     464.4  T
     SCC iter.                  ...        0 min,  0.021 sec
     gradient                   ...        0 min,  0.077 sec
 * total energy  :   -82.9521683 Eh     change       -0.9150380E-04 Eh
   gradient norm :     0.0038270 Eh/α   predicted    -0.6387798E-04 ( -30.19%)
   displ. norm   :     0.4070027 α      lambda       -0.1166915E-03
   maximum displ.:     0.2454160 α      in ANC's #1, #2, #4, ...

........................................................................
.............................. CYCLE   18 ..............................
........................................................................
   1    -83.7211961 -0.837212E+02  0.622E-03    1.27       0.0  T
   2    -83.7211971 -0.102344E-05  0.390E-03    1.27       4.0  T
   3    -83.7211979 -0.776701E-06  0.172E-03    1.27       8.9  T
   4    -83.7211979 -0.508394E-07  0.725E-04    1.27      21.3  T
   5    -83.7211979 -0.245251E-09  0.206E-04    1.27      74.9  T
   6    -83.7211979 -0.808143E-09  0.336E-05    1.27     458.6  T
   7    -83.7211979 -0.254943E-10  0.120E-05    1.27    1285.6  T
     SCC iter.                  ...        0 min,  0.024 sec
     gradient                   ...        0 min,  0.081 sec
 * total energy  :   -82.9522597 Eh     change       -0.9143604E-04 Eh
   gradient norm :     0.0035005 Eh/α   predicted    -0.6801506E-04 ( -25.61%)
   displ. norm   :     0.3602547 α      lambda       -0.9725001E-04
   maximum displ.:     0.2252069 α      in ANC's #1, #2, #4, ...

........................................................................
.............................. CYCLE   19 ..............................
........................................................................
   1    -83.7204868 -0.837205E+02  0.709E-03    1.27       0.0  T
   2    -83.7204878 -0.974200E-06  0.480E-03    1.28       3.2  T
   3    -83.7204891 -0.130553E-05  0.172E-03    1.27       9.0  T
   4    -83.7204892 -0.422918E-07  0.751E-04    1.27      20.6  T
   5    -83.7204892 -0.116962E-08  0.197E-04    1.27      78.2  T
   6    -83.7204892 -0.113694E-08  0.317E-05    1.27     487.5  T
     SCC iter.                  ...        0 min,  0.021 sec
     gradient                   ...        0 min,  0.077 sec
 * total energy  :   -82.9523337 Eh     change       -0.7397165E-04 Eh
   gradient norm :     0.0044944 Eh/α   predicted    -0.5493722E-04 ( -25.73%)
   displ. norm   :     0.3089900 α      lambda       -0.1113702E-03
   maximum displ.:     0.2055577 α      in ANC's #1, #2, #4, ...

........................................................................
.............................. CYCLE   20 ..............................
........................................................................
   1    -83.7229737 -0.837230E+02  0.848E-03    1.27       0.0  T
   2    -83.7229752 -0.150808E-05  0.594E-03    1.28       2.6  T
   3    -83.7229770 -0.178117E-05  0.237E-03    1.27       6.5  T
   4    -83.7229771 -0.675991E-07  0.903E-04    1.27      17.1  T
   5    -83.7229771 -0.318394E-08  0.308E-04    1.27      50.0  T
   6    -83.7229771 -0.255480E-08  0.536E-05    1.27     288.1  T
   7    -83.7229771 -0.722906E-10  0.139E-05    1.27    1110.1  T
     SCC iter.                  ...        0 min,  0.024 sec
     gradient                   ...        0 min,  0.077 sec
 * total energy  :   -82.9524029 Eh     change       -0.6918190E-04 Eh
   gradient norm :     0.0045215 Eh/α   predicted    -0.6100364E-04 ( -11.82%)
   displ. norm   :     0.5220917 α      lambda       -0.1610512E-03
   maximum displ.:     0.3347472 α      in ANC's #1, #2, #4, ...
 * RMSD in coord.:     0.6474651 α      energy gain  -0.2141483E-01 Eh

generating ANC from model Hessian ...
Using Lindh-Hessian (1995)
 Shifting diagonal of input Hessian by   9.816933481239279E-003
 Lowest  eigenvalues of input Hessian
    0.000000    0.000000    0.000000    0.000000    0.000000    0.000000
    0.010000    0.010090    0.010817    0.010874    0.011421    0.012223
    0.013107    0.014146    0.014904    0.015361    0.017437    0.017494
 Highest eigenvalues
    2.058910    2.121762    2.136064    2.372663    2.417467    2.432019
 

........................................................................
.............................. CYCLE   21 ..............................
........................................................................
   1    -83.7203050 -0.837203E+02  0.122E-02    1.27       0.0  T
   2    -83.7203085 -0.347506E-05  0.761E-03    1.28       2.0  T
   3    -83.7203106 -0.207873E-05  0.371E-03    1.27       4.2  T
   4    -83.7203108 -0.233407E-06  0.141E-03    1.27      11.0  T
   5    -83.7203108 -0.107351E-07  0.301E-04    1.27      51.3  T
   6    -83.7203108 -0.233946E-08  0.681E-05    1.27     226.5  T
   7    -83.7203108 -0.584066E-10  0.174E-05    1.27     885.6  T
     SCC iter.                  ...        0 min,  0.024 sec
     gradient                   ...        0 min,  0.077 sec
 * total energy  :   -82.9524931 Eh     change       -0.9020053E-04 Eh
   gradient norm :     0.0066167 Eh/α   predicted     0.0000000E+00 (-100.00%)
   displ. norm   :     0.0455494 α      lambda       -0.1010145E-03
   maximum displ.:     0.0209437 α      in ANC's #1, #8, #5, ...

........................................................................
.............................. CYCLE   22 ..............................
........................................................................
   1    -83.7216132 -0.837216E+02  0.533E-03    1.28       0.0  T
   2    -83.7216136 -0.423520E-06  0.275E-03    1.28       5.6  T
   3    -83.7216136 -0.327645E-07  0.192E-03    1.28       8.0  T
   4    -83.7216137 -0.707061E-07  0.611E-04    1.28      25.2  T
   5    -83.7216137 -0.104692E-07  0.135E-04    1.28     114.6  T
   6    -83.7216137 -0.387118E-09  0.402E-05    1.28     383.8  T
     SCC iter.                  ...        0 min,  0.021 sec
     gradient                   ...        0 min,  0.077 sec
 * total energy  :   -82.9525669 Eh     change       -0.7380872E-04 Eh
   gradient norm :     0.0029731 Eh/α   predicted    -0.5067864E-04 ( -31.34%)
   displ. norm   :     0.0848413 α      lambda       -0.7504724E-04
   maximum displ.:     0.0443914 α      in ANC's #1, #8, #6, ...

........................................................................
.............................. CYCLE   23 ..............................
........................................................................
   1    -83.7225395 -0.837225E+02  0.565E-03    1.28       0.0  T
   2    -83.7225402 -0.712748E-06  0.297E-03    1.28       5.2  T
   3    -83.7225405 -0.288847E-06  0.194E-03    1.28       7.9  T
   4    -83.7225405 -0.694506E-07  0.688E-04    1.28      22.4  T
   5    -83.7225405 -0.196235E-08  0.150E-04    1.28     102.9  T
   6    -83.7225405 -0.535721E-09  0.421E-05    1.28     366.4  T
     SCC iter.                  ...        0 min,  0.021 sec
     gradient                   ...        0 min,  0.077 sec
 * total energy  :   -82.9526178 Eh     change       -0.5085174E-04 Eh
   gradient norm :     0.0022008 Eh/α   predicted    -0.3779462E-04 ( -25.68%)
   displ. norm   :     0.0944765 α      lambda       -0.4407076E-04
   maximum displ.:     0.0534865 α      in ANC's #1, #8, #6, ...

........................................................................
.............................. CYCLE   24 ..............................
........................................................................
   1    -83.7227259 -0.837227E+02  0.349E-03    1.28       0.0  T
   2    -83.7227262 -0.274233E-06  0.178E-03    1.28       8.7  T
   3    -83.7227264 -0.157254E-06  0.103E-03    1.28      14.9  T
   4    -83.7227264 -0.218828E-07  0.418E-04    1.28      36.9  T
   5    -83.7227264 -0.161322E-09  0.924E-05    1.28     167.0  T
   6    -83.7227264 -0.152625E-09  0.230E-05    1.28     671.3  T
     SCC iter.                  ...        0 min,  0.021 sec
     gradient                   ...        0 min,  0.077 sec
 * total energy  :   -82.9526526 Eh     change       -0.3482866E-04 Eh
   gradient norm :     0.0030563 Eh/α   predicted    -0.2238787E-04 ( -35.72%)
   displ. norm   :     0.1491746 α      lambda       -0.5838376E-04
   maximum displ.:     0.0875590 α      in ANC's #1, #6, #8, ...

........................................................................
.............................. CYCLE   25 ..............................
........................................................................
   1    -83.7225123 -0.837225E+02  0.424E-03    1.28       0.0  T
   2    -83.7225128 -0.439603E-06  0.186E-03    1.28       8.3  T
   3    -83.7225129 -0.114493E-06  0.117E-03    1.28      13.2  T
   4    -83.7225129 -0.312938E-07  0.453E-04    1.28      34.1  T
   5    -83.7225129 -0.173385E-08  0.104E-04    1.28     149.0  T
   6    -83.7225129 -0.153392E-09  0.259E-05    1.28     595.6  T
     SCC iter.                  ...        0 min,  0.021 sec
     gradient                   ...        0 min,  0.077 sec
 * total energy  :   -82.9526966 Eh     change       -0.4397055E-04 Eh
   gradient norm :     0.0033645 Eh/α   predicted    -0.2984175E-04 ( -32.13%)
   displ. norm   :     0.1567472 α      lambda       -0.5011586E-04
   maximum displ.:     0.0975293 α      in ANC's #1, #6, #8, ...

........................................................................
.............................. CYCLE   26 ..............................
........................................................................
   1    -83.7222168 -0.837222E+02  0.443E-03    1.28       0.0  T
   2    -83.7222175 -0.759395E-06  0.150E-03    1.28      10.3  T
   3    -83.7222176 -0.270571E-07  0.775E-04    1.28      19.9  T
   4    -83.7222176 -0.599414E-09  0.287E-04    1.28      53.9  T
   5    -83.7222176 -0.927329E-09  0.855E-05    1.28     180.5  T
   6    -83.7222176 -0.215621E-09  0.361E-05    1.28     427.4  T
     SCC iter.                  ...        0 min,  0.021 sec
     gradient                   ...        0 min,  0.077 sec
 * total energy  :   -82.9527348 Eh     change       -0.3823271E-04 Eh
   gradient norm :     0.0031830 Eh/α   predicted    -0.2567443E-04 ( -32.85%)
   displ. norm   :     0.1491024 α      lambda       -0.4701867E-04
   maximum displ.:     0.0982496 α      in ANC's #1, #6, #8, ...

........................................................................
.............................. CYCLE   27 ..............................
........................................................................
   1    -83.7222542 -0.837223E+02  0.495E-03    1.27       0.0  T
   2    -83.7222552 -0.102769E-05  0.218E-03    1.27       7.1  T
   3    -83.7222554 -0.184150E-06  0.126E-03    1.27      12.3  T
   4    -83.7222554 -0.467463E-07  0.500E-04    1.27      30.9  T
   5    -83.7222554 -0.819682E-10  0.142E-04    1.27     108.7  T
   6    -83.7222554 -0.483880E-09  0.240E-05    1.27     643.0  T
     SCC iter.                  ...        0 min,  0.021 sec
     gradient                   ...        0 min,  0.077 sec
 * total energy  :   -82.9527727 Eh     change       -0.3793331E-04 Eh
   gradient norm :     0.0028772 Eh/α   predicted    -0.2403227E-04 ( -36.65%)
   displ. norm   :     0.1773989 α      lambda       -0.5696193E-04
   maximum displ.:     0.1204582 α      in ANC's #1, #6, #8, ...

........................................................................
.............................. CYCLE   28 ..............................
........................................................................
   1    -83.7224750 -0.837225E+02  0.644E-03    1.26       0.0  T
   2    -83.7224762 -0.117628E-05  0.388E-03    1.27       4.0  T
   3    -83.7224771 -0.882972E-06  0.148E-03    1.26      10.5  T
   4    -83.7224771 -0.546910E-07  0.593E-04    1.27      26.0  T
   5    -83.7224771 -0.500634E-09  0.168E-04    1.27      91.6  T
   6    -83.7224771 -0.698961E-09  0.243E-05    1.27     635.1  T
     SCC iter.                  ...        0 min,  0.021 sec
     gradient                   ...        0 min,  0.077 sec
 * total energy  :   -82.9528187 Eh     change       -0.4594690E-04 Eh
   gradient norm :     0.0029896 Eh/α   predicted    -0.2937830E-04 ( -36.06%)
   displ. norm   :     0.2085947 α      lambda       -0.6171223E-04
   maximum displ.:     0.1447272 α      in ANC's #1, #6, #4, ...

........................................................................
.............................. CYCLE   29 ..............................
........................................................................
   1    -83.7227141 -0.837227E+02  0.739E-03    1.25       0.0  T
   2    -83.7227151 -0.103732E-05  0.517E-03    1.26       3.0  T
   3    -83.7227168 -0.165215E-05  0.144E-03    1.26      10.7  T
   4    -83.7227168 -0.397382E-07  0.600E-04    1.26      25.7  T
   5    -83.7227168 -0.137008E-08  0.178E-04    1.26      86.5  T
   6    -83.7227168 -0.773781E-09  0.245E-05    1.26     629.6  T
     SCC iter.                  ...        0 min,  0.021 sec
     gradient                   ...        0 min,  0.077 sec
 * total energy  :   -82.9528677 Eh     change       -0.4904036E-04 Eh
   gradient norm :     0.0031952 Eh/α   predicted    -0.3220049E-04 ( -34.34%)
   displ. norm   :     0.2133768 α      lambda       -0.5849022E-04
   maximum displ.:     0.1519608 α      in ANC's #1, #6, #4, ...

........................................................................
.............................. CYCLE   30 ..............................
........................................................................
   1    -83.7230801 -0.837231E+02  0.670E-03    1.25       0.0  T
   2    -83.7230807 -0.687560E-06  0.508E-03    1.25       3.0  T
   3    -83.7230823 -0.153049E-05  0.130E-03    1.25      11.9  T
   4    -83.7230823 -0.224155E-07  0.517E-04    1.25      29.8  T
   5    -83.7230823 -0.847720E-09  0.160E-04    1.25      96.2  T
   6    -83.7230823 -0.618982E-09  0.263E-05    1.25     585.9  T
     SCC iter.                  ...        0 min,  0.020 sec
     gradient                   ...        0 min,  0.055 sec
 * total energy  :   -82.9529154 Eh     change       -0.4772039E-04 Eh
   gradient norm :     0.0031470 Eh/α   predicted    -0.3057790E-04 ( -35.92%)
   displ. norm   :     0.2391595 α      lambda       -0.6253274E-04
   maximum displ.:     0.1731741 α      in ANC's #1, #6, #4, ...

........................................................................
.............................. CYCLE   31 ..............................
........................................................................
   1    -83.7233538 -0.837234E+02  0.586E-03    1.24       0.0  T
   2    -83.7233544 -0.636052E-06  0.428E-03    1.25       3.6  T
   3    -83.7233553 -0.919939E-06  0.144E-03    1.24      10.7  T
   4    -83.7233554 -0.301169E-07  0.545E-04    1.24      28.3  T
   5    -83.7233554 -0.607443E-09  0.175E-04    1.24      88.1  T
   6    -83.7233554 -0.673907E-09  0.325E-05    1.24     475.1  T
     SCC iter.                  ...        0 min,  0.022 sec
     gradient                   ...        0 min,  0.083 sec
 * total energy  :   -82.9529684 Eh     change       -0.5300034E-04 Eh
   gradient norm :     0.0028295 Eh/α   predicted    -0.3305782E-04 ( -37.63%)
   displ. norm   :     0.2756458 α      lambda       -0.7018440E-04
   maximum displ.:     0.2025000 α      in ANC's #1, #6, #3, ...

........................................................................
.............................. CYCLE   32 ..............................
........................................................................
   1    -83.7237961 -0.837238E+02  0.557E-03    1.23       0.0  T
   2    -83.7237969 -0.795496E-06  0.342E-03    1.24       4.5  T
   3    -83.7237972 -0.337078E-06  0.171E-03    1.24       9.0  T
   4    -83.7237973 -0.580698E-07  0.730E-04    1.24      21.1  T
   5    -83.7237973 -0.623326E-08  0.213E-04    1.24      72.3  T
   6    -83.7237973 -0.103080E-08  0.401E-05    1.24     384.4  T
   7    -83.7237973 -0.516280E-10  0.122E-05    1.24    1262.3  T
     SCC iter.                  ...        0 min,  0.025 sec
     gradient                   ...        0 min,  0.083 sec
 * total energy  :   -82.9530256 Eh     change       -0.5716245E-04 Eh
   gradient norm :     0.0023302 Eh/α   predicted    -0.3776103E-04 ( -33.94%)
   displ. norm   :     0.2455636 α      lambda       -0.5495954E-04
   maximum displ.:     0.1835264 α      in ANC's #1, #6, #3, ...

........................................................................
.............................. CYCLE   33 ..............................
........................................................................
   1    -83.7239168 -0.837239E+02  0.471E-03    1.23       0.0  T
   2    -83.7239172 -0.458907E-06  0.211E-03    1.23       7.3  T
   3    -83.7239173 -0.242939E-07  0.110E-03    1.23      14.0  T
   4    -83.7239173  0.609617E-09  0.398E-04    1.23      38.8  T
   5    -83.7239173 -0.566759E-08  0.164E-04    1.23      94.2  T
   6    -83.7239173 -0.107737E-08  0.268E-05    1.23     576.3  T
     SCC iter.                  ...        0 min,  0.022 sec
     gradient                   ...        0 min,  0.083 sec
 * total energy  :   -82.9530697 Eh     change       -0.4410529E-04 Eh
   gradient norm :     0.0019982 Eh/α   predicted    -0.2914267E-04 ( -33.92%)
   displ. norm   :     0.2851321 α      lambda       -0.4630593E-04
   maximum displ.:     0.2118373 α      in ANC's #1, #3, #2, ...

........................................................................
.............................. CYCLE   34 ..............................
........................................................................
   1    -83.7262936 -0.837263E+02  0.714E-03    1.23       0.0  T
   2    -83.7262952 -0.157560E-05  0.362E-03    1.22       4.3  T
   3    -83.7262955 -0.292422E-06  0.207E-03    1.23       7.4  T
   4    -83.7262955 -0.669903E-08  0.113E-03    1.22      13.6  T
   5    -83.7262955 -0.503225E-07  0.218E-04    1.22      70.8  T
   6    -83.7262955 -0.768722E-09  0.497E-05    1.22     310.2  T
   7    -83.7262955 -0.832756E-10  0.130E-05    1.22    1186.8  T
     SCC iter.                  ...        0 min,  0.025 sec
     gradient                   ...        0 min,  0.083 sec
 * total energy  :   -82.9531097 Eh     change       -0.4004844E-04 Eh
   gradient norm :     0.0045416 Eh/α   predicted    -0.2399397E-04 ( -40.09%)
   displ. norm   :     0.1669402 α      lambda       -0.4984117E-04
   maximum displ.:     0.1238638 α      in ANC's #1, #3, #2, ...

........................................................................
.............................. CYCLE   35 ..............................
........................................................................
   1    -83.7249001 -0.837249E+02  0.566E-03    1.22       0.0  T
   2    -83.7249007 -0.621359E-06  0.345E-03    1.22       4.5  T
   3    -83.7249011 -0.380247E-06  0.181E-03    1.22       8.5  T
   4    -83.7249011 -0.296884E-07  0.888E-04    1.22      17.4  T
   5    -83.7249011 -0.193715E-07  0.694E-05    1.22     222.2  T
   6    -83.7249011 -0.154188E-09  0.264E-05    1.22     583.8  T
     SCC iter.                  ...        0 min,  0.022 sec
     gradient                   ...        0 min,  0.083 sec
 * total energy  :   -82.9531448 Eh     change       -0.3506786E-04 Eh
   gradient norm :     0.0028669 Eh/α   predicted    -0.2561623E-04 ( -26.95%)
   displ. norm   :     0.1157910 α      lambda       -0.3687551E-04
   maximum displ.:     0.0818684 α      in ANC's #1, #2, #3, ...

........................................................................
.............................. CYCLE   36 ..............................
........................................................................
   1    -83.7246069 -0.837246E+02  0.191E-03    1.22       0.0  T
   2    -83.7246070 -0.114732E-06  0.912E-04    1.22      16.9  T
   3    -83.7246070 -0.157521E-07  0.468E-04    1.22      32.9  T
   4    -83.7246070  0.540297E-10  0.135E-04    1.22     114.0  T
   5    -83.7246070 -0.293511E-09  0.659E-05    1.22     234.3  T
     SCC iter.                  ...        0 min,  0.018 sec
     gradient                   ...        0 min,  0.082 sec
 * total energy  :   -82.9531784 Eh     change       -0.3362732E-04 Eh
   gradient norm :     0.0029261 Eh/α   predicted    -0.1868581E-04 ( -44.43%)
   displ. norm   :     0.2518698 α      lambda       -0.9439707E-04
   maximum displ.:     0.1596034 α      in ANC's #1, #2, #3, ...

........................................................................
.............................. CYCLE   37 ..............................
........................................................................
   1    -83.7243521 -0.837244E+02  0.418E-03    1.22       0.0  T
   2    -83.7243527 -0.593147E-06  0.244E-03    1.22       6.3  T
   3    -83.7243529 -0.257719E-06  0.112E-03    1.22      13.8  T
   4    -83.7243529 -0.237496E-07  0.534E-04    1.22      28.9  T
   5    -83.7243529 -0.185997E-08  0.147E-04    1.22     105.3  T
   6    -83.7243529 -0.420016E-09  0.276E-05    1.22     559.0  T
     SCC iter.                  ...        0 min,  0.022 sec
     gradient                   ...        0 min,  0.083 sec
 * total energy  :   -82.9532554 Eh     change       -0.7696396E-04 Eh
   gradient norm :     0.0024288 Eh/α   predicted    -0.5019643E-04 ( -34.78%)
   displ. norm   :     0.3335400 α      lambda       -0.9044012E-04
   maximum displ.:     0.2127564 α      in ANC's #1, #2, #3, ...

........................................................................
.............................. CYCLE   38 ..............................
........................................................................
   1    -83.7239606 -0.837240E+02  0.490E-03    1.21       0.0  T
   2    -83.7239611 -0.517655E-06  0.347E-03    1.22       4.4  T
   3    -83.7239618 -0.644170E-06  0.122E-03    1.22      12.7  T
   4    -83.7239618 -0.233230E-07  0.537E-04    1.22      28.7  T
   5    -83.7239618 -0.118833E-08  0.138E-04    1.22     112.0  T
   6    -83.7239618 -0.304780E-09  0.313E-05    1.22     492.7  T
     SCC iter.                  ...        0 min,  0.022 sec
     gradient                   ...        0 min,  0.083 sec
 * total energy  :   -82.9533234 Eh     change       -0.6795211E-04 Eh
   gradient norm :     0.0031760 Eh/α   predicted    -0.5025232E-04 ( -26.05%)
   displ. norm   :     0.2473705 α      lambda       -0.5202419E-04
   maximum displ.:     0.1650302 α      in ANC's #1, #2, #3, ...

........................................................................
.............................. CYCLE   39 ..............................
........................................................................
   1    -83.7237830 -0.837238E+02  0.300E-03    1.21       0.0  T
   2    -83.7237833 -0.245298E-06  0.200E-03    1.22       7.7  T
   3    -83.7237835 -0.218234E-06  0.724E-04    1.22      21.3  T
   4    -83.7237835 -0.115329E-07  0.307E-04    1.22      50.2  T
   5    -83.7237835 -0.131067E-09  0.879E-05    1.22     175.6  T
   6    -83.7237835 -0.123549E-09  0.188E-05    1.22     821.4  T
     SCC iter.                  ...        0 min,  0.021 sec
     gradient                   ...        0 min,  0.083 sec
 * total energy  :   -82.9533667 Eh     change       -0.4335254E-04 Eh
   gradient norm :     0.0035549 Eh/α   predicted    -0.2760558E-04 ( -36.32%)
   displ. norm   :     0.2155102 α      lambda       -0.5463581E-04
   maximum displ.:     0.1465156 α      in ANC's #1, #2, #3, ...

........................................................................
.............................. CYCLE   40 ..............................
........................................................................
   1    -83.7244669 -0.837245E+02  0.226E-03    1.22       0.0  T
   2    -83.7244670 -0.168264E-06  0.118E-03    1.22      13.1  T
   3    -83.7244671 -0.356059E-07  0.725E-04    1.22      21.3  T
   4    -83.7244671 -0.999398E-08  0.337E-04    1.22      45.8  T
   5    -83.7244671 -0.128456E-08  0.744E-05    1.22     207.4  T
   6    -83.7244671 -0.111228E-09  0.194E-05    1.22     796.2  T
     SCC iter.                  ...        0 min,  0.022 sec
     gradient                   ...        0 min,  0.083 sec
 * total energy  :   -82.9534129 Eh     change       -0.4616072E-04 Eh
   gradient norm :     0.0028085 Eh/α   predicted    -0.2858907E-04 ( -38.07%)
   displ. norm   :     0.2606703 α      lambda       -0.6532509E-04
   maximum displ.:     0.1859839 α      in ANC's #1, #2, #3, ...

........................................................................
.............................. CYCLE   41 ..............................
........................................................................
   1    -83.7246475 -0.837246E+02  0.346E-03    1.22       0.0  T
   2    -83.7246479 -0.428652E-06  0.127E-03    1.22      12.2  T
   3    -83.7246479 -0.213820E-07  0.789E-04    1.22      19.6  T
   4    -83.7246479 -0.557492E-08  0.449E-04    1.22      34.3  T
   5    -83.7246479 -0.450827E-08  0.139E-04    1.22     110.7  T
   6    -83.7246479 -0.588528E-09  0.282E-05    1.22     547.4  T
     SCC iter.                  ...        0 min,  0.022 sec
     gradient                   ...        0 min,  0.082 sec
 * total energy  :   -82.9534638 Eh     change       -0.5090349E-04 Eh
   gradient norm :     0.0022768 Eh/α   predicted    -0.3488504E-04 ( -31.47%)
   displ. norm   :     0.2443953 α      lambda       -0.5079695E-04
   maximum displ.:     0.1792934 α      in ANC's #1, #2, #3, ...

........................................................................
.............................. CYCLE   42 ..............................
........................................................................
   1    -83.7250781 -0.837251E+02  0.297E-03    1.23       0.0  T
   2    -83.7250785 -0.343223E-06  0.137E-03    1.23      11.2  T
   3    -83.7250785 -0.248752E-07  0.732E-04    1.23      21.1  T
   4    -83.7250785 -0.167084E-08  0.372E-04    1.23      41.5  T
   5    -83.7250785 -0.148356E-08  0.171E-04    1.23      90.1  T
   6    -83.7250785 -0.134671E-08  0.328E-05    1.23     469.9  T
     SCC iter.                  ...        0 min,  0.022 sec
     gradient                   ...        0 min,  0.082 sec
 * total energy  :   -82.9535017 Eh     change       -0.3794345E-04 Eh
   gradient norm :     0.0019002 Eh/α   predicted    -0.2691771E-04 ( -29.06%)
   displ. norm   :     0.3026049 α      lambda       -0.3344557E-04
   maximum displ.:     0.2317604 α      in ANC's #1, #2, #3, ...
 * RMSD in coord.:     0.5875231 α      energy gain  -0.1098822E-02 Eh

generating ANC from model Hessian ...
Using Lindh-Hessian (1995)
 Shifting diagonal of input Hessian by   9.814838053311020E-003
 Lowest  eigenvalues of input Hessian
    0.000000    0.000000    0.000000    0.000000    0.000000    0.000000
    0.010000    0.010117    0.010820    0.010976    0.011359    0.012096
    0.013084    0.014114    0.014960    0.015361    0.017431    0.017748
 Highest eigenvalues
    2.053033    2.121476    2.134673    2.367017    2.431587    2.433108
 

........................................................................
.............................. CYCLE   43 ..............................
........................................................................
   1    -83.7246798 -0.837247E+02  0.447E-03    1.23       0.0  T
   2    -83.7246805 -0.689020E-06  0.138E-03    1.23      11.2  T
   3    -83.7246805 -0.295085E-07  0.743E-04    1.23      20.8  T
   4    -83.7246805 -0.278699E-08  0.308E-04    1.23      50.0  T
   5    -83.7246805 -0.135032E-09  0.967E-05    1.23     159.5  T
   6    -83.7246805 -0.261977E-09  0.375E-05    1.23     411.2  T
     SCC iter.                  ...        0 min,  0.022 sec
     gradient                   ...        0 min,  0.082 sec
 * total energy  :   -82.9535377 Eh     change       -0.3594653E-04 Eh
   gradient norm :     0.0023947 Eh/α   predicted     0.0000000E+00 (-100.00%)
   displ. norm   :     0.0273487 α      lambda       -0.2077681E-04
   maximum displ.:     0.0160775 α      in ANC's #1, #6, #2, ...

........................................................................
.............................. CYCLE   44 ..............................
........................................................................
   1    -83.7252817 -0.837253E+02  0.160E-03    1.23       0.0  T
   2    -83.7252817 -0.391036E-07  0.968E-04    1.23      15.9  T
   3    -83.7252818 -0.107204E-07  0.563E-04    1.23      27.4  T
   4    -83.7252818 -0.563733E-08  0.244E-04    1.23      63.1  T
   5    -83.7252818 -0.129555E-08  0.367E-05    1.23     420.7  T
   6    -83.7252818 -0.498659E-10  0.811E-06    1.23    1903.0  T
     SCC iter.                  ...        0 min,  0.022 sec
     gradient                   ...        0 min,  0.083 sec
 * total energy  :   -82.9535549 Eh     change       -0.1727848E-04 Eh
   gradient norm :     0.0013085 Eh/α   predicted    -0.1054760E-04 ( -38.96%)
   displ. norm   :     0.1243899 α      lambda       -0.3896116E-04
   maximum displ.:     0.0738361 α      in ANC's #1, #6, #2, ...

........................................................................
.............................. CYCLE   45 ..............................
........................................................................
   1    -83.7261715 -0.837262E+02  0.445E-03    1.23       0.0  T
   2    -83.7261720 -0.490700E-06  0.198E-03    1.23       7.8  T
   3    -83.7261720 -0.232117E-07  0.106E-03    1.23      14.6  T
   4    -83.7261720  0.571923E-08  0.624E-04    1.23      24.7  T
   5    -83.7261720 -0.134251E-07  0.123E-04    1.23     125.4  T
   6    -83.7261720 -0.583213E-09  0.237E-05    1.23     650.9  T
     SCC iter.                  ...        0 min,  0.021 sec
     gradient                   ...        0 min,  0.083 sec
 * total energy  :   -82.9535850 Eh     change       -0.3009501E-04 Eh
   gradient norm :     0.0025828 Eh/α   predicted    -0.1961512E-04 ( -34.82%)
   displ. norm   :     0.0389102 α      lambda       -0.1201496E-04
   maximum displ.:     0.0263061 α      in ANC's #1, #6, #2, ...

........................................................................
.............................. CYCLE   46 ..............................
........................................................................
   1    -83.7257910 -0.837258E+02  0.162E-03    1.23       0.0  T
   2    -83.7257911 -0.638852E-07  0.114E-03    1.23      13.5  T
   3    -83.7257911 -0.607806E-07  0.488E-04    1.23      31.6  T
   4    -83.7257911 -0.342210E-08  0.202E-04    1.23      76.6  T
   5    -83.7257911 -0.178233E-09  0.704E-05    1.23     219.1  T
   6    -83.7257911 -0.112607E-09  0.892E-06    1.23    1730.2  T
     SCC iter.                  ...        0 min,  0.021 sec
     gradient                   ...        0 min,  0.083 sec
 * total energy  :   -82.9535967 Eh     change       -0.1170649E-04 Eh
   gradient norm :     0.0018775 Eh/α   predicted    -0.6553938E-05 ( -44.01%)
   displ. norm   :     0.1644335 α      lambda       -0.3244276E-04
   maximum displ.:     0.1077423 α      in ANC's #1, #6, #7, ...

........................................................................
.............................. CYCLE   47 ..............................
........................................................................
   1    -83.7242590 -0.837243E+02  0.680E-03    1.23       0.0  T
   2    -83.7242600 -0.100318E-05  0.496E-03    1.23       3.1  T
   3    -83.7242612 -0.124365E-05  0.186E-03    1.23       8.3  T
   4    -83.7242613 -0.464918E-07  0.780E-04    1.23      19.8  T
   5    -83.7242613 -0.236511E-08  0.263E-04    1.23      58.6  T
   6    -83.7242613 -0.161528E-08  0.352E-05    1.23     437.9  T
   7    -83.7242613 -0.400462E-10  0.112E-05    1.23    1382.9  T
     SCC iter.                  ...        0 min,  0.025 sec
     gradient                   ...        0 min,  0.083 sec
 * total energy  :   -82.9536244 Eh     change       -0.2766744E-04 Eh
   gradient norm :     0.0020221 Eh/α   predicted    -0.1642024E-04 ( -40.65%)
   displ. norm   :     0.0489462 α      lambda       -0.9537656E-05
   maximum displ.:     0.0342981 α      in ANC's #1, #7, #6, ...

........................................................................
.............................. CYCLE   48 ..............................
........................................................................
   1    -83.7243645 -0.837244E+02  0.106E-03    1.23       0.0  T
   2    -83.7243645 -0.180925E-07  0.689E-04    1.23      22.4  T
   3    -83.7243646 -0.255492E-07  0.289E-04    1.23      53.4  T
   4    -83.7243646 -0.181809E-08  0.106E-04    1.23     146.0  T
   5    -83.7243646 -0.374172E-10  0.273E-05    1.23     564.8  T
     SCC iter.                  ...        0 min,  0.018 sec
     gradient                   ...        0 min,  0.083 sec
 * total energy  :   -82.9536332 Eh     change       -0.8741769E-05 Eh
   gradient norm :     0.0018050 Eh/α   predicted    -0.4784801E-05 ( -45.27%)
   displ. norm   :     0.1462505 α      lambda       -0.2253368E-04
   maximum displ.:     0.1003892 α      in ANC's #1, #7, #6, ...

........................................................................
.............................. CYCLE   49 ..............................
........................................................................
   1    -83.7252233 -0.837252E+02  0.295E-03    1.24       0.0  T
   2    -83.7252235 -0.178691E-06  0.154E-03    1.24      10.0  T
   3    -83.7252235 -0.425395E-07  0.103E-03    1.24      15.1  T
   4    -83.7252236 -0.232306E-07  0.392E-04    1.24      39.4  T
   5    -83.7252236 -0.199930E-08  0.947E-05    1.24     162.9  T
   6    -83.7252236 -0.175291E-09  0.213E-05    1.24     723.2  T
     SCC iter.                  ...        0 min,  0.021 sec
     gradient                   ...        0 min,  0.082 sec
 * total energy  :   -82.9536567 Eh     change       -0.2350307E-04 Eh
   gradient norm :     0.0007745 Eh/α   predicted    -0.1137614E-04 ( -51.60%)
   displ. norm   :     0.1161050 α      lambda       -0.9093639E-05
   maximum displ.:     0.0828440 α      in ANC's #1, #7, #6, ...

........................................................................
.............................. CYCLE   50 ..............................
........................................................................
   1    -83.7250606 -0.837251E+02  0.142E-03    1.24       0.0  T
   2    -83.7250606 -0.381018E-07  0.675E-04    1.24      22.9  T
   3    -83.7250606 -0.193295E-08  0.513E-04    1.24      30.1  T
   4    -83.7250606 -0.655515E-08  0.177E-04    1.24      87.2  T
   5    -83.7250606 -0.440068E-09  0.478E-05    1.24     322.9  T
     SCC iter.                  ...        0 min,  0.017 sec
     gradient                   ...        0 min,  0.082 sec
 * total energy  :   -82.9536676 Eh     change       -0.1089490E-04 Eh
   gradient norm :     0.0007296 Eh/α   predicted    -0.4576866E-05 ( -57.99%)
   displ. norm   :     0.0771684 α      lambda       -0.5865757E-05
   maximum displ.:     0.0580304 α      in ANC's #1, #7, #8, ...

........................................................................
.............................. CYCLE   51 ..............................
........................................................................
   1    -83.7251120 -0.837251E+02  0.975E-04    1.24       0.0  T
   2    -83.7251120 -0.203982E-07  0.468E-04    1.24      33.0  T
   3    -83.7251120 -0.497150E-08  0.319E-04    1.24      48.3  T
   4    -83.7251120 -0.261974E-08  0.119E-04    1.24     130.0  T
   5    -83.7251120 -0.145008E-09  0.286E-05    1.24     539.8  T
     SCC iter.                  ...        0 min,  0.017 sec
     gradient                   ...        0 min,  0.072 sec
 * total energy  :   -82.9536752 Eh     change       -0.7679576E-05 Eh
   gradient norm :     0.0005222 Eh/α   predicted    -0.2944749E-05 ( -61.65%)
   displ. norm   :     0.0679524 α      lambda       -0.5804422E-05
   maximum displ.:     0.0525227 α      in ANC's #1, #8, #7, ...

........................................................................
.............................. CYCLE   52 ..............................
........................................................................
   1    -83.7250909 -0.837251E+02  0.791E-04    1.24       0.0  T
   2    -83.7250909 -0.127620E-07  0.371E-04    1.24      41.6  T
   3    -83.7250909 -0.225845E-08  0.234E-04    1.24      65.9  T
   4    -83.7250909 -0.858748E-09  0.113E-04    1.24     137.1  T
   5    -83.7250909 -0.308930E-09  0.234E-05    1.24     658.9  T
     SCC iter.                  ...        0 min,  0.018 sec
     gradient                   ...        0 min,  0.082 sec
 * total energy  :   -82.9536830 Eh     change       -0.7739223E-05 Eh
   gradient norm :     0.0004811 Eh/α   predicted    -0.2908895E-05 ( -62.41%)
   displ. norm   :     0.0812685 α      lambda       -0.7141408E-05
   maximum displ.:     0.0623137 α      in ANC's #1, #8, #2, ...

........................................................................
.............................. CYCLE   53 ..............................
........................................................................
   1    -83.7250286 -0.837250E+02  0.718E-04    1.24       0.0  T
   2    -83.7250286 -0.115831E-07  0.367E-04    1.24      42.1  T
   3    -83.7250286 -0.167171E-08  0.204E-04    1.24      75.7  T
   4    -83.7250286 -0.387388E-10  0.111E-04    1.24     139.2  T
   5    -83.7250286 -0.484661E-09  0.230E-05    1.24     670.6  T
     SCC iter.                  ...        0 min,  0.017 sec
     gradient                   ...        0 min,  0.082 sec
 * total energy  :   -82.9536924 Eh     change       -0.9381730E-05 Eh
   gradient norm :     0.0006242 Eh/α   predicted    -0.3581858E-05 ( -61.82%)
   displ. norm   :     0.1014137 α      lambda       -0.8244632E-05
   maximum displ.:     0.0768400 α      in ANC's #1, #8, #2, ...

........................................................................
.............................. CYCLE   54 ..............................
........................................................................
   1    -83.7250631 -0.837251E+02  0.867E-04    1.23       0.0  T
   2    -83.7250631 -0.168049E-07  0.491E-04    1.23      31.5  T
   3    -83.7250631 -0.286720E-08  0.289E-04    1.23      53.4  T
   4    -83.7250631 -0.112821E-08  0.131E-04    1.23     118.1  T
   5    -83.7250631 -0.525361E-09  0.295E-05    1.23     523.8  T
     SCC iter.                  ...        0 min,  0.017 sec
     gradient                   ...        0 min,  0.079 sec
 * total energy  :   -82.9537029 Eh     change       -0.1054061E-04 Eh
   gradient norm :     0.0007321 Eh/α   predicted    -0.4142216E-05 ( -60.70%)
   displ. norm   :     0.1088096 α      lambda       -0.7753840E-05
   maximum displ.:     0.0828727 α      in ANC's #1, #8, #3, ...

........................................................................
.............................. CYCLE   55 ..............................
........................................................................
   1    -83.7249697 -0.837250E+02  0.899E-04    1.23       0.0  T
   2    -83.7249698 -0.238492E-07  0.466E-04    1.23      33.1  T
   3    -83.7249698 -0.191064E-08  0.246E-04    1.23      62.7  T
   4    -83.7249698 -0.254701E-09  0.688E-05    1.23     224.4  T
   5    -83.7249698 -0.275264E-10  0.281E-05    1.23     549.5  T
     SCC iter.                  ...        0 min,  0.017 sec
     gradient                   ...        0 min,  0.074 sec
 * total energy  :   -82.9537127 Eh     change       -0.9854170E-05 Eh
   gradient norm :     0.0006459 Eh/α   predicted    -0.3897991E-05 ( -60.44%)
   displ. norm   :     0.1048805 α      lambda       -0.6952716E-05
   maximum displ.:     0.0803194 α      in ANC's #1, #8, #3, ...

........................................................................
.............................. CYCLE   56 ..............................
........................................................................
   1    -83.7250804 -0.837251E+02  0.104E-03    1.23       0.0  T
   2    -83.7250804 -0.245947E-07  0.686E-04    1.23      22.5  T
   3    -83.7250804 -0.163671E-07  0.337E-04    1.23      45.8  T
   4    -83.7250804 -0.154716E-08  0.133E-04    1.23     116.0  T
   5    -83.7250804 -0.221505E-09  0.424E-05    1.23     363.9  T
     SCC iter.                  ...        0 min,  0.018 sec
     gradient                   ...        0 min,  0.076 sec
 * total energy  :   -82.9537220 Eh     change       -0.9280057E-05 Eh
   gradient norm :     0.0004864 Eh/α   predicted    -0.3498095E-05 ( -62.31%)
   displ. norm   :     0.1193000 α      lambda       -0.8038385E-05
   maximum displ.:     0.0913885 α      in ANC's #1, #8, #3, ...

........................................................................
.............................. CYCLE   57 ..............................
........................................................................
   1    -83.7251335 -0.837251E+02  0.116E-03    1.23       0.0  T
   2    -83.7251335 -0.389904E-07  0.738E-04    1.23      20.9  T
   3    -83.7251335 -0.195175E-07  0.363E-04    1.23      42.5  T
   4    -83.7251335 -0.201709E-08  0.160E-04    1.23      96.5  T
   5    -83.7251335 -0.223977E-09  0.531E-05    1.23     290.4  T
     SCC iter.                  ...        0 min,  0.012 sec
     gradient                   ...        0 min,  0.047 sec
 * total energy  :   -82.9537333 Eh     change       -0.1125410E-04 Eh
   gradient norm :     0.0003896 Eh/α   predicted    -0.4049214E-05 ( -64.02%)
   displ. norm   :     0.1723655 α      lambda       -0.1206540E-04
   maximum displ.:     0.1308384 α      in ANC's #1, #3, #8, ...

........................................................................
.............................. CYCLE   58 ..............................
........................................................................
   1    -83.7250620 -0.837251E+02  0.149E-03    1.23       0.0  T
   2    -83.7250620 -0.552020E-07  0.953E-04    1.22      16.2  T
   3    -83.7250621 -0.338963E-07  0.473E-04    1.23      32.6  T
   4    -83.7250621 -0.378039E-08  0.189E-04    1.23      81.8  T
   5    -83.7250621 -0.256108E-09  0.686E-05    1.23     224.8  T
     SCC iter.                  ...        0 min,  0.013 sec
     gradient                   ...        0 min,  0.043 sec
 * total energy  :   -82.9537506 Eh     change       -0.1731231E-04 Eh
   gradient norm :     0.0005351 Eh/α   predicted    -0.6112797E-05 ( -64.69%)
   displ. norm   :     0.2862529 α      lambda       -0.2076263E-04
   maximum displ.:     0.2162323 α      in ANC's #1, #3, #8, ...

........................................................................
.............................. CYCLE   59 ..............................
........................................................................
   1    -83.7247959 -0.837248E+02  0.221E-03    1.22       0.0  T
   2    -83.7247961 -0.136803E-06  0.139E-03    1.22      11.1  T
   3    -83.7247961 -0.700977E-07  0.685E-04    1.22      22.5  T
   4    -83.7247961 -0.894099E-08  0.282E-04    1.22      54.8  T
   5    -83.7247961 -0.540822E-09  0.102E-04    1.22     150.7  T
   6    -83.7247961 -0.206640E-09  0.209E-05    1.22     738.2  T
     SCC iter.                  ...        0 min,  0.015 sec
     gradient                   ...        0 min,  0.043 sec
 * total energy  :   -82.9537803 Eh     change       -0.2969761E-04 Eh
   gradient norm :     0.0009738 Eh/α   predicted    -0.1076068E-04 ( -63.77%)
   displ. norm   :     0.4857370 α      lambda       -0.3661829E-04
   maximum displ.:     0.3663667 α      in ANC's #1, #3, #8, ...

........................................................................
.............................. CYCLE   60 ..............................
........................................................................
   1    -83.7235580 -0.837236E+02  0.368E-03    1.22       0.0  T
   2    -83.7235584 -0.388795E-06  0.213E-03    1.22       7.2  T
   3    -83.7235585 -0.120814E-06  0.122E-03    1.22      12.6  T
   4    -83.7235585 -0.307400E-07  0.504E-04    1.22      30.6  T
   5    -83.7235585 -0.236656E-08  0.167E-04    1.22      92.3  T
   6    -83.7235585 -0.656414E-09  0.375E-05    1.22     411.9  T
     SCC iter.                  ...        0 min,  0.015 sec
     gradient                   ...        0 min,  0.043 sec
 * total energy  :   -82.9538287 Eh     change       -0.4841891E-04 Eh
   gradient norm :     0.0024847 Eh/α   predicted    -0.2023182E-04 ( -58.22%)
   displ. norm   :     0.3051161 α      lambda       -0.3914934E-04
   maximum displ.:     0.2308959 α      in ANC's #1, #3, #6, ...

........................................................................
.............................. CYCLE   61 ..............................
........................................................................
   1    -83.7232159 -0.837232E+02  0.212E-03    1.22       0.0  T
   2    -83.7232160 -0.146666E-06  0.113E-03    1.22      13.7  T
   3    -83.7232161 -0.270042E-07  0.626E-04    1.22      24.6  T
   4    -83.7232161 -0.618617E-08  0.304E-04    1.22      50.7  T
   5    -83.7232161 -0.176247E-08  0.102E-04    1.22     151.7  T
   6    -83.7232161 -0.258595E-09  0.217E-05    1.22     709.8  T
     SCC iter.                  ...        0 min,  0.016 sec
     gradient                   ...        0 min,  0.052 sec
 * total energy  :   -82.9538632 Eh     change       -0.3450895E-04 Eh
   gradient norm :     0.0029207 Eh/α   predicted    -0.2139799E-04 ( -37.99%)
   displ. norm   :     0.3566034 α      lambda       -0.5037628E-04
   maximum displ.:     0.2717069 α      in ANC's #1, #3, #6, ...

........................................................................
.............................. CYCLE   62 ..............................
........................................................................
   1    -83.7231865 -0.837232E+02  0.172E-03    1.22       0.0  T
   2    -83.7231866 -0.811017E-07  0.917E-04    1.22      16.8  T
   3    -83.7231866 -0.154578E-07  0.479E-04    1.22      32.2  T
   4    -83.7231866 -0.889145E-09  0.250E-04    1.22      61.7  T
   5    -83.7231866 -0.214668E-08  0.741E-05    1.22     208.2  T
   6    -83.7231866 -0.145008E-09  0.167E-05    1.22     925.0  T
     SCC iter.                  ...        0 min,  0.016 sec
     gradient                   ...        0 min,  0.068 sec
 * total energy  :   -82.9539093 Eh     change       -0.4610011E-04 Eh
   gradient norm :     0.0030284 Eh/α   predicted    -0.2839643E-04 ( -38.40%)
   displ. norm   :     0.4721085 α      lambda       -0.7841299E-04
   maximum displ.:     0.3645429 α      in ANC's #1, #3, #6, ...

........................................................................
.............................. CYCLE   63 ..............................
........................................................................
   1    -83.7233864 -0.837234E+02  0.202E-03    1.22       0.0  T
   2    -83.7233865 -0.873752E-07  0.104E-03    1.22      14.9  T
   3    -83.7233865 -0.118773E-07  0.561E-04    1.22      27.5  T
   4    -83.7233865  0.842959E-09  0.334E-04    1.22      46.2  T
   5    -83.7233865 -0.479722E-08  0.669E-05    1.22     230.6  T
   6    -83.7233865 -0.666347E-10  0.184E-05    1.22     840.8  T
     SCC iter.                  ...        0 min,  0.015 sec
     gradient                   ...        0 min,  0.047 sec
 * total energy  :   -82.9539770 Eh     change       -0.6772328E-04 Eh
   gradient norm :     0.0029640 Eh/α   predicted    -0.4794635E-04 ( -29.20%)
   displ. norm   :     0.4427742 α      lambda       -0.8079608E-04
   maximum displ.:     0.3487992 α      in ANC's #1, #3, #6, ...

........................................................................
[...]
N21-C8-N7=128.31               N21-C8-C9=115.72               C10-C9-C8=110.30               C11-C9-C8=107.40               
C11-C9-C10=111.03              N12-C9-C8=107.84               N12-C9-C10=110.20              N12-C9-C11=109.98              
H32-C10-C9=109.14              H33-C10-C9=110.41              H33-C10-H32=109.16             H34-C10-C9=109.96              
H34-C10-H32=108.90             H34-C10-H33=109.24             
 
 selected dihedral angles (degree)
 ---------------------------------
C3-O2-C1-H26= 41.68           C3-O2-C1-H27=161.70           C3-O2-C1-H28=280.84           O4-C3-O2-C1=358.66            
C5-C3-O2-C1=179.20            C6-C5-C3-O2=326.85            C6-C5-C3-O4=147.36            N7-C5-C3-O2=207.10            
N7-C5-C3-O4= 27.61            C24-C5-C3-O2= 88.68           C24-C5-C3-O4=269.20           H29-C6-C5-C3=304.27           
H29-C6-C5-N7= 60.66           H29-C6-C5-C24=191.62          H30-C6-C5-C3= 65.18           H30-C6-C5-N7=181.57           
H30-C6-C5-C24=312.53          H31-C6-C5-C3=185.12           H31-C6-C5-N7=301.51           H31-C6-C5-C24= 72.47          
C8-N7-C5-C3=261.17            C8-N7-C5-C6=142.49            C8-N7-C5-C24= 10.66           C9-C8-N7-C5=174.44            
N21-C8-N7-C5=356.51           C10-C9-C8-N7= 40.19           C10-C9-C8-N21=218.39          C11-C9-C8-N7=279.07           
C11-C9-C8-N21= 97.26          N12-C9-C8-N7=160.58           N12-C9-C8-N21=338.78          H32-C10-C9-C8=303.91          
H32-C10-C9-C11= 62.84         H32-C10-C9-N12=184.95         H33-C10-C9-C8=183.91          H33-C10-C9-C11=302.84         
H33-C10-C9-N12= 64.95         H34-C10-C9-C8= 63.30          H34-C10-C9-C11=182.23         H34-C10-C9-N12=304.34         
           -------------------------------------------------
          |                Final Singlepoint                |
           -------------------------------------------------

          ...................................................
          :                      SETUP                      :
          :.................................................:
          :  # basis functions                 134          :
          :  # atomic orbitals                 134          :
          :  # shells                           84          :
          :  # electrons                       134          :
          :  # halogen bonds                     0          :
          :  max. iterations                   250          :
          :  Hamiltonian                  GFN1-xTB          :
          :  restarted?                      false          :
          :  GBSA solvation                   true          :
          :  PC potential                    false          :
          :  electronic temp.          300.0000000     K    :
          :  accuracy                    1.0000000          :
          :  -> integral cutoff          0.2500000E+02      :
          :  -> integral neglect         0.1000000E-07      :
          :  -> SCF convergence          0.1000000E-05 Eh   :
          :  -> wf. convergence          0.2000000E-04 e    :
          :  Broyden damping             0.4000000          :
          ...................................................

 iter      E             dE          RMSdq      gap      omega  full diag
   1    -83.7260463 -0.837260E+02  0.304E-05    1.25       0.0  T
   2    -83.7260463 -0.316902E-11  0.159E-05    1.25     972.5  T
   3    -83.7260463  0.198952E-11  0.133E-05    1.25    1162.8  T

   *** convergence criteria satisfied after 3 iterations ***

         #    Occupation            Energy/Eh            Energy/eV
      -------------------------------------------------------------
         1        2.0000           -0.8764439             -23.8493
       ...           ...                  ...                  ...
        61        2.0000           -0.4621714             -12.5763
        62        2.0000           -0.4566698             -12.4266
        63        2.0000           -0.4526259             -12.3166
        64        2.0000           -0.4471286             -12.1670
        65        2.0000           -0.4409283             -11.9983
        66        2.0000           -0.4332539             -11.7894
        67        2.0000           -0.4264491             -11.6043 (HOMO)
        68                         -0.3805478             -10.3552 (LUMO)
        69                         -0.3055103              -8.3134
        70                         -0.2944178              -8.0115
        71                         -0.2723328              -7.4106
        72                         -0.2547610              -6.9324
       ...                                ...                  ...
       134                          0.7334140              19.9572
      -------------------------------------------------------------
                  HL-Gap            0.0459013 Eh            1.2490 eV
             Fermi-level           -0.4034980 Eh          -10.9797 eV

 SCC (total)                   0 d,  0 h,  0 min,  0.072 sec
 SCC setup                      ...        0 min,  0.001 sec (  2.019%)
 Dispersion                     ...        0 min,  0.000 sec (  0.467%)
 classical contributions        ...        0 min,  0.000 sec (  0.160%)
 integral evaluation            ...        0 min,  0.019 sec ( 26.344%)
 iterations                     ...        0 min,  0.008 sec ( 10.901%)
 molecular gradient             ...        0 min,  0.043 sec ( 59.522%)
 printout                       ...        0 min,  0.000 sec (  0.541%)

         :::::::::::::::::::::::::::::::::::::::::::::::::::::
         ::                     SUMMARY                     ::
         :::::::::::::::::::::::::::::::::::::::::::::::::::::
         :: total energy             -82.954602922825 Eh    ::
         :: total w/o Gsasa/hb       -82.930585688460 Eh    ::
         :: gradient norm              0.000210581495 Eh/a0 ::
         :: HOMO-LUMO gap              1.249037990732 eV    ::
         ::.................................................::
         :: SCC energy               -83.726046343614 Eh    ::
         :: -> electrostatic           0.359419150506 Eh    ::
         :: -> Gsolv                  -0.054333360679 Eh    ::
         ::    -> Gelec               -0.030316126313 Eh    ::
         ::    -> Gsasa               -0.024316114906 Eh    ::
         ::    -> Ghb                 -0.007325398464 Eh    ::
         ::    -> Gshift               0.007624279005 Eh    ::
         :: repulsion energy           0.797696665720 Eh    ::
         :: dispersion energy         -0.026253244931 Eh    ::
         :: halogen bond corr.         0.000000000000 Eh    ::
         :: add. restraining           0.000000000000 Eh    ::
         :: total charge               0.000000000000 e     ::
         :::::::::::::::::::::::::::::::::::::::::::::::::::::

           -------------------------------------------------
          |                Property Printout                |
           -------------------------------------------------

    * Orbital Energies and Occupations

         #    Occupation            Energy/Eh            Energy/eV
      -------------------------------------------------------------
         1        2.0000           -0.8764439             -23.8493
       ...           ...                  ...                  ...
        55        2.0000           -0.5030313             -13.6882
        56        2.0000           -0.4992238             -13.5846
        57        2.0000           -0.4966853             -13.5155
        58        2.0000           -0.4891728             -13.3111
        59        2.0000           -0.4876232             -13.2689
        60        2.0000           -0.4796470             -13.0519
        61        2.0000           -0.4621714             -12.5763
        62        2.0000           -0.4566698             -12.4266
        63        2.0000           -0.4526259             -12.3166
        64        2.0000           -0.4471286             -12.1670
        65        2.0000           -0.4409283             -11.9983
        66        2.0000           -0.4332539             -11.7894
        67        2.0000           -0.4264491             -11.6043 (HOMO)
        68                         -0.3805478             -10.3552 (LUMO)
        69                         -0.3055103              -8.3134
        70                         -0.2944178              -8.0115
        71                         -0.2723328              -7.4106
        72                         -0.2547610              -6.9324
        73                         -0.1998691              -5.4387
        74                         -0.1936284              -5.2689
        75                         -0.1528527              -4.1593
        76                         -0.1418757              -3.8606
        77                         -0.1352953              -3.6816
        78                         -0.1200244              -3.2660
       ...                                ...                  ...
       134                          0.7334140              19.9572
      -------------------------------------------------------------
                  HL-Gap            0.0459013 Eh            1.2490 eV
             Fermi-level           -0.4034980 Eh          -10.9797 eV

  Mulliken/CM5 charges         n(s)   n(p)   n(d)
     1C     0.15776  0.03578   0.990  2.852  0.000
     2O    -0.38897 -0.48074   1.679  4.710  0.000
     3C     0.61094  0.67986   0.966  2.423  0.000
     4O    -0.50101 -0.54738   1.716  4.785  0.000
     5C     0.13377  0.19147   1.061  2.806  0.000
     6C    -0.08222 -0.22005   1.019  3.063  0.000
     7N    -0.41238 -0.60044   1.545  3.867  0.000
     8C     0.30497  0.46053   1.025  2.670  0.000
     9C     0.15735  0.20013   1.061  2.781  0.000
    10C    -0.10099 -0.23919   1.017  3.084  0.000
    11C    -0.09614 -0.23498   1.018  3.078  0.000
    12N    -0.33573 -0.68407   1.430  3.905  0.000
    13C     0.46538  0.57539   0.973  2.561  0.000
    14O    -0.58077 -0.62563   1.727  4.854  0.000
    15C     0.33252  0.45832   1.010  2.657  0.000
    16N    -0.24457 -0.35481   1.568  3.676  0.000
    17N    -0.26771 -0.37531   1.565  3.703  0.000
    18C     0.38705  0.49565   1.007  2.606  0.000
    19C    -0.11112 -0.24853   1.011  3.100  0.000
    20O    -0.34094 -0.39239   1.692  4.649  0.000
    21N    -0.42575 -0.60532   1.538  3.888  0.000
    22C     0.44906  0.56097   0.974  2.577  0.000
    23O    -0.60669 -0.65396   1.733  4.874  0.000
    24C     0.32095  0.35636   1.100  2.579  0.000
    25O    -0.42508 -0.61586   1.702  4.723  0.000
    26H     0.06838  0.13146   0.932  0.000  0.000
    27H     0.07306  0.13343   0.927  0.000  0.000
    28H     0.06870  0.12891   0.931  0.000  0.000
    29H     0.06646  0.12405   0.934  0.000  0.000
    30H     0.06506  0.12544   0.935  0.000  0.000
    31H     0.06722  0.12341   0.933  0.000  0.000
    32H     0.04144  0.10045   0.959  0.000  0.000
    33H     0.05433  0.11426   0.946  0.000  0.000
    34H     0.03925  0.09641   0.961  0.000  0.000
    35H     0.05438  0.11357   0.946  0.000  0.000
    36H     0.04242  0.09989   0.958  0.000  0.000
    37H     0.04348  0.10048   0.957  0.000  0.000
    38H     0.24681  0.46173   0.753  0.000  0.000
    39H     0.07766  0.13213   0.922  0.000  0.000
    40H     0.06812  0.12396   0.932  0.000  0.000
    41H     0.07743  0.13193   0.923  0.000  0.000
    42H     0.44613  0.62271   0.554  0.000  0.000

Wiberg/Mayer (AO) data.
largest (>0.10) Wiberg bond orders for each atom

 ---------------------------------------------------------------------------
     #   Z sym  total        # sym  WBO       # sym  WBO       # sym  WBO
 ---------------------------------------------------------------------------
     1   6 C    3.839 --    27 H    0.982    26 H    0.980    28 H    0.978
                             2 O    0.860
     2   8 O    2.242 --     3 C    1.178     1 C    0.860     4 O    0.142
     3   6 C    3.851 --     4 O    1.726     2 O    1.178     5 C    0.774
     4   8 O    2.024 --     3 C    1.726     2 O    0.142
     5   6 C    3.969 --    24 C    1.058     7 N    1.027     6 C    0.950
                             3 C    0.774
     6   6 C    3.978 --    29 H    0.984    30 H    0.983    31 H    0.981
                             5 C    0.950
     7   7 N    3.002 --     8 C    1.596     5 C    1.027
     8   6 C    3.943 --     7 N    1.596    21 N    1.243     9 C    0.978
     9   6 C    3.936 --    10 C    0.988     8 C    0.978    11 C    0.972
                            12 N    0.929
    10   6 C    3.991 --     9 C    0.988    34 H    0.986    32 H    0.983
                            33 H    0.982
    11   6 C    3.990 --    36 H    0.986    37 H    0.985    35 H    0.981
                             9 C    0.972
    12   7 N    3.365 --    13 C    1.276     9 C    0.929    38 H    0.879
                            14 O    0.183
    13   6 C    3.921 --    14 O    1.578    12 N    1.276    15 C    0.985
    14   8 O    1.898 --    13 C    1.578    12 N    0.183
    15   6 C    3.873 --    16 N    1.615    20 O    1.063    13 C    0.985
    16   7 N    3.013 --    15 C    1.615    17 N    1.196
    17   7 N    2.980 --    18 C    1.609    16 N    1.196
    18   6 C    3.872 --    17 N    1.609    20 O    1.082    19 C    1.031
    19   6 C    3.987 --    18 C    1.031    40 H    0.983    41 H    0.964
                            39 H    0.963
    20   8 O    2.328 --    18 C    1.082    15 C    1.063
    21   7 N    3.025 --    22 C    1.311     8 C    1.243    23 O    0.163
                            24 C    0.109
    22   6 C    3.934 --    23 O    1.511    21 N    1.311    24 C    0.989
    23   8 O    1.884 --    22 C    1.511    21 N    0.163
    24   6 C    3.786 --    25 O    1.330     5 C    1.058    22 C    0.989
                            21 N    0.109
    25   8 O    2.252 --    24 C    1.330    42 H    0.745
    26   1 H    1.002 --     1 C    0.980
    27   1 H    1.005 --     1 C    0.982
    28   1 H    1.001 --     1 C    0.978
    29   1 H    1.001 --     6 C    0.984
    30   1 H    1.004 --     6 C    0.983
    31   1 H    0.999 --     6 C    0.981
    32   1 H    1.014 --    10 C    0.983
    33   1 H    1.011 --    10 C    0.982
    34   1 H    1.004 --    10 C    0.986
    35   1 H    1.009 --    11 C    0.981
    36   1 H    1.003 --    11 C    0.986
    37   1 H    1.007 --    11 C    0.985
    38   1 H    0.970 --    12 N    0.879
    39   1 H    0.997 --    19 C    0.963
    40   1 H    0.999 --    19 C    0.983
    41   1 H    0.997 --    19 C    0.964
    42   1 H    0.822 --    25 O    0.745
 ---------------------------------------------------------------------------

Topologies differ in total number of bonds
Writing topology from bond orders to xtbtopo.mol

 dipole moment from electron density (au)
     X       Y       Z   
  -3.4519   1.0821  -0.3404  total (Debye):    9.235

           -------------------------------------------------
          |                Geometry Summary                 |
           -------------------------------------------------

      molecular mass/u    :      351.3152409
   center of mass at/Å    :        0.1854437       0.1212223       0.2290388
  moments of inertia/u·Å² :        0.9494304E+03   0.5019894E+04   0.5521400E+04
rotational constants/cm⁻¹ :        0.1775552E-01   0.3358165E-02   0.3053145E-02

 * 38 selected distances

     #   Z          #   Z                                           value/Å
     1   6 C        2   8 O                                       1.4405223
     2   8 O        3   6 C                                       1.3059777
     3   6 C        4   8 O                                       1.1934680
     5   6 C        6   6 C                                       1.5327253
     5   6 C        7   7 N                                       1.4224715
     7   7 N        8   6 C                                       1.2963570
     9   6 C       10   6 C                                       1.5323025
     9   6 C       11   6 C                                       1.5377538 (max)
     9   6 C       12   7 N                                       1.4600638
    12   7 N       13   6 C                                       1.3424009
    13   6 C       14   8 O                                       1.2209548
    15   6 C       16   7 N                                       1.2988302
    17   7 N       18   6 C                                       1.2979591
    18   6 C       19   6 C                                       1.4796410
    15   6 C       20   8 O                                       1.3461467
    18   6 C       20   8 O                                       1.3414255
     8   6 C       21   7 N                                       1.3552440
    21   7 N       22   6 C                                       1.3330155
    22   6 C       23   8 O                                       1.2341741
     5   6 C       24   6 C                                       1.4592991
    24   6 C       25   8 O                                       1.2836233
     1   6 C       26   1 H                                       1.0910215
     1   6 C       27   1 H                                       1.0873580
     1   6 C       28   1 H                                       1.0907762
     6   6 C       29   1 H                                       1.0871460
     6   6 C       30   1 H                                       1.0869117
     6   6 C       31   1 H                                       1.0878792
    10   6 C       32   1 H                                       1.0885462
    10   6 C       33   1 H                                       1.0884128
    10   6 C       34   1 H                                       1.0890055
    11   6 C       35   1 H                                       1.0886630
    11   6 C       36   1 H                                       1.0892890
    11   6 C       37   1 H                                       1.0889168
    12   7 N       38   1 H                                       1.0147450
    19   6 C       39   1 H                                       1.0899136
    19   6 C       40   1 H                                       1.0871465
    19   6 C       41   1 H                                       1.0897515
    25   8 O       42   1 H                                       0.9974592 (min)

 * 6 distinct bonds (by element types)

   Z      Z             #   av. dist./Å        max./Å        min./Å
   1 H    6 C          15     1.0887158     1.0910215     1.0869117
   6 C    6 C           5     1.5083443     1.5377538     1.4592991
   1 H    7 N           1     1.0147450     1.0147450     1.0147450
   6 C    7 N           8     1.3507928     1.4600638     1.2963570
   1 H    8 O           1     0.9974592     0.9974592     0.9974592
   6 C    8 O           8     1.2957866     1.4405223     1.1934680


optimized geometry written to: xtbopt.xyz


           -------------------------------------------------
          | TOTAL ENERGY              -82.954602922825 Eh   |
          | GRADIENT NORM               0.000210581495 Eh/α |
          | HOMO-LUMO GAP               1.249037990732 eV   |
           -------------------------------------------------

------------------------------------------------------------------------
 * finished run on 2023/06/20 at 18:17:55.716     
------------------------------------------------------------------------
 total:
 * wall-time:     0 d,  0 h,  0 min, 11.357 sec
 *  cpu-time:     0 d,  0 h,  0 min, 11.227 sec
 * ratio c/w:     0.989 speedup
 SCF:
 * wall-time:     0 d,  0 h,  0 min,  0.258 sec
 *  cpu-time:     0 d,  0 h,  0 min,  0.170 sec
 * ratio c/w:     0.660 speedup
 ANC optimizer:
 * wall-time:     0 d,  0 h,  0 min, 11.052 sec
 *  cpu-time:     0 d,  0 h,  0 min, 11.025 sec
 * ratio c/w:     0.998 speedup

