      -----------------------------------------------------------      
     |                   =====================                   |     
     |                           x T B                           |     
     |                   =====================                   |     
     |                         S. Grimme                         |     
     |          Mulliken Center for Theoretical Chemistry        |     
     |                    University of Bonn                     |     
      -----------------------------------------------------------      

   * xtb version 6.5.1 (579679a) compiled by 'ehlert@majestix' on 2022-07-11

   xtb is free software: you can redistribute it and/or modify it under
   the terms of the GNU Lesser General Public License as published by
   the Free Software Foundation, either version 3 of the License, or
   (at your option) any later version.
   
   xtb is distributed in the hope that it will be useful,
   but WITHOUT ANY WARRANTY; without even the implied warranty of
   MERCHANTABILITY or FITNESS FOR A PARTICULAR PURPOSE.  See the
   GNU Lesser General Public License for more details.
   
   Cite this work as:
   * C. Bannwarth, E. Caldeweyher, S. Ehlert, A. Hansen, P. Pracht,
     J. Seibert, S. Spicher, S. Grimme, WIREs Comput. Mol. Sci., 2020, 11,
     e01493. DOI: 10.1002/wcms.1493
   
   for GFN2-xTB:
   * C. Bannwarth, S. Ehlert and S. Grimme., J. Chem. Theory Comput., 2019,
     15, 1652-1671. DOI: 10.1021/acs.jctc.8b01176
   for GFN1-xTB:
   * S. Grimme, C. Bannwarth, P. Shushkov, J. Chem. Theory Comput., 2017,
     13, 1989-2009. DOI: 10.1021/acs.jctc.7b00118
   for GFN0-xTB:
   * P. Pracht, E. Caldeweyher, S. Ehlert, S. Grimme, ChemRxiv, 2019, preprint.
     DOI: 10.26434/chemrxiv.8326202.v1
   for GFN-FF:
   * S. Spicher and S. Grimme, Angew. Chem. Int. Ed., 2020, 59, 15665-15673.
     DOI: 10.1002/anie.202004239
   
   for ALPB and GBSA implicit solvation:
   * S. Ehlert, M. Stahn, S. Spicher, S. Grimme, J. Chem. Theory Comput.,
     2021, 17, 4250-4261. DOI: 10.1021/acs.jctc.1c00471
   
   for DFT-D4:
   * E. Caldeweyher, C. Bannwarth and S. Grimme, J. Chem. Phys., 2017,
     147, 034112. DOI: 10.1063/1.4993215
   * E. Caldeweyher, S. Ehlert, A. Hansen, H. Neugebauer, S. Spicher,
     C. Bannwarth and S. Grimme, J. Chem. Phys., 2019, 150, 154122.
     DOI: 10.1063/1.5090222
   * E. Caldeweyher, J.-M. Mewes, S. Ehlert and S. Grimme, Phys. Chem. Chem. Phys.
     2020, 22, 8499-8512. DOI: 10.1039/D0CP00502A
   
   for sTDA-xTB:
   * S. Grimme and C. Bannwarth, J. Chem. Phys., 2016, 145, 054103.
     DOI: 10.1063/1.4959605
   
   in the mass-spec context:
   * V. Asgeirsson, C. Bauer and S. Grimme, Chem. Sci., 2017, 8, 4879.
     DOI: 10.1039/c7sc00601b
   * J. Koopman and S. Grimme, ACS Omega 2019, 4, 12, 15120-15133.
     DOI: 10.1021/acsomega.9b02011
   
   for metadynamics refer to:
   * S. Grimme, J. Chem. Theory Comput., 2019, 155, 2847-2862
     DOI: 10.1021/acs.jctc.9b00143
   
   for SPH calculations refer to:
   * S. Spicher and S. Grimme, J. Chem. Theory Comput., 2021, 17, 1701-1714
     DOI: 10.1021/acs.jctc.0c01306
   
   with help from (in alphabetical order)
   P. Atkinson, C. Bannwarth, F. Bohle, G. Brandenburg, E. Caldeweyher
   M. Checinski, S. Dohm, S. Ehlert, S. Ehrlich, I. Gerasimov, C. Hölzer
   A. Katbashev, J. Koopman, C. Lavigne, S. Lehtola, F. März, M. Müller,
   F. Musil, H. Neugebauer, J. Pisarek, C. Plett, P. Pracht, F. Pultar,
   J. Seibert, P. Shushkov, S. Spicher, M. Stahn, M. Steiner, T. Strunk,
   J. Stückrath, T. Rose, and J. Unsleber
   
 * started run on 2023/06/20 at 18:18:10.736     

           -------------------------------------------------
          |                Calculation Setup                |
           -------------------------------------------------

          program call               : /lustre/hpc/kemi/ree/PhD/git/ReactivityQM/dep/xtb-6.5.1/bin/xtb --gfn 1 /lustre/hpc/kemi/ree/PhD/git/ReactivityQM/calculations/R02deprot/reac01prodN11/conf12/R02deprot_reac01prodN11_conf12_gfn1.xyz --opt --vfukui --chrg 0 --uhf 0 --alpb DMSO
          hostname                   : node308
          coordinate file            : /lustre/hpc/kemi/ree/PhD/git/ReactivityQM/calculations/R02deprot/reac01prodN11/conf12/R02deprot_reac01prodN11_conf12_gfn1.xyz
          omp threads                :                     1

   ID    Z sym.   atoms
    1    6 C      1, 3, 5, 6, 8, 11-15, 17, 19, 22, 23
    2    8 O      2, 4, 7, 9, 18, 24
    3    7 N      10, 16, 20, 21, 25
    4    1 H      26-42

           -------------------------------------------------
          |                 G F N 1 - x T B                 |
           -------------------------------------------------

        Reference                      10.1021/acs.jctc.7b00118
      * Hamiltonian:
        H0-scaling (s, p, d)           1.850000    2.250000    2.000000
        zeta-weighting                 0.000000
      * Dispersion:
        s8                             2.400000
        a1                             0.630000
        a2                             5.000000
        s9                             0.000000
      * Repulsion:
        kExp                           1.500000
        rExp                           1.000000
      * Coulomb:
        alpha                          2.000000
        third order                    atomic
        anisotropic                    false
      * Halogen bond correction:
        rad-scale                      1.300000
        damping                        0.440000

      * Solvation model:               ALPB
        Solvent                        DMSO
        Parameter file                 internal GFN1-xTB/ALPB
        Dielectric constant                4.6680E+01
        Reference state                gsolv [1 M gas/solution]
        Free energy shift                  7.6243E-03 Eh       4.7843E+00 kcal/mol
        Temperature                        2.9815E+02 K
        Density                            1.1000E+00 kg/L
        Solvent mass                       7.8130E+01 g/mol
        Interaction kernel             P16
        Born radius scaling (c1)           1.7672E+00
        Born radii integrator          GBOBC
        Born offset                        0.0000E+00 a0       0.0000E+00 AA
        H-bond correction              true
        Ion screening                  false
        Surface tension                    1.0000E-05 Eh       1.5569E+01 dyn/cm
        Grid points                               230 per atom

          ...................................................
          :                      SETUP                      :
          :.................................................:
          :  # basis functions                 134          :
          :  # atomic orbitals                 134          :
          :  # shells                           84          :
          :  # electrons                       134          :
          :  # halogen bonds                     0          :
          :  max. iterations                   250          :
          :  Hamiltonian                  GFN1-xTB          :
          :  restarted?                      false          :
          :  GBSA solvation                   true          :
          :  PC potential                    false          :
          :  electronic temp.          300.0000000     K    :
          :  accuracy                    1.0000000          :
          :  -> integral cutoff          0.2500000E+02      :
          :  -> integral neglect         0.1000000E-07      :
          :  -> SCF convergence          0.1000000E-05 Eh   :
          :  -> wf. convergence          0.2000000E-04 e    :
          :  Broyden damping             0.4000000          :
          ...................................................

 iter      E             dE          RMSdq      gap      omega  full diag
   1    -83.3325594 -0.833326E+02  0.840E+00    1.32       0.0  T
   2    -83.6256315 -0.293072E+00  0.508E+00    0.64       1.0  T
   3    -83.5386828  0.869488E-01  0.226E+00    1.30       1.0  T
   4    -83.6365419 -0.978592E-01  0.707E-01    0.69       1.0  T
   5    -83.6591986 -0.226567E-01  0.393E-01    0.89       1.0  T
   6    -83.6667669 -0.756826E-02  0.973E-02    0.76       1.0  T
   7    -83.6671528 -0.385935E-03  0.191E-02    0.72       1.0  T
   8    -83.6671764 -0.236417E-04  0.117E-02    0.72       1.3  T
   9    -83.6671800 -0.351402E-05  0.285E-03    0.72       5.4  T
  10    -83.6671800  0.797482E-08  0.192E-03    0.72       8.0  T
  11    -83.6671801 -0.126871E-06  0.399E-04    0.72      38.7  T
  12    -83.6671801 -0.517629E-08  0.913E-05    0.72     169.1  T
  13    -83.6671801 -0.277922E-09  0.193E-05    0.72     800.9  T

   *** convergence criteria satisfied after 13 iterations ***

         #    Occupation            Energy/Eh            Energy/eV
      -------------------------------------------------------------
         1        2.0000           -0.8649963             -23.5377
       ...           ...                  ...                  ...
        61        2.0000           -0.4644879             -12.6394
        62        2.0000           -0.4605006             -12.5309
        63        2.0000           -0.4551554             -12.3854
        64        2.0000           -0.4461620             -12.1407
        65        2.0000           -0.4422399             -12.0340
        66        2.0000           -0.4353775             -11.8472
        67        2.0000           -0.4286559             -11.6643 (HOMO)
        68        0.0000           -0.4021632             -10.9434 (LUMO)
        69                         -0.3342657              -9.0958
        70                         -0.3183194              -8.6619
        71                         -0.2597735              -7.0688
        72                         -0.2462823              -6.7017
       ...                                ...                  ...
       134                          0.6892345              18.7550
      -------------------------------------------------------------
                  HL-Gap            0.0264927 Eh            0.7209 eV
             Fermi-level           -0.4154091 Eh          -11.3039 eV

 SCC (total)                   0 d,  0 h,  0 min,  0.209 sec
 SCC setup                      ...        0 min,  0.002 sec (  1.020%)
 Dispersion                     ...        0 min,  0.000 sec (  0.195%)
 classical contributions        ...        0 min,  0.000 sec (  0.061%)
 integral evaluation            ...        0 min,  0.062 sec ( 29.452%)
 iterations                     ...        0 min,  0.061 sec ( 29.145%)
 molecular gradient             ...        0 min,  0.083 sec ( 39.679%)
 printout                       ...        0 min,  0.001 sec (  0.422%)

         :::::::::::::::::::::::::::::::::::::::::::::::::::::
         ::                     SUMMARY                     ::
         :::::::::::::::::::::::::::::::::::::::::::::::::::::
         :: total energy             -82.919404634397 Eh    ::
         :: total w/o Gsasa/hb       -82.895696368371 Eh    ::
         :: gradient norm              0.124001307278 Eh/a0 ::
         :: HOMO-LUMO gap              0.720902818257 eV    ::
         ::.................................................::
         :: SCC energy               -83.667180085329 Eh    ::
         :: -> electrostatic           0.357067741037 Eh    ::
         :: -> Gsolv                  -0.054920544719 Eh    ::
         ::    -> Gelec               -0.031212278693 Eh    ::
         ::    -> Gsasa               -0.023983477293 Eh    ::
         ::    -> Ghb                 -0.007349067737 Eh    ::
         ::    -> Gshift               0.007624279005 Eh    ::
         :: repulsion energy           0.774427699067 Eh    ::
         :: dispersion energy         -0.026652248134 Eh    ::
         :: halogen bond corr.         0.000000000000 Eh    ::
         :: add. restraining           0.000000000000 Eh    ::
         :: total charge               0.000000001490 e     ::
         :::::::::::::::::::::::::::::::::::::::::::::::::::::

      ----------------------------------------------------------- 
     |                   =====================                   |
     |                        A N C O P T                        |
     |                   =====================                   |
     |               Approximate Normal Coordinate               |
     |                Rational Function Optimizer                |
      ----------------------------------------------------------- 

          ...................................................
          :                      SETUP                      :
          :.................................................:
          :   optimization level            normal          :
          :   max. optcycles                   200          :
          :   ANC micro-cycles                  20          :
          :   degrees of freedom               120          :
          :.................................................:
          :   RF solver                   davidson          :
          :   write xtbopt.log                true          :
          :   linear?                        false          :
          :   energy convergence         0.5000000E-05 Eh   :
          :   grad. convergence          0.1000000E-02 Eh/α :
          :   maximium RF displ.         1.0000000          :
          :   Hlow (freq-cutoff)         0.1000000E-01      :
          :   Hmax (freq-cutoff)         5.0000000          :
          :   S6 in model hess.         20.0000000          :
          ...................................................

generating ANC from model Hessian ...
Using Lindh-Hessian (1995)
 Shifting diagonal of input Hessian by   9.827231164905059E-003
 Lowest  eigenvalues of input Hessian
    0.000000    0.000000    0.000000    0.000000    0.000000    0.000000
    0.010000    0.010129    0.010586    0.011241    0.011486    0.012610
    0.013298    0.014102    0.014711    0.015541    0.016431    0.016467
 Highest eigenvalues
    1.964038    2.114087    2.144284    2.283863    2.337054    2.341826
 

........................................................................
.............................. CYCLE    1 ..............................
........................................................................
   1    -83.6671801 -0.836672E+02  0.664E-06    0.72       0.0  T
   2    -83.6671801  0.157740E-11  0.765E-06    0.72    2016.5  T
   3    -83.6671801 -0.285638E-11  0.254E-06    0.72    6078.1  T
     SCC iter.                  ...        0 min,  0.012 sec
     gradient                   ...        0 min,  0.083 sec
 * total energy  :   -82.9194046 Eh     change       -0.7005951E-11 Eh
   gradient norm :     0.1240013 Eh/α   predicted     0.0000000E+00 (-100.00%)
   displ. norm   :     0.3125402 α      lambda       -0.1830157E-01
   maximum displ.:     0.1198879 α      in ANC's #26, #24, #44, ...

........................................................................
.............................. CYCLE    2 ..............................
........................................................................
   1    -83.6853433 -0.836853E+02  0.106E-01    0.85       0.0  T
   2    -83.6852844  0.589066E-04  0.110E-01    0.83       1.0  T
   3    -83.6858831 -0.598628E-03  0.362E-02    0.86       1.0  T
   4    -83.6859419 -0.588566E-04  0.116E-02    0.85       1.3  T
   5    -83.6859417  0.213152E-06  0.395E-03    0.85       3.9  T
   6    -83.6859422 -0.499600E-06  0.655E-04    0.85      23.6  T
   7    -83.6859422 -0.460224E-08  0.203E-04    0.85      76.2  T
   8    -83.6859422 -0.862173E-09  0.770E-05    0.85     200.3  T
   9    -83.6859422 -0.548397E-10  0.258E-05    0.85     597.4  T
     SCC iter.                  ...        0 min,  0.035 sec
     gradient                   ...        0 min,  0.083 sec
 * total energy  :   -82.9325459 Eh     change       -0.1314127E-01 Eh
   gradient norm :     0.0625679 Eh/α   predicted    -0.1005630E-01 ( -23.48%)
   displ. norm   :     0.3400086 α      lambda       -0.8316788E-02
   maximum displ.:     0.1332493 α      in ANC's #23, #24, #26, ...

........................................................................
.............................. CYCLE    3 ..............................
........................................................................
   1    -83.6976778 -0.836977E+02  0.986E-02    0.93       0.0  T
   2    -83.6978154 -0.137626E-03  0.749E-02    0.92       1.0  T
   3    -83.6980568 -0.241390E-03  0.350E-02    0.94       1.0  T
   4    -83.6981110 -0.541922E-04  0.105E-02    0.94       1.5  T
   5    -83.6981111 -0.677832E-07  0.307E-03    0.93       5.0  T
   6    -83.6981112 -0.145159E-06  0.545E-04    0.93      28.3  T
   7    -83.6981112 -0.376963E-08  0.165E-04    0.93      93.7  T
   8    -83.6981112 -0.318238E-09  0.505E-05    0.93     305.3  T
     SCC iter.                  ...        0 min,  0.030 sec
     gradient                   ...        0 min,  0.082 sec
 * total energy  :   -82.9374275 Eh     change       -0.4881619E-02 Eh
   gradient norm :     0.0220793 Eh/α   predicted    -0.4642816E-02 (  -4.89%)
   displ. norm   :     0.2552819 α      lambda       -0.1541090E-02
   maximum displ.:     0.1052549 α      in ANC's #8, #5, #23, ...

........................................................................
.............................. CYCLE    4 ..............................
........................................................................
   1    -83.7001097 -0.837001E+02  0.245E-02    0.95       0.0  T
   2    -83.7001305 -0.208435E-04  0.142E-02    0.95       1.1  T
   3    -83.7001336 -0.306297E-05  0.657E-03    0.95       2.3  T
   4    -83.7001333  0.254445E-06  0.803E-03    0.95       1.9  T
   5    -83.7001354 -0.208718E-05  0.114E-03    0.95      13.6  T
   6    -83.7001354 -0.119822E-07  0.184E-04    0.95      84.0  T
   7    -83.7001354 -0.623999E-09  0.740E-05    0.95     208.4  T
     SCC iter.                  ...        0 min,  0.026 sec
     gradient                   ...        0 min,  0.083 sec
 * total energy  :   -82.9385586 Eh     change       -0.1131059E-02 Eh
   gradient norm :     0.0139911 Eh/α   predicted    -0.8209293E-03 ( -27.42%)
   displ. norm   :     0.3832855 α      lambda       -0.1346354E-02
   maximum displ.:     0.1572648 α      in ANC's #8, #6, #5, ...

........................................................................
.............................. CYCLE    5 ..............................
........................................................................
   1    -83.7015087 -0.837015E+02  0.229E-02    0.95       0.0  T
   2    -83.7015152 -0.646126E-05  0.268E-02    0.96       1.0  T
   3    -83.7015453 -0.301146E-04  0.867E-03    0.95       1.8  T
   4    -83.7015440  0.132507E-05  0.854E-03    0.95       1.8  T
   5    -83.7015457 -0.173128E-05  0.166E-03    0.95       9.3  T
   6    -83.7015458 -0.511201E-07  0.203E-04    0.95      76.0  T
   7    -83.7015458 -0.964008E-09  0.730E-05    0.95     211.4  T
   8    -83.7015458 -0.750617E-10  0.264E-05    0.95     583.6  T
     SCC iter.                  ...        0 min,  0.030 sec
     gradient                   ...        0 min,  0.083 sec
 * total energy  :   -82.9395319 Eh     change       -0.9733007E-03 Eh
   gradient norm :     0.0115922 Eh/α   predicted    -0.7720893E-03 ( -20.67%)
   displ. norm   :     0.4307494 α      lambda       -0.9399605E-03
   maximum displ.:     0.1871637 α      in ANC's #6, #8, #5, ...

........................................................................
.............................. CYCLE    6 ..............................
........................................................................
   1    -83.7022777 -0.837023E+02  0.157E-02    0.95       0.0  T
   2    -83.7022780 -0.260225E-06  0.203E-02    0.96       1.0  T
   3    -83.7022964 -0.184585E-04  0.631E-03    0.95       2.4  T
   4    -83.7022962  0.286918E-06  0.507E-03    0.95       3.0  T
   5    -83.7022967 -0.511225E-06  0.112E-03    0.95      13.7  T
   6    -83.7022967 -0.288776E-07  0.137E-04    0.95     112.6  T
   7    -83.7022967 -0.553641E-09  0.450E-05    0.95     343.1  T
     SCC iter.                  ...        0 min,  0.026 sec
     gradient                   ...        0 min,  0.083 sec
 * total energy  :   -82.9402752 Eh     change       -0.7432978E-03 Eh
   gradient norm :     0.0148245 Eh/α   predicted    -0.5571832E-03 ( -25.04%)
   displ. norm   :     0.5359657 α      lambda       -0.1007843E-02
   maximum displ.:     0.2412761 α      in ANC's #6, #8, #2, ...

........................................................................
.............................. CYCLE    7 ..............................
........................................................................
   1    -83.7025639 -0.837026E+02  0.138E-02    0.96       0.0  T
   2    -83.7025676 -0.373911E-05  0.113E-02    0.96       1.4  T
   3    -83.7025721 -0.447134E-05  0.523E-03    0.95       3.0  T
   4    -83.7025728 -0.676421E-06  0.312E-03    0.95       4.9  T
   5    -83.7025729 -0.161819E-06  0.741E-04    0.95      20.8  T
   6    -83.7025729 -0.120187E-07  0.145E-04    0.95     106.6  T
   7    -83.7025729 -0.832699E-09  0.436E-05    0.95     354.2  T
     SCC iter.                  ...        0 min,  0.026 sec
     gradient                   ...        0 min,  0.083 sec
 * total energy  :   -82.9410910 Eh     change       -0.8158372E-03 Eh
   gradient norm :     0.0156592 Eh/α   predicted    -0.6486781E-03 ( -20.49%)
   displ. norm   :     0.5455408 α      lambda       -0.9821942E-03
   maximum displ.:     0.2422456 α      in ANC's #2, #6, #8, ...

........................................................................
.............................. CYCLE    8 ..............................
........................................................................
   1    -83.7036611 -0.837037E+02  0.156E-02    0.97       0.0  T
   2    -83.7036671 -0.604022E-05  0.931E-03    0.96       1.7  T
   3    -83.7036680 -0.858866E-06  0.637E-03    0.96       2.4  T
   4    -83.7036696 -0.162016E-05  0.311E-03    0.96       5.0  T
   5    -83.7036698 -0.182840E-06  0.613E-04    0.96      25.2  T
   6    -83.7036698 -0.234508E-08  0.103E-04    0.96     149.7  T
   7    -83.7036698 -0.335376E-09  0.467E-05    0.96     330.3  T
     SCC iter.                  ...        0 min,  0.026 sec
     gradient                   ...        0 min,  0.083 sec
 * total energy  :   -82.9418680 Eh     change       -0.7770301E-03 Eh
   gradient norm :     0.0118951 Eh/α   predicted    -0.6372554E-03 ( -17.99%)
   displ. norm   :     0.5189774 α      lambda       -0.7501919E-03
   maximum displ.:     0.2513020 α      in ANC's #2, #6, #8, ...

........................................................................
.............................. CYCLE    9 ..............................
........................................................................
   1    -83.7045257 -0.837045E+02  0.157E-02    0.98       0.0  T
   2    -83.7045304 -0.470852E-05  0.118E-02    0.97       1.3  T
   3    -83.7045345 -0.409870E-05  0.577E-03    0.97       2.7  T
   4    -83.7045358 -0.125523E-05  0.309E-03    0.97       5.0  T
   5    -83.7045359 -0.161278E-06  0.705E-04    0.97      21.9  T
   6    -83.7045359 -0.432578E-08  0.103E-04    0.97     150.2  T
   7    -83.7045359 -0.270489E-09  0.496E-05    0.97     311.2  T
     SCC iter.                  ...        0 min,  0.025 sec
     gradient                   ...        0 min,  0.083 sec
 * total energy  :   -82.9424478 Eh     change       -0.5797561E-03 Eh
   gradient norm :     0.0082962 Eh/α   predicted    -0.4761244E-03 ( -17.88%)
   displ. norm   :     0.5012955 α      lambda       -0.5086655E-03
   maximum displ.:     0.2600119 α      in ANC's #2, #6, #3, ...

........................................................................
.............................. CYCLE   10 ..............................
........................................................................
   1    -83.7055305 -0.837055E+02  0.117E-02    0.98       0.0  T
   2    -83.7055342 -0.373743E-05  0.461E-03    0.98       3.4  T
   3    -83.7055344 -0.169783E-06  0.292E-03    0.98       5.3  T
   4    -83.7055343  0.970696E-07  0.224E-03    0.98       6.9  T
   5    -83.7055345 -0.231571E-06  0.565E-04    0.98      27.3  T
   6    -83.7055345 -0.671891E-08  0.111E-04    0.98     139.5  T
   7    -83.7055345 -0.373987E-09  0.407E-05    0.98     378.7  T
     SCC iter.                  ...        0 min,  0.025 sec
     gradient                   ...        0 min,  0.083 sec
 * total energy  :   -82.9428412 Eh     change       -0.3933733E-03 Eh
   gradient norm :     0.0070740 Eh/α   predicted    -0.3182487E-03 ( -19.10%)
   displ. norm   :     0.4994331 α      lambda       -0.3672959E-03
   maximum displ.:     0.2666366 α      in ANC's #2, #3, #5, ...

........................................................................
.............................. CYCLE   11 ..............................
........................................................................
   1    -83.7050741 -0.837051E+02  0.107E-02    0.99       0.0  T
   2    -83.7050775 -0.333601E-05  0.445E-03    0.99       3.5  T
   3    -83.7050777 -0.208334E-06  0.257E-03    0.99       6.0  T
   4    -83.7050776  0.549649E-07  0.174E-03    0.99       8.9  T
   5    -83.7050777 -0.117859E-06  0.654E-04    0.99      23.6  T
   6    -83.7050778 -0.160440E-07  0.114E-04    0.99     134.9  T
   7    -83.7050778 -0.573365E-09  0.352E-05    0.99     438.9  T
     SCC iter.                  ...        0 min,  0.025 sec
     gradient                   ...        0 min,  0.083 sec
 * total energy  :   -82.9431197 Eh     change       -0.2785566E-03 Eh
   gradient norm :     0.0060224 Eh/α   predicted    -0.2294561E-03 ( -17.63%)
   displ. norm   :     0.4415132 α      lambda       -0.3291606E-03
   maximum displ.:     0.2629993 α      in ANC's #2, #5, #3, ...

........................................................................
.............................. CYCLE   12 ..............................
........................................................................
   1    -83.7099645 -0.837100E+02  0.163E-02    1.00       0.0  T
   2    -83.7099637  0.810572E-06  0.128E-02    0.99       1.2  T
   3    -83.7099702 -0.653313E-05  0.647E-03    1.00       2.4  T
   4    -83.7099713 -0.112185E-05  0.208E-03    0.99       7.4  T
   5    -83.7099714 -0.589896E-07  0.454E-04    0.99      34.0  T
   6    -83.7099714 -0.463176E-08  0.952E-05    0.99     162.1  T
   7    -83.7099714 -0.133170E-09  0.372E-05    0.99     415.3  T
     SCC iter.                  ...        0 min,  0.026 sec
     gradient                   ...        0 min,  0.085 sec
 * total energy  :   -82.9432650 Eh     change       -0.1452496E-03 Eh
   gradient norm :     0.0077644 Eh/α   predicted    -0.1966863E-03 (  35.41%)
   displ. norm   :     0.3393301 α      lambda       -0.2159631E-03
   maximum displ.:     0.1791369 α      in ANC's #2, #5, #6, ...

........................................................................
.............................. CYCLE   13 ..............................
........................................................................
   1    -83.7052279 -0.837052E+02  0.171E-02    0.99       0.0  T
   2    -83.7052227  0.516988E-05  0.225E-02    1.00       1.0  T
   3    -83.7052503 -0.275433E-04  0.525E-03    0.99       2.9  T
   4    -83.7052504 -0.955004E-07  0.293E-03    0.99       5.3  T
   5    -83.7052504 -0.876936E-07  0.772E-04    0.99      20.0  T
   6    -83.7052504 -0.832267E-08  0.108E-04    0.99     143.5  T
   7    -83.7052504 -0.162103E-09  0.339E-05    0.99     454.9  T
     SCC iter.                  ...        0 min,  0.026 sec
     gradient                   ...        0 min,  0.086 sec
 * total energy  :   -82.9433616 Eh     change       -0.9666949E-04 Eh
   gradient norm :     0.0066408 Eh/α   predicted    -0.1204183E-03 (  24.57%)
   displ. norm   :     0.0717592 α      lambda       -0.1082846E-03
   maximum displ.:     0.0363583 α      in ANC's #7, #2, #8, ...

........................................................................
.............................. CYCLE   14 ..............................
........................................................................
   1    -83.7075315 -0.837075E+02  0.213E-02    1.01       0.0  T
   2    -83.7075133  0.181920E-04  0.300E-02    0.99       1.0  T
   3    -83.7075645 -0.512100E-04  0.386E-03    1.00       4.0  T
   4    -83.7075646 -0.889602E-07  0.232E-03    1.00       6.7  T
   5    -83.7075646 -0.511403E-07  0.523E-04    1.00      29.5  T
   6    -83.7075646 -0.775970E-08  0.100E-04    1.00     153.6  T
   7    -83.7075646 -0.369312E-09  0.328E-05    1.00     471.0  T
     SCC iter.                  ...        0 min,  0.027 sec
     gradient                   ...        0 min,  0.084 sec
 * total energy  :   -82.9434056 Eh     change       -0.4399240E-04 Eh
   gradient norm :     0.0049995 Eh/α   predicted    -0.5442448E-04 (  23.71%)
   displ. norm   :     0.0944459 α      lambda       -0.7857679E-04
   maximum displ.:     0.0576603 α      in ANC's #2, #7, #5, ...

........................................................................
.............................. CYCLE   15 ..............................
........................................................................
   1    -83.7083201 -0.837083E+02  0.588E-03    1.00       0.0  T
   2    -83.7083206 -0.434940E-06  0.586E-03    1.00       2.6  T
   3    -83.7083222 -0.160003E-05  0.194E-03    1.00       8.0  T
   4    -83.7083222 -0.281001E-07  0.123E-03    1.00      12.5  T
   5    -83.7083222 -0.198384E-07  0.240E-04    1.00      64.2  T
   6    -83.7083222 -0.137113E-08  0.554E-05    1.00     278.4  T
   7    -83.7083222 -0.786997E-10  0.184E-05    1.00     838.0  T
     SCC iter.                  ...        0 min,  0.026 sec
     gradient                   ...        0 min,  0.084 sec
 * total energy  :   -82.9434608 Eh     change       -0.5514918E-04 Eh
   gradient norm :     0.0026692 Eh/α   predicted    -0.3963943E-04 ( -28.12%)
   displ. norm   :     0.1662365 α      lambda       -0.6004261E-04
   maximum displ.:     0.1012137 α      in ANC's #2, #7, #5, ...

........................................................................
.............................. CYCLE   16 ..............................
........................................................................
   1    -83.7078050 -0.837078E+02  0.454E-03    1.00       0.0  T
   2    -83.7078058 -0.812443E-06  0.341E-03    1.00       4.5  T
   3    -83.7078062 -0.367990E-06  0.150E-03    1.00      10.3  T
   4    -83.7078062 -0.162215E-07  0.138E-03    1.00      11.2  T
   5    -83.7078062 -0.436707E-07  0.170E-04    1.00      90.9  T
   6    -83.7078062 -0.734673E-09  0.481E-05    1.00     320.9  T
     SCC iter.                  ...        0 min,  0.021 sec
     gradient                   ...        0 min,  0.083 sec
 * total energy  :   -82.9435020 Eh     change       -0.4124857E-04 Eh
   gradient norm :     0.0031710 Eh/α   predicted    -0.3085470E-04 ( -25.20%)
   displ. norm   :     0.1192959 α      lambda       -0.3952322E-04
   maximum displ.:     0.0667761 α      in ANC's #2, #7, #5, ...

........................................................................
.............................. CYCLE   17 ..............................
........................................................................
   1    -83.7073730 -0.837074E+02  0.349E-03    1.01       0.0  T
   2    -83.7073730  0.252591E-07  0.356E-03    1.01       4.3  T
   3    -83.7073737 -0.671574E-06  0.102E-03    1.01      15.1  T
   4    -83.7073737 -0.135900E-07  0.547E-04    1.01      28.2  T
   5    -83.7073737 -0.539259E-09  0.812E-05    1.01     190.1  T
   6    -83.7073737 -0.256563E-09  0.241E-05    1.01     640.5  T
     SCC iter.                  ...        0 min,  0.021 sec
     gradient                   ...        0 min,  0.084 sec
 * total energy  :   -82.9435299 Eh     change       -0.2783686E-04 Eh
   gradient norm :     0.0034417 Eh/α   predicted    -0.2004700E-04 ( -27.98%)
   displ. norm   :     0.0953043 α      lambda       -0.3849029E-04
   maximum displ.:     0.0592515 α      in ANC's #3, #4, #8, ...

........................................................................
.............................. CYCLE   18 ..............................
........................................................................
   1    -83.7070462 -0.837070E+02  0.640E-03    1.02       0.0  T
   2    -83.7070452  0.988999E-06  0.815E-03    1.01       1.9  T
   3    -83.7070491 -0.395349E-05  0.950E-04    1.01      16.2  T
   4    -83.7070491 -0.533775E-08  0.550E-04    1.01      28.1  T
   5    -83.7070491 -0.159348E-08  0.166E-04    1.01      92.8  T
   6    -83.7070491 -0.270731E-09  0.262E-05    1.01     589.1  T
     SCC iter.                  ...        0 min,  0.022 sec
     gradient                   ...        0 min,  0.083 sec
 * total energy  :   -82.9435575 Eh     change       -0.2764563E-04 Eh
   gradient norm :     0.0024559 Eh/α   predicted    -0.1942051E-04 ( -29.75%)
   displ. norm   :     0.0916382 α      lambda       -0.3105138E-04
   maximum displ.:     0.0623066 α      in ANC's #3, #4, #7, ...

........................................................................
.............................. CYCLE   19 ..............................
........................................................................
   1    -83.7065651 -0.837066E+02  0.416E-03    1.02       0.0  T
   2    -83.7065650  0.247921E-07  0.421E-03    1.02       3.7  T
   3    -83.7065660 -0.993620E-06  0.108E-03    1.02      14.3  T
   4    -83.7065661 -0.186604E-07  0.582E-04    1.02      26.5  T
   5    -83.7065661 -0.112219E-08  0.125E-04    1.02     123.9  T
   6    -83.7065661 -0.392390E-09  0.288E-05    1.02     536.2  T
     SCC iter.                  ...        0 min,  0.021 sec
     gradient                   ...        0 min,  0.087 sec
 * total energy  :   -82.9435783 Eh     change       -0.2080842E-04 Eh
   gradient norm :     0.0017502 Eh/α   predicted    -0.1565694E-04 ( -24.76%)
   displ. norm   :     0.0951833 α      lambda       -0.1632941E-04
   maximum displ.:     0.0632912 α      in ANC's #3, #7, #4, ...

........................................................................
.............................. CYCLE   20 ..............................
........................................................................
   1    -83.7062648 -0.837063E+02  0.519E-03    1.03       0.0  T
   2    -83.7062646  0.156747E-06  0.457E-03    1.02       3.4  T
   3    -83.7062659 -0.130632E-05  0.166E-03    1.03       9.3  T
   4    -83.7062660 -0.617772E-07  0.720E-04    1.03      21.4  T
   5    -83.7062660 -0.528041E-08  0.111E-04    1.03     138.9  T
   6    -83.7062660 -0.206938E-09  0.276E-05    1.03     559.3  T
     SCC iter.                  ...        0 min,  0.021 sec
     gradient                   ...        0 min,  0.083 sec
 * total energy  :   -82.9435927 Eh     change       -0.1434655E-04 Eh
   gradient norm :     0.0019065 Eh/α   predicted    -0.8202266E-05 ( -42.83%)
   displ. norm   :     0.0600461 α      lambda       -0.1195092E-04
   maximum displ.:     0.0278682 α      in ANC's #3, #7, #1, ...
 * RMSD in coord.:     0.7295308 α      energy gain  -0.2418804E-01 Eh

generating ANC from model Hessian ...
Using Lindh-Hessian (1995)
 Shifting diagonal of input Hessian by   9.797534955740346E-003
 Lowest  eigenvalues of input Hessian
    0.000000    0.000000    0.000000    0.000000    0.000000    0.000000
    0.010000    0.010103    0.010495    0.011078    0.011653    0.012547
    0.013267    0.013984    0.014663    0.015455    0.016268    0.016817
 Highest eigenvalues
    2.030496    2.136420    2.184125    2.349781    2.405960    2.425671
 

........................................................................
.............................. CYCLE   21 ..............................
........................................................................
   1    -83.7063372 -0.837063E+02  0.310E-03    1.03       0.0  T
   2    -83.7063373 -0.167115E-06  0.230E-03    1.03       6.7  T
   3    -83.7063376 -0.263400E-06  0.121E-03    1.03      12.8  T
   4    -83.7063376 -0.385789E-07  0.516E-04    1.03      29.9  T
   5    -83.7063376 -0.119414E-09  0.918E-05    1.03     168.0  T
   6    -83.7063376 -0.258126E-09  0.207E-05    1.03     744.9  T
     SCC iter.                  ...        0 min,  0.021 sec
     gradient                   ...        0 min,  0.083 sec
 * total energy  :   -82.9436072 Eh     change       -0.1453170E-04 Eh
   gradient norm :     0.0022546 Eh/α   predicted     0.0000000E+00 (-100.00%)
   displ. norm   :     0.0157218 α      lambda       -0.5958876E-05
   maximum displ.:     0.0065552 α      in ANC's #9, #1, #25, ...

........................................................................
.............................. CYCLE   22 ..............................
........................................................................
   1    -83.7064193 -0.837064E+02  0.151E-03    1.03       0.0  T
   2    -83.7064193 -0.154267E-07  0.115E-03    1.03      13.4  T
   3    -83.7064194 -0.668985E-07  0.551E-04    1.03      28.0  T
   4    -83.7064194 -0.815470E-08  0.216E-04    1.03      71.3  T
   5    -83.7064194 -0.496811E-10  0.461E-05    1.03     334.7  T
   6    -83.7064194 -0.749765E-10  0.767E-06    1.03    2010.9  T
     SCC iter.                  ...        0 min,  0.021 sec
     gradient                   ...        0 min,  0.083 sec
 * total energy  :   -82.9436155 Eh     change       -0.8321136E-05 Eh
   gradient norm :     0.0014164 Eh/α   predicted    -0.4972432E-05 ( -40.24%)
   displ. norm   :     0.0801411 α      lambda       -0.2227461E-04
   maximum displ.:     0.0330163 α      in ANC's #9, #1, #12, ...

........................................................................
.............................. CYCLE   23 ..............................
........................................................................
   1    -83.7065316 -0.837065E+02  0.679E-03    1.04       0.0  T
   2    -83.7065313  0.288169E-06  0.614E-03    1.03       2.5  T
   3    -83.7065335 -0.223247E-05  0.195E-03    1.04       7.9  T
   4    -83.7065336 -0.776196E-07  0.845E-04    1.04      18.3  T
   5    -83.7065336 -0.239262E-08  0.160E-04    1.04      96.7  T
   6    -83.7065336 -0.906269E-09  0.273E-05    1.04     565.0  T
     SCC iter.                  ...        0 min,  0.022 sec
     gradient                   ...        0 min,  0.060 sec
 * total energy  :   -82.9436307 Eh     change       -0.1520483E-04 Eh
   gradient norm :     0.0024250 Eh/α   predicted    -0.1116933E-04 ( -26.54%)
   displ. norm   :     0.0189033 α      lambda       -0.7418459E-05
   maximum displ.:     0.0089068 α      in ANC's #1, #2, #17, ...

........................................................................
.............................. CYCLE   24 ..............................
........................................................................
   1    -83.7064779 -0.837065E+02  0.153E-03    1.04       0.0  T
   2    -83.7064779  0.282714E-07  0.159E-03    1.04       9.7  T
   3    -83.7064781 -0.153612E-06  0.293E-04    1.04      52.7  T
   4    -83.7064781 -0.137892E-08  0.144E-04    1.04     107.3  T
   5    -83.7064781 -0.139124E-10  0.222E-05    1.04     696.2  T
     SCC iter.                  ...        0 min,  0.014 sec
     gradient                   ...        0 min,  0.046 sec
 * total energy  :   -82.9436384 Eh     change       -0.7707589E-05 Eh
   gradient norm :     0.0021345 Eh/α   predicted    -0.4120818E-05 ( -46.54%)
   displ. norm   :     0.2398126 α      lambda       -0.9447755E-04
   maximum displ.:     0.1140951 α      in ANC's #1, #2, #17, ...

........................................................................
.............................. CYCLE   25 ..............................
........................................................................
   1    -83.7052149 -0.837052E+02  0.189E-02    1.07       0.0  T
   2    -83.7052164 -0.146120E-05  0.166E-02    1.06       1.0  T
   3    -83.7052328 -0.163936E-04  0.457E-03    1.07       3.4  T
   4    -83.7052333 -0.506894E-06  0.204E-03    1.07       7.6  T
   5    -83.7052333 -0.526524E-08  0.331E-04    1.07      46.6  T
   6    -83.7052333 -0.270107E-08  0.998E-05    1.07     154.7  T
   7    -83.7052333 -0.200885E-09  0.339E-05    1.07     455.6  T
     SCC iter.                  ...        0 min,  0.025 sec
     gradient                   ...        0 min,  0.083 sec
 * total energy  :   -82.9437121 Eh     change       -0.7360867E-04 Eh
   gradient norm :     0.0051055 Eh/α   predicted    -0.4995823E-04 ( -32.13%)
   displ. norm   :     0.5475922 α      lambda       -0.1854189E-03
   maximum displ.:     0.2625997 α      in ANC's #1, #2, #50, ...

........................................................................
.............................. CYCLE   26 ..............................
........................................................................
   1    -83.6999060 -0.836999E+02  0.542E-02    1.15       0.0  T
   2    -83.7000192 -0.113242E-03  0.227E-02    1.14       1.0  T
   3    -83.7000384 -0.191987E-04  0.148E-02    1.16       1.0  T
   4    -83.7000471 -0.866594E-05  0.532E-03    1.15       2.9  T
   5    -83.7000471 -0.222357E-07  0.121E-03    1.15      12.8  T
   6    -83.7000471 -0.151910E-07  0.314E-04    1.15      49.2  T
   7    -83.7000471 -0.137746E-08  0.114E-04    1.15     135.5  T
   8    -83.7000471 -0.220055E-09  0.304E-05    1.15     508.3  T
     SCC iter.                  ...        0 min,  0.049 sec
     gradient                   ...        0 min,  0.084 sec
 * total energy  :   -82.9439494 Eh     change       -0.2373165E-03 Eh
   gradient norm :     0.0222131 Eh/α   predicted    -0.1205401E-03 ( -49.21%)
   displ. norm   :     0.4001760 α      lambda       -0.4940332E-03
   maximum displ.:     0.1938687 α      in ANC's #1, #2, #50, ...

........................................................................
.............................. CYCLE   27 ..............................
........................................................................
   1    -83.6967660 -0.836968E+02  0.661E-02    1.20       0.0  T
   2    -83.6969719 -0.205892E-03  0.142E-02    1.21       1.1  T
   3    -83.6969760 -0.411907E-05  0.950E-03    1.22       1.6  T
   4    -83.6969790 -0.295064E-05  0.419E-03    1.22       3.7  T
   5    -83.6969792 -0.159479E-06  0.142E-03    1.22      10.9  T
   6    -83.6969792 -0.190460E-07  0.340E-04    1.22      45.4  T
   7    -83.6969792 -0.178468E-08  0.114E-04    1.22     135.6  T
   8    -83.6969792 -0.203357E-09  0.261E-05    1.22     590.5  T
     SCC iter.                  ...        0 min,  0.030 sec
     gradient                   ...        0 min,  0.084 sec
 * total energy  :   -82.9445434 Eh     change       -0.5940810E-03 Eh
   gradient norm :     0.0406566 Eh/α   predicted    -0.2865814E-03 ( -51.76%)
   displ. norm   :     0.0902692 α      lambda       -0.1046353E-02
   maximum displ.:     0.0357032 α      in ANC's #1, #2, #50, ...

........................................................................
.............................. CYCLE   28 ..............................
........................................................................
   1    -83.7012479 -0.837012E+02  0.254E-02    1.24       0.0  T
   2    -83.7012663 -0.183588E-04  0.119E-02    1.23       1.3  T
   3    -83.7012743 -0.800669E-05  0.578E-03    1.24       2.7  T
   4    -83.7012754 -0.114099E-05  0.206E-03    1.24       7.5  T
   5    -83.7012754 -0.857305E-08  0.606E-04    1.24      25.5  T
   6    -83.7012754 -0.283625E-08  0.188E-04    1.24      81.9  T
   7    -83.7012754 -0.741238E-09  0.443E-05    1.24     348.2  T
     SCC iter.                  ...        0 min,  0.026 sec
     gradient                   ...        0 min,  0.084 sec
 * total energy  :   -82.9455301 Eh     change       -0.9866669E-03 Eh
   gradient norm :     0.0386003 Eh/α   predicted    -0.5274552E-03 ( -46.54%)
   displ. norm   :     0.7254221 α      lambda       -0.1030649E-01
   maximum displ.:     0.3293306 α      in ANC's #50, #45, #1, ...

........................................................................
.............................. CYCLE   29 ..............................
........................................................................
   1    -83.7524886 -0.837525E+02  0.235E-01    1.37       0.0  T
   2    -83.7546842 -0.219564E-02  0.634E-02    1.37       1.0  T
   3    -83.7548309 -0.146701E-03  0.287E-02    1.40       1.0  T
   4    -83.7548445 -0.135930E-04  0.159E-02    1.40       1.0  T
   5    -83.7548463 -0.183621E-05  0.545E-03    1.40       2.8  T
   6    -83.7548467 -0.340303E-06  0.998E-04    1.40      15.5  T
   7    -83.7548467 -0.156615E-07  0.451E-04    1.40      34.2  T
   8    -83.7548467 -0.404295E-08  0.135E-04    1.40     114.7  T
   9    -83.7548467 -0.139977E-09  0.302E-05    1.40     511.1  T
     SCC iter.                  ...        0 min,  0.032 sec
     gradient                   ...        0 min,  0.084 sec
 * total energy  :   -82.9486975 Eh     change       -0.3167379E-02 Eh
   gradient norm :     0.1012504 Eh/α   predicted    -0.7865083E-02 ( 148.32%)
   displ. norm   :     0.3477817 α      lambda       -0.2123126E-01
   maximum displ.:     0.1815690 α      in ANC's #50, #45, #1, ...

........................................................................
.............................. CYCLE   30 ..............................
........................................................................
   1    -83.7317084 -0.837317E+02  0.110E-01    1.41       0.0  T
   2    -83.7322737 -0.565285E-03  0.446E-02    1.38       1.0  T
   3    -83.7322875 -0.138107E-04  0.243E-02    1.37       1.0  T
   4    -83.7322880 -0.488903E-06  0.115E-02    1.38       1.3  T
   5    -83.7322896 -0.163562E-05  0.220E-03    1.37       7.0  T
   6    -83.7322898 -0.174484E-06  0.803E-04    1.37      19.2  T
   7    -83.7322898 -0.489928E-08  0.259E-04    1.37      59.6  T
   8    -83.7322898 -0.759542E-09  0.640E-05    1.37     241.2  T
   9    -83.7322898 -0.551807E-10  0.109E-05    1.37    1412.0  T
     SCC iter.                  ...        0 min,  0.032 sec
     gradient                   ...        0 min,  0.084 sec
 * total energy  :   -82.9523284 Eh     change       -0.3630943E-02 Eh
   gradient norm :     0.0651689 Eh/α   predicted    -0.1189963E-01 ( 227.73%)
   displ. norm   :     0.3032095 α      lambda       -0.6402954E-02
   maximum displ.:     0.1216276 α      in ANC's #1, #2, #16, ...

........................................................................
.............................. CYCLE   31 ..............................
........................................................................
   1    -83.7193123 -0.837193E+02  0.859E-02    1.34       0.0  T
   2    -83.7198088 -0.496495E-03  0.224E-02    1.39       1.0  T
   3    -83.7198257 -0.168578E-04  0.121E-02    1.38       1.3  T
   4    -83.7198282 -0.251173E-05  0.699E-03    1.38       2.2  T
   5    -83.7198284 -0.234364E-06  0.187E-03    1.38       8.2  T
   6    -83.7198285 -0.388665E-07  0.299E-04    1.38      51.6  T
   7    -83.7198285 -0.135917E-08  0.133E-04    1.38     116.4  T
   8    -83.7198285 -0.162458E-09  0.387E-05    1.38     398.7  T
     SCC iter.                  ...        0 min,  0.028 sec
     gradient                   ...        0 min,  0.064 sec
 * total energy  :   -82.9563730 Eh     change       -0.4044550E-02 Eh
   gradient norm :     0.0401122 Eh/α   predicted    -0.3495811E-02 ( -13.57%)
   displ. norm   :     0.5474934 α      lambda       -0.1464577E-01
   maximum displ.:     0.2087388 α      in ANC's #50, #45, #1, ...

........................................................................
.............................. CYCLE   32 ..............................
........................................................................
   1    -83.7584932 -0.837585E+02  0.162E-01    1.42       0.0  T
   2    -83.7589123 -0.419077E-03  0.767E-02    1.44       1.0  T
   3    -83.7589596 -0.473512E-04  0.467E-02    1.44       1.0  T
   4    -83.7589626 -0.295772E-05  0.486E-03    1.44       3.2  T
   5    -83.7589634 -0.850476E-06  0.124E-03    1.44      12.5  T
   6    -83.7589635 -0.723135E-07  0.693E-04    1.44      22.3  T
   7    -83.7589635 -0.118227E-07  0.282E-04    1.44      54.7  T
   8    -83.7589635 -0.507669E-09  0.537E-05    1.44     287.1  T
   9    -83.7589635 -0.478764E-10  0.132E-05    1.44    1173.0  T
     SCC iter.                  ...        0 min,  0.032 sec
     gradient                   ...        0 min,  0.084 sec
 * total energy  :   -82.9367878 Eh     change        0.1958517E-01 Eh
   gradient norm :     0.2963709 Eh/α   predicted    -0.9517846E-02 (-148.60%)
   displ. norm   :     0.2997392 α      lambda       -0.7634466E-01
   maximum displ.:     0.1753234 α      in ANC's #50, #45, #43, ...

........................................................................
.............................. CYCLE   33 ..............................
........................................................................
   1    -83.7328901 -0.837329E+02  0.124E-01    1.42       0.0  T
   2    -83.7330064 -0.116271E-03  0.633E-02    1.42       1.0  T
   3    -83.7330133 -0.688184E-05  0.335E-02    1.42       1.0  T
   4    -83.7330187 -0.543058E-05  0.360E-03    1.42       4.3  T
   5    -83.7330188 -0.104893E-06  0.121E-03    1.42      12.7  T
   6    -83.7330188 -0.146942E-07  0.533E-04    1.42      28.9  T
   7    -83.7330188 -0.772387E-08  0.132E-04    1.42     117.0  T
   8    -83.7330188 -0.285368E-09  0.305E-05    1.42     506.5  T
     SCC iter.                  ...        0 min,  0.028 sec
     gradient                   ...        0 min,  0.084 sec
 * total energy  :   -82.9616246 Eh     change       -0.2483673E-01 Eh
   gradient norm :     0.0353077 Eh/α   predicted    -0.4160235E-01 (  67.50%)
   displ. norm   :     0.1689862 α      lambda       -0.2469717E-02
   maximum displ.:     0.0732447 α      in ANC's #2, #1, #6, ...

........................................................................
.............................. CYCLE   34 ..............................
........................................................................
   1    -83.7301803 -0.837302E+02  0.225E-02    1.43       0.0  T
   2    -83.7301948 -0.144711E-04  0.785E-03    1.44       2.0  T
   3    -83.7301959 -0.109868E-05  0.407E-03    1.44       3.8  T
   4    -83.7301960 -0.111613E-06  0.162E-03    1.44       9.5  T
   5    -83.7301960 -0.211662E-07  0.414E-04    1.44      37.3  T
   6    -83.7301960 -0.485240E-08  0.596E-05    1.44     258.9  T
   7    -83.7301960 -0.764402E-10  0.216E-05    1.44     714.6  T
     SCC iter.                  ...        0 min,  0.024 sec
     gradient                   ...        0 min,  0.084 sec
 * total energy  :   -82.9635847 Eh     change       -0.1960192E-02 Eh
   gradient norm :     0.0275004 Eh/α   predicted    -0.1270115E-02 ( -35.20%)
   displ. norm   :     0.4653063 α      lambda       -0.7623581E-02
   maximum displ.:     0.1267158 α      in ANC's #7, #8, #101, ...

........................................................................
.............................. CYCLE   35 ..............................
........................................................................
   1    -83.7414187 -0.837414E+02  0.725E-02    1.49       0.0  T
   2    -83.7415259 -0.107232E-03  0.274E-02    1.50       1.0  T
   3    -83.7415390 -0.131229E-04  0.160E-02    1.50       1.0  T
   4    -83.7415394 -0.376370E-06  0.322E-03    1.50       4.8  T
   5    -83.7415398 -0.355766E-06  0.117E-03    1.50      13.2  T
   6    -83.7415398 -0.488565E-07  0.279E-04    1.50      55.3  T
   7    -83.7415398 -0.188236E-08  0.798E-05    1.50     193.3  T
   8    -83.7415398 -0.962501E-10  0.213E-05    1.50     723.5  T
     SCC iter.                  ...        0 min,  0.028 sec
     gradient                   ...        0 min,  0.084 sec
 * total energy  :   -82.9682109 Eh     change       -0.4626166E-02 Eh
   gradient norm :     0.0408372 Eh/α   predicted    -0.4636868E-02 (   0.23%)
   displ. norm   :     0.2955973 α      lambda       -0.2984463E-02
   maximum displ.:     0.0849342 α      in ANC's #2, #6, #7, ...

........................................................................
.............................. CYCLE   36 ..............................
........................................................................
   1    -83.7410455 -0.837410E+02  0.205E-02    1.49       0.0  T
   2    -83.7410631 -0.175349E-04  0.105E-02    1.50       1.5  T
   3    -83.7410648 -0.172468E-05  0.532E-03    1.50       2.9  T
   4    -83.7410649 -0.530748E-07  0.238E-03    1.50       6.5  T
   5    -83.7410649 -0.805345E-07  0.364E-04    1.50      42.4  T
   6    -83.7410649 -0.195904E-08  0.964E-05    1.50     160.1  T
   7    -83.7410649 -0.202206E-09  0.279E-05    1.50     553.9  T
     SCC iter.                  ...        0 min,  0.025 sec
     gradient                   ...        0 min,  0.084 sec
 * total energy  :   -82.9704897 Eh     change       -0.2278811E-02 Eh
   gradient norm :     0.0324998 Eh/α   predicted    -0.1622610E-02 ( -28.80%)
   displ. norm   :     0.3685824 α      lambda       -0.2659034E-02
   maximum displ.:     0.1204821 α      in ANC's #8, #6, #7, ...

........................................................................
.............................. CYCLE   37 ..............................
........................................................................
   1    -83.7420496 -0.837420E+02  0.170E-02    1.50       0.0  T
   2    -83.7420626 -0.130474E-04  0.701E-03    1.50       2.2  T
   3    -83.7420632 -0.624007E-06  0.372E-03    1.50       4.1  T
   4    -83.7420633 -0.359097E-07  0.147E-03    1.50      10.5  T
   5    -83.7420633 -0.460098E-08  0.352E-04    1.50      43.8  T
   6    -83.7420633 -0.208549E-08  0.749E-05    1.50     205.9  T
   7    -83.7420633 -0.271257E-09  0.311E-05    1.50     496.0  T
     SCC iter.                  ...        0 min,  0.025 sec
     gradient                   ...        0 min,  0.084 sec
 * total energy  :   -82.9721856 Eh     change       -0.1695864E-02 Eh
   gradient norm :     0.0229956 Eh/α   predicted    -0.1510118E-02 ( -10.95%)
   displ. norm   :     0.2347343 α      lambda       -0.9403969E-03
   maximum displ.:     0.0721610 α      in ANC's #8, #7, #20, ...

........................................................................
.............................. CYCLE   38 ..............................
........................................................................
   1    -83.7448382 -0.837448E+02  0.166E-02    1.51       0.0  T
   2    -83.7448464 -0.824483E-05  0.714E-03    1.50       2.2  T
   3    -83.7448478 -0.136611E-05  0.379E-03    1.51       4.1  T
   4    -83.7448478 -0.467140E-07  0.141E-03    1.51      10.9  T
   5    -83.7448478 -0.135786E-07  0.271E-04    1.51      56.9  T
   6    -83.7448478 -0.238084E-08  0.664E-05    1.51     232.5  T
   7    -83.7448478 -0.763976E-10  0.299E-05    1.51     516.1  T
     SCC iter.                  ...        0 min,  0.025 sec
     gradient                   ...        0 min,  0.084 sec
 * total energy  :   -82.9728055 Eh     change       -0.6199021E-03 Eh
   gradient norm :     0.0157681 Eh/α   predicted    -0.4961116E-03 ( -19.97%)
   displ. norm   :     0.1101658 α      lambda       -0.3840733E-03
   maximum displ.:     0.0324767 α      in ANC's #10, #5, #7, ...

........................................................................
.............................. CYCLE   39 ..............................
........................................................................
   1    -83.7466595 -0.837467E+02  0.264E-02    1.50       0.0  T
   2    -83.7466817 -0.221811E-04  0.106E-02    1.49       1.5  T
   3    -83.7466861 -0.435945E-05  0.361E-03    1.50       4.3  T
   4    -83.7466862 -0.920187E-07  0.180E-03    1.50       8.6  T
   5    -83.7466862 -0.531355E-08  0.540E-04    1.50      28.6  T
   6    -83.7466862 -0.633351E-08  0.830E-05    1.50     185.9  T
   7    -83.7466862 -0.107946E-09  0.384E-05    1.50     401.7  T
     SCC iter.                  ...        0 min,  0.025 sec
     gradient                   ...        0 min,  0.084 sec
 * total energy  :   -82.9730481 Eh     change       -0.2426171E-03 Eh
   gradient norm :     0.0058507 Eh/α   predicted    -0.1943772E-03 ( -19.88%)
   displ. norm   :     0.0641379 α      lambda       -0.8986270E-04
   maximum displ.:     0.0313309 α      in ANC's #2, #9, #3, ...

........................................................................
.............................. CYCLE   40 ..............................
........................................................................
   1    -83.7476181 -0.837476E+02  0.103E-02    1.49       0.0  T
   2    -83.7476217 -0.359063E-05  0.484E-03    1.49       3.2  T
   3    -83.7476225 -0.819437E-06  0.173E-03    1.49       8.9  T
   4    -83.7476225 -0.831217E-08  0.842E-04    1.49      18.3  T
   5    -83.7476225 -0.282877E-08  0.187E-04    1.49      82.5  T
   6    -83.7476225 -0.116283E-08  0.392E-05    1.49     394.1  T
     SCC iter.                  ...        0 min,  0.022 sec
     gradient                   ...        0 min,  0.084 sec
 * total energy  :   -82.9731076 Eh     change       -0.5952517E-04 Eh
   gradient norm :     0.0028260 Eh/α   predicted    -0.4511874E-04 ( -24.20%)
   displ. norm   :     0.0640116 α      lambda       -0.4515176E-04
   maximum displ.:     0.0304621 α      in ANC's #9, #2, #3, ...

........................................................................
.............................. CYCLE   41 ..............................
........................................................................
   1    -83.7476460 -0.837476E+02  0.387E-03    1.49       0.0  T
   2    -83.7476465 -0.457510E-06  0.208E-03    1.49       7.4  T
   3    -83.7476466 -0.107434E-06  0.102E-03    1.49      15.2  T
   4    -83.7476466 -0.869392E-09  0.269E-04    1.49      57.4  T
   5    -83.7476466 -0.118138E-08  0.700E-05    1.49     220.4  T
   6    -83.7476466 -0.205986E-09  0.202E-05    1.49     764.6  T
     SCC iter.                  ...        0 min,  0.022 sec
     gradient                   ...        0 min,  0.084 sec
 * total energy  :   -82.9731400 Eh     change       -0.3236883E-04 Eh
   gradient norm :     0.0030212 Eh/α   predicted    -0.2267056E-04 ( -29.96%)
   displ. norm   :     0.0748984 α      lambda       -0.3729218E-04
   maximum displ.:     0.0361835 α      in ANC's #2, #9, #3, ...

........................................................................
.............................. CYCLE   42 ..............................
........................................................................
   1    -83.7475650 -0.837476E+02  0.277E-03    1.49       0.0  T
   2    -83.7475653 -0.260208E-06  0.142E-03    1.49      10.8  T
   3    -83.7475653 -0.186997E-07  0.807E-04    1.49      19.1  T
   4    -83.7475653  0.225143E-09  0.234E-04    1.49      65.9  T
   5    -83.7475653 -0.124405E-08  0.375E-05    1.49     412.0  T
   6    -83.7475653 -0.407709E-10  0.152E-05    1.49    1017.7  T
     SCC iter.                  ...        0 min,  0.022 sec
     gradient                   ...        0 min,  0.084 sec
 * total energy  :   -82.9731650 Eh     change       -0.2502815E-04 Eh
   gradient norm :     0.0025705 Eh/α   predicted    -0.1875489E-04 ( -25.06%)
   displ. norm   :     0.0535087 α      lambda       -0.1779915E-04
   maximum displ.:     0.0275269 α      in ANC's #2, #9, #3, ...
 * RMSD in coord.:     0.3855304 α      energy gain  -0.2957235E-01 Eh

generating ANC from model Hessian ...
Using Lindh-Hessian (1995)
 Shifting diagonal of input Hessian by   9.805377738288995E-003
 Lowest  eigenvalues of input Hessian
    0.000000    0.000000    0.000000    0.000000    0.000000    0.000000
    0.010000    0.010115    0.010495    0.011131    0.011648    0.012493
    0.013233    0.013667    0.014560    0.015650    0.016387    0.016922
 Highest eigenvalues
    2.031024    2.117927    2.183485    2.331595    2.405658    2.415370
 

........................................................................
.............................. CYCLE   43 ..............................
........................................................................
   1    -83.7473636 -0.837474E+02  0.285E-03    1.49       0.0  T
   2    -83.7473639 -0.277770E-06  0.128E-03    1.49      12.0  T
   3    -83.7473640 -0.501801E-07  0.501E-04    1.49      30.8  T
   4    -83.7473640 -0.475083E-09  0.240E-04    1.49      64.4  T
   5    -83.7473640 -0.414445E-09  0.421E-05    1.49     366.6  T
   6    -83.7473640 -0.431868E-10  0.893E-06    1.49    1728.7  T
     SCC iter.                  ...        0 min,  0.022 sec
     gradient                   ...        0 min,  0.059 sec
 * total energy  :   -82.9731774 Eh     change       -0.1236558E-04 Eh
   gradient norm :     0.0016999 Eh/α   predicted     0.0000000E+00 (-100.00%)
   displ. norm   :     0.0268023 α      lambda       -0.7837678E-05
   maximum displ.:     0.0156979 α      in ANC's #2, #14, #8, ...

........................................................................
.............................. CYCLE   44 ..............................
........................................................................
   1    -83.7474321 -0.837474E+02  0.153E-03    1.50       0.0  T
   2    -83.7474322 -0.886055E-07  0.814E-04    1.50      19.0  T
   3    -83.7474322 -0.723169E-08  0.476E-04    1.50      32.4  T
   4    -83.7474322 -0.161506E-09  0.118E-04    1.50     130.8  T
   5    -83.7474322 -0.916316E-10  0.199E-05    1.50     777.0  T
     SCC iter.                  ...        0 min,  0.013 sec
     gradient                   ...        0 min,  0.045 sec
 * total energy  :   -82.9731866 Eh     change       -0.9193643E-05 Eh
   gradient norm :     0.0006271 Eh/α   predicted    -0.4419291E-05 ( -51.93%)
   displ. norm   :     0.0548359 α      lambda       -0.9656142E-05
   maximum displ.:     0.0341284 α      in ANC's #2, #14, #3, ...

........................................................................
.............................. CYCLE   45 ..............................
........................................................................
   1    -83.7473898 -0.837474E+02  0.173E-03    1.50       0.0  T
   2    -83.7473899 -0.860686E-07  0.971E-04    1.50      15.9  T
   3    -83.7473899 -0.148704E-07  0.524E-04    1.50      29.5  T
   4    -83.7473899 -0.116771E-09  0.116E-04    1.50     133.5  T
   5    -83.7473899 -0.279854E-09  0.327E-05    1.50     471.3  T
     SCC iter.                  ...        0 min,  0.013 sec
     gradient                   ...        0 min,  0.044 sec
 * total energy  :   -82.9731967 Eh     change       -0.1006523E-04 Eh
   gradient norm :     0.0012235 Eh/α   predicted    -0.4844671E-05 ( -51.87%)
   displ. norm   :     0.0889270 α      lambda       -0.1147112E-04
   maximum displ.:     0.0539321 α      in ANC's #2, #14, #5, ...

........................................................................
.............................. CYCLE   46 ..............................
........................................................................
   1    -83.7473246 -0.837473E+02  0.152E-03    1.50       0.0  T
   2    -83.7473246 -0.585569E-07  0.821E-04    1.50      18.8  T
   3    -83.7473246 -0.117473E-07  0.434E-04    1.50      35.5  T
   4    -83.7473246 -0.191221E-09  0.109E-04    1.50     141.1  T
   5    -83.7473246 -0.257842E-09  0.212E-05    1.50     728.9  T
     SCC iter.                  ...        0 min,  0.013 sec
     gradient                   ...        0 min,  0.045 sec
 * total energy  :   -82.9732082 Eh     change       -0.1151020E-04 Eh
   gradient norm :     0.0016584 Eh/α   predicted    -0.5760084E-05 ( -49.96%)
   displ. norm   :     0.0966276 α      lambda       -0.1009135E-04
   maximum displ.:     0.0588886 α      in ANC's #2, #14, #5, ...

........................................................................
.............................. CYCLE   47 ..............................
........................................................................
   1    -83.7473958 -0.837474E+02  0.115E-03    1.50       0.0  T
   2    -83.7473959 -0.579072E-07  0.488E-04    1.50      31.6  T
   3    -83.7473959 -0.388064E-08  0.215E-04    1.50      71.7  T
   4    -83.7473959 -0.589466E-10  0.112E-04    1.50     137.6  T
   5    -83.7473959 -0.175135E-09  0.220E-05    1.50     700.8  T
     SCC iter.                  ...        0 min,  0.013 sec
     gradient                   ...        0 min,  0.044 sec
 * total energy  :   -82.9732190 Eh     change       -0.1084563E-04 Eh
   gradient norm :     0.0012938 Eh/α   predicted    -0.5070552E-05 ( -53.25%)
   displ. norm   :     0.0828251 α      lambda       -0.8055334E-05
   maximum displ.:     0.0505634 α      in ANC's #2, #5, #7, ...

........................................................................
.............................. CYCLE   48 ..............................
........................................................................
   1    -83.7475066 -0.837475E+02  0.162E-03    1.50       0.0  T
   2    -83.7475068 -0.116979E-06  0.868E-04    1.50      17.8  T
   3    -83.7475068 -0.162944E-07  0.395E-04    1.50      39.1  T
   4    -83.7475068 -0.158238E-09  0.199E-04    1.50      77.6  T
   5    -83.7475068 -0.331553E-09  0.245E-05    1.50     630.4  T
     SCC iter.                  ...        0 min,  0.013 sec
     gradient                   ...        0 min,  0.044 sec
 * total energy  :   -82.9732280 Eh     change       -0.8964112E-05 Eh
   gradient norm :     0.0006194 Eh/α   predicted    -0.4040344E-05 ( -54.93%)
   displ. norm   :     0.0859665 α      lambda       -0.7584573E-05
   maximum displ.:     0.0506905 α      in ANC's #2, #5, #7, ...

........................................................................
.............................. CYCLE   49 ..............................
........................................................................
   1    -83.7475858 -0.837476E+02  0.176E-03    1.50       0.0  T
   2    -83.7475859 -0.125444E-06  0.108E-03    1.50      14.3  T
   3    -83.7475859 -0.278602E-07  0.502E-04    1.50      30.7  T
   4    -83.7475859 -0.340791E-09  0.182E-04    1.50      84.9  T
   5    -83.7475859 -0.192557E-09  0.274E-05    1.50     563.2  T
     SCC iter.                  ...        0 min,  0.013 sec
     gradient                   ...        0 min,  0.045 sec
 * total energy  :   -82.9732361 Eh     change       -0.8170956E-05 Eh
   gradient norm :     0.0008349 Eh/α   predicted    -0.3806512E-05 ( -53.41%)
   displ. norm   :     0.0850525 α      lambda       -0.5689773E-05
   maximum displ.:     0.0490459 α      in ANC's #2, #5, #7, ...

........................................................................
.............................. CYCLE   50 ..............................
........................................................................
   1    -83.7475653 -0.837476E+02  0.119E-03    1.50       0.0  T
   2    -83.7475653 -0.431500E-07  0.640E-04    1.50      24.1  T
   3    -83.7475653 -0.705315E-08  0.326E-04    1.50      47.3  T
   4    -83.7475653 -0.851259E-09  0.122E-04    1.50     126.8  T
   5    -83.7475653 -0.676721E-10  0.217E-05    1.50     709.5  T
     SCC iter.                  ...        0 min,  0.013 sec
     gradient                   ...        0 min,  0.044 sec
 * total energy  :   -82.9732422 Eh     change       -0.6040097E-05 Eh
   gradient norm :     0.0010235 Eh/α   predicted    -0.2855330E-05 ( -52.73%)
   displ. norm   :     0.0725896 α      lambda       -0.4421345E-05
   maximum displ.:     0.0405021 α      in ANC's #2, #5, #8, ...

........................................................................
.............................. CYCLE   51 ..............................
........................................................................
   1    -83.7476492 -0.837476E+02  0.120E-03    1.50       0.0  T
   2    -83.7476493 -0.691127E-07  0.529E-04    1.50      29.2  T
   3    -83.7476493 -0.780608E-08  0.246E-04    1.50      62.6  T
   4    -83.7476493 -0.667654E-09  0.125E-04    1.50     123.9  T
   5    -83.7476493 -0.640341E-10  0.279E-05    1.50     552.8  T
     SCC iter.                  ...        0 min,  0.013 sec
     gradient                   ...        0 min,  0.044 sec
 * total energy  :   -82.9732466 Eh     change       -0.4425581E-05 Eh
   gradient norm :     0.0007280 Eh/α   predicted    -0.2216802E-05 ( -49.91%)
   displ. norm   :     0.0535460 α      lambda       -0.2790654E-05
   maximum displ.:     0.0299066 α      in ANC's #2, #8, #5, ...

   *** GEOMETRY OPTIMIZATION CONVERGED AFTER 51 ITERATIONS ***

------------------------------------------------------------------------
 total energy gain   :        -0.0538420 Eh      -33.7863 kcal/mol
 total RMSD          :         0.8424048 a0        0.4458 Å
 total power (kW/mol):        -2.7718055 (step)  -20.0280 (real)
------------------------------------------------------------------------

 ANCopt (total)                0 d,  0 h,  0 min,  7.058 sec
 optimizer setup                ...        0 min,  0.001 sec (  0.012%)
 model hessian                  ...        0 min,  0.108 sec (  1.536%)
 ANC generation                 ...        0 min,  0.007 sec (  0.099%)
 coordinate transformation      ...        0 min,  0.002 sec (  0.025%)
 single point calculation       ...        0 min,  6.910 sec ( 97.896%)
 optimization log               ...        0 min,  0.014 sec (  0.198%)
 hessian update                 ...        0 min,  0.001 sec (  0.021%)
 rational function              ...        0 min,  0.011 sec (  0.156%)

================
 final structure:
================
42
 xtb: 6.5.1 (579679a)
C           -6.53144575018247        0.18484614422520       -0.19276241847259
O           -5.17720276298465        0.60643440393236        0.01150862340939
C           -4.25538613257233       -0.33781840744579        0.04877860676183
O           -4.47953042623491       -1.51575111127139       -0.08265452849162
C           -2.85733419764949        0.20484840760697        0.27264205660926
C           -2.56552663834501        1.63763268417523        0.49415339187989
O           -3.37142276664993        2.53167351450115        0.63977590310947
C           -1.10093351179911        1.93802848879911        0.51086458280287
O           -0.78198609190747        3.22893131481616        0.56135034553309
N           -0.19017042047798        1.04829894719702        0.47587532717338
C           -0.54707744970803       -0.34335760536343        0.44905424304172
C           -0.18514314142800       -0.92488390993523        1.82937729874379
C            0.27795706173706       -1.01328646670826       -0.69754960295735
C            0.11376092012786       -2.53325936820870       -0.67502564016548
C           -0.16984351067915       -0.43555933475717       -2.04510423480369
N            1.66653443941754       -0.63172426270113       -0.44521152945537
C            2.71356164092379       -1.10270609581480       -1.15086924010386
O            2.66594992145801       -1.97897812719145       -1.99851896076707
C            3.99264490953925       -0.45058039115368       -0.76522794479790
N            5.17674841132510       -0.68311069955703       -1.23985580801504
N            6.03498966398934        0.14709831549603       -0.58226021172951
C            5.32193614476889        0.83605728499033        0.25305087176156
C            5.78515049307484        1.87312292589415        1.20034832049604
O            4.02116609910914        0.50714425410347        0.18798699734875
N           -1.92237265188154       -0.66742428891616        0.23567119063039
H           -6.61482393009809       -0.35778632218685       -1.13671661595576
H           -7.13528687833461        1.08907510089347       -0.21787108558417
H           -6.84645733447647       -0.46329514482033        0.62775266714754
H           -1.59034603860226        3.76736537307943        0.62085102372660
H           -0.65478454585903       -0.31490398509699        2.59793215390583
H            0.89396177555155       -0.90137711866444        1.96157876912558
H           -0.54680340331759       -1.94658438899645        1.91383318599944
H           -0.94386015510444       -2.77914042665921       -0.59070921945842
H            0.50280053638076       -2.96567393726576       -1.59532330867982
H            0.65085672424558       -2.96745918213756        0.16610453925577
H            0.44074894893710       -0.85483233586685       -2.84369826644554
H           -1.21373897095186       -0.68788775535570       -2.22462183833235
H           -0.05919509583235        0.64749899591505       -2.04502465141546
H            1.79803614911817        0.20749252038282        0.10397960118819
H            6.86561459634966        1.97488242387729        1.13241993435554
H            5.50497951223477        1.59956842133878        2.21731468926986
H            5.31326985679421        2.82737914485342        0.96670878235545
 
 Bond Distances (Angstroems)
 ---------------------------
C1-O2=1.4330         C1-H26=1.0920        C1-H27=1.0876        C1-H28=1.0920        O2-C1=1.4330         O2-C3=1.3201         
C3-O2=1.3201         C3-O4=1.2063         C3-C5=1.5163         O4-C3=1.2063         C5-C3=1.5163         C5-C6=1.4789         
C5-N25=1.2792        C6-C5=1.4789         C6-O7=1.2124         C6-C8=1.4952         O7-C6=1.2124         C8-C6=1.4952         
C8-O9=1.3307         C8-N10=1.2737        O9-C8=1.3307         O9-H29=0.9731        N10-C8=1.2737        N10-C11=1.4369       
C11-N10=1.4369       C11-C12=1.5409       C11-C13=1.5634       C11-N25=1.4290       C12-C11=1.5409       C12-H30=1.0878       
C12-H31=1.0874       C12-H32=1.0871       C13-C11=1.5634       C13-C14=1.5290       C13-C15=1.5330       C13-N16=1.4620       
C14-C13=1.5290       C14-H33=1.0891       C14-H34=1.0887       C14-H35=1.0883       C15-C13=1.5330       C15-H36=1.0892       
C15-H37=1.0889       C15-H38=1.0887       N16-C13=1.4620       N16-C17=1.3476       N16-H39=1.0115       C17-N16=1.3476       
C17-O18=1.2201       C17-C19=1.4866       O18-C17=1.2201       C19-C17=1.4866       C19-N20=1.2967       C19-O24=1.3515       
N20-C19=1.2967       N20-N21=1.3632       N21-N20=1.3632       N21-C22=1.2965       C22-N21=1.2965       C22-C23=1.4790       
C22-O24=1.3433       C23-C22=1.4790       C23-H40=1.0874       C23-H41=1.0897       C23-H42=1.0899       O24-C19=1.3515       
O24-C22=1.3433       N25-C5=1.2792        N25-C11=1.4290       H26-C1=1.0920        H27-C1=1.0876        H28-C1=1.0920        
H29-O9=0.9731        H30-C12=1.0878       H31-C12=1.0874       H32-C12=1.0871       H33-C14=1.0891       H34-C14=1.0887       
H35-C14=1.0883       H36-C15=1.0892       H37-C15=1.0889       H38-C15=1.0887       H39-N16=1.0115       H40-C23=1.0874       
H41-C23=1.0897       H42-C23=1.0899       
 C  H  Rav=1.0889 sigma=0.0015  Rmin=1.0871  Rmax=1.0920    15
 C  C  Rav=1.5136 sigma=0.0285  Rmin=1.4789  Rmax=1.5634     9
 N  H  Rav=1.0115 sigma=0.0000  Rmin=1.0115  Rmax=1.0115     1
 N  C  Rav=1.3527 sigma=0.0732  Rmin=1.2737  Rmax=1.4620     8
 N  N  Rav=1.3632 sigma=0.0000  Rmin=1.3632  Rmax=1.3632     1
 O  H  Rav=0.9731 sigma=0.0000  Rmin=0.9731  Rmax=0.9731     1
 O  C  Rav=1.3022 sigma=0.0761  Rmin=1.2063  Rmax=1.4330     8
 
 selected bond angles (degree)
 --------------------
H26-C1-O2=109.97               H27-C1-O2=106.46               H27-C1-H26=110.54              H28-C1-O2=109.88               
H28-C1-H26=109.42              H28-C1-H27=110.53              C3-O2-C1=116.97                O4-C3-O2=124.45                
C5-C3-O2=113.08                C5-C3-O4=122.47                C6-C5-C3=123.42                N25-C5-C3=115.19               
N25-C5-C6=121.38               O7-C6-C5=126.96                C8-C6-C5=112.93                C8-C6-O7=120.11                
O9-C8-C6=115.47                N10-C8-C6=124.04               N10-C8-O9=120.48               H29-O9-C8=109.88               
C11-N10-C8=119.96              
 
 selected dihedral angles (degree)
 ---------------------------------
C3-O2-C1-H26=301.10           C3-O2-C1-H27=181.32           C3-O2-C1-H28= 61.61           O4-C3-O2-C1=  0.34            
C5-C3-O2-C1=180.17            C6-C5-C3-O2=  2.89            C6-C5-C3-O4=182.72            N25-C5-C3-O2=184.02           
N25-C5-C3-O4=  3.84           O7-C6-C5-C3=  6.71            O7-C6-C5-N25=185.51           C8-C6-C5-C3=187.50            
C8-C6-C5-N25=  6.30           O9-C8-C6-C5=173.02            O9-C8-C6-O7=353.75            N10-C8-C6-C5=353.25           
N10-C8-C6-O7=173.98           H29-O9-C8-C6=  2.62           H29-O9-C8-N10=182.40          C11-N10-C8-C6=358.49          
C11-N10-C8-O9=178.73          
           -------------------------------------------------
          |                Final Singlepoint                |
           -------------------------------------------------

          ...................................................
          :                      SETUP                      :
          :.................................................:
          :  # basis functions                 134          :
          :  # atomic orbitals                 134          :
          :  # shells                           84          :
          :  # electrons                       134          :
          :  # halogen bonds                     0          :
          :  max. iterations                   250          :
          :  Hamiltonian                  GFN1-xTB          :
          :  restarted?                      false          :
          :  GBSA solvation                   true          :
          :  PC potential                    false          :
          :  electronic temp.          300.0000000     K    :
          :  accuracy                    1.0000000          :
          :  -> integral cutoff          0.2500000E+02      :
          :  -> integral neglect         0.1000000E-07      :
          :  -> SCF convergence          0.1000000E-05 Eh   :
          :  -> wf. convergence          0.2000000E-04 e    :
          :  Broyden damping             0.4000000          :
          ...................................................

 iter      E             dE          RMSdq      gap      omega  full diag
   1    -83.7476493 -0.837476E+02  0.753E-06    1.50       0.0  T
   2    -83.7476493 -0.100897E-11  0.354E-06    1.50    4359.0  T
   3    -83.7476493 -0.710543E-13  0.199E-06    1.50    7742.9  T

   *** convergence criteria satisfied after 3 iterations ***

         #    Occupation            Energy/Eh            Energy/eV
      -------------------------------------------------------------
         1        2.0000           -0.8660778             -23.5672
       ...           ...                  ...                  ...
        61        2.0000           -0.4804564             -13.0739
        62        2.0000           -0.4692356             -12.7686
        63        2.0000           -0.4637340             -12.6188
        64        2.0000           -0.4595543             -12.5051
        65        2.0000           -0.4521736             -12.3043
        66        2.0000           -0.4463383             -12.1455
        67        2.0000           -0.4259297             -11.5901 (HOMO)
        68                         -0.3707761             -10.0893 (LUMO)
        69                         -0.3196256              -8.6975
        70                         -0.3107226              -8.4552
        71                         -0.2575627              -7.0086
        72                         -0.2468813              -6.7180
       ...                                ...                  ...
       134                          0.7446037              20.2617
      -------------------------------------------------------------
                  HL-Gap            0.0551536 Eh            1.5008 eV
             Fermi-level           -0.3983529 Eh          -10.8397 eV

 SCC (total)                   0 d,  0 h,  0 min,  0.075 sec
 SCC setup                      ...        0 min,  0.001 sec (  1.737%)
 Dispersion                     ...        0 min,  0.000 sec (  0.294%)
 classical contributions        ...        0 min,  0.000 sec (  0.114%)
 integral evaluation            ...        0 min,  0.020 sec ( 26.470%)
 iterations                     ...        0 min,  0.008 sec ( 11.116%)
 molecular gradient             ...        0 min,  0.045 sec ( 59.550%)
 printout                       ...        0 min,  0.000 sec (  0.661%)

         :::::::::::::::::::::::::::::::::::::::::::::::::::::
         ::                     SUMMARY                     ::
         :::::::::::::::::::::::::::::::::::::::::::::::::::::
         :: total energy             -82.973246607116 Eh    ::
         :: total w/o Gsasa/hb       -82.949939507646 Eh    ::
         :: gradient norm              0.000730712549 Eh/a0 ::
         :: HOMO-LUMO gap              1.500806931004 eV    ::
         ::.................................................::
         :: SCC energy               -83.747649291522 Eh    ::
         :: -> electrostatic           0.338654648274 Eh    ::
         :: -> Gsolv                  -0.052546505606 Eh    ::
         ::    -> Gelec               -0.029239406135 Eh    ::
         ::    -> Gsasa               -0.024155298449 Eh    ::
         ::    -> Ghb                 -0.006776080026 Eh    ::
         ::    -> Gshift               0.007624279005 Eh    ::
         :: repulsion energy           0.801394426566 Eh    ::
         :: dispersion energy         -0.026991742160 Eh    ::
         :: halogen bond corr.         0.000000000000 Eh    ::
         :: add. restraining           0.000000000000 Eh    ::
         :: total charge              -0.000000000000 e     ::
         :::::::::::::::::::::::::::::::::::::::::::::::::::::

           -------------------------------------------------
          |                Property Printout                |
           -------------------------------------------------

    * Orbital Energies and Occupations

         #    Occupation            Energy/Eh            Energy/eV
      -------------------------------------------------------------
         1        2.0000           -0.8660778             -23.5672
       ...           ...                  ...                  ...
        55        2.0000           -0.5054259             -13.7533
        56        2.0000           -0.5025711             -13.6757
        57        2.0000           -0.5004358             -13.6176
        58        2.0000           -0.4973998             -13.5349
        59        2.0000           -0.4891574             -13.3107
        60        2.0000           -0.4880572             -13.2807
        61        2.0000           -0.4804564             -13.0739
        62        2.0000           -0.4692356             -12.7686
        63        2.0000           -0.4637340             -12.6188
        64        2.0000           -0.4595543             -12.5051
        65        2.0000           -0.4521736             -12.3043
        66        2.0000           -0.4463383             -12.1455
        67        2.0000           -0.4259297             -11.5901 (HOMO)
        68                         -0.3707761             -10.0893 (LUMO)
        69                         -0.3196256              -8.6975
        70                         -0.3107226              -8.4552
        71                         -0.2575627              -7.0086
        72                         -0.2468813              -6.7180
        73                         -0.1990380              -5.4161
        74                         -0.1880984              -5.1184
        75                         -0.1435877              -3.9072
        76                         -0.1391167              -3.7856
        77                         -0.1348222              -3.6687
        78                         -0.1217892              -3.3141
       ...                                ...                  ...
       134                          0.7446037              20.2617
      -------------------------------------------------------------
                  HL-Gap            0.0551536 Eh            1.5008 eV
             Fermi-level           -0.3983529 Eh          -10.8397 eV

  Mulliken/CM5 charges         n(s)   n(p)   n(d)
     1C     0.16128  0.04023   0.983  2.856  0.000
     2O    -0.39599 -0.48039   1.681  4.715  0.000
     3C     0.58367  0.65235   0.966  2.450  0.000
     4O    -0.54482 -0.58896   1.722  4.822  0.000
     5C     0.12363  0.21761   1.072  2.804  0.000
     6C     0.35320  0.39990   1.055  2.592  0.000
     7O    -0.49287 -0.54195   1.732  4.761  0.000
     8C     0.39804  0.51041   0.990  2.612  0.000
     9O    -0.50545 -0.69320   1.691  4.814  0.000
    10N    -0.38362 -0.57727   1.542  3.842  0.000
    11C     0.25203  0.36133   1.044  2.704  0.000
    12C    -0.08468 -0.21786   1.024  3.061  0.000
    13C     0.16634  0.20709   1.073  2.761  0.000
    14C    -0.10550 -0.24539   1.018  3.088  0.000
    15C    -0.10696 -0.24462   1.019  3.088  0.000
    16N    -0.33881 -0.69459   1.434  3.905  0.000
    17C     0.46853  0.57740   0.976  2.556  0.000
    18O    -0.57889 -0.62298   1.727  4.852  0.000
    19C     0.33026  0.45603   1.009  2.660  0.000
    20N    -0.22382 -0.32768   1.566  3.657  0.000
    21N    -0.26919 -0.37694   1.564  3.705  0.000
    22C     0.39113  0.49982   1.007  2.602  0.000
    23C    -0.11149 -0.24888   1.012  3.100  0.000
    24O    -0.35822 -0.41515   1.697  4.661  0.000
    25N    -0.27745 -0.47235   1.558  3.720  0.000
    26H     0.05775  0.11948   0.942  0.000  0.000
    27H     0.06145  0.12187   0.939  0.000  0.000
    28H     0.05800  0.11949   0.942  0.000  0.000
    29H     0.41586  0.59597   0.584  0.000  0.000
    30H     0.05968  0.11905   0.940  0.000  0.000
    31H     0.05902  0.11968   0.941  0.000  0.000
    32H     0.05892  0.11729   0.941  0.000  0.000
    33H     0.04431  0.10347   0.956  0.000  0.000
    34H     0.06008  0.11983   0.940  0.000  0.000
    35H     0.04513  0.10300   0.955  0.000  0.000
    36H     0.05732  0.11593   0.943  0.000  0.000
    37H     0.04508  0.10366   0.955  0.000  0.000
    38H     0.04445  0.10553   0.956  0.000  0.000
    39H     0.25473  0.46910   0.745  0.000  0.000
    40H     0.06958  0.12537   0.930  0.000  0.000
    41H     0.07902  0.13360   0.921  0.000  0.000
    42H     0.07928  0.13375   0.921  0.000  0.000

Wiberg/Mayer (AO) data.
largest (>0.10) Wiberg bond orders for each atom

 ---------------------------------------------------------------------------
     #   Z sym  total        # sym  WBO       # sym  WBO       # sym  WBO
 ---------------------------------------------------------------------------
     1   6 C    3.862 --    27 H    0.985    26 H    0.979    28 H    0.979
                             2 O    0.887
     2   8 O    2.227 --     3 C    1.147     1 C    0.887     4 O    0.145
     3   6 C    3.853 --     4 O    1.678     2 O    1.147     5 C    0.951
     4   8 O    1.941 --     3 C    1.678     2 O    0.145
     5   6 C    3.956 --    25 N    1.758     6 C    1.021     3 C    0.951
     6   6 C    3.881 --     7 O    1.731     5 C    1.021     8 C    0.974
     7   8 O    1.997 --     6 C    1.731
     8   6 C    3.904 --    10 N    1.689     9 O    1.113     6 C    0.974
     9   8 O    2.092 --     8 C    1.113    29 H    0.805    10 N    0.120
    10   7 N    3.048 --     8 C    1.689    11 C    0.991     9 O    0.120
    11   6 C    3.932 --    25 N    1.001    10 N    0.991    12 C    0.931
                            13 C    0.911
    12   6 C    3.983 --    30 H    0.983    32 H    0.983    31 H    0.980
                            11 C    0.931
    13   6 C    3.932 --    14 C    1.000    15 C    0.990    16 N    0.932
                            11 C    0.911
    14   6 C    3.989 --    13 C    1.000    35 H    0.984    33 H    0.983
                            34 H    0.977
    15   6 C    3.990 --    13 C    0.990    37 H    0.984    38 H    0.984
                            36 H    0.982
    16   7 N    3.353 --    17 C    1.259    13 C    0.932    39 H    0.885
                            18 O    0.176
    17   6 C    3.917 --    18 O    1.584    16 N    1.259    19 C    0.990
    18   8 O    1.899 --    17 C    1.584    16 N    0.176
    19   6 C    3.871 --    20 N    1.624    24 O    1.047    17 C    0.990
    20   7 N    2.999 --    19 C    1.624    21 N    1.197
    21   7 N    2.981 --    22 C    1.612    20 N    1.197
    22   6 C    3.869 --    21 N    1.612    24 O    1.072    23 C    1.031
    23   6 C    3.986 --    22 C    1.031    40 H    0.982    41 H    0.964
                            42 H    0.962
    24   8 O    2.315 --    22 C    1.072    19 C    1.047
    25   7 N    3.040 --     5 C    1.758    11 C    1.001
    26   1 H    1.005 --     1 C    0.979
    27   1 H    1.009 --     1 C    0.985
    28   1 H    1.005 --     1 C    0.979
    29   1 H    0.840 --     9 O    0.805
    30   1 H    1.001 --    12 C    0.983
    31   1 H    1.002 --    12 C    0.980
    32   1 H    1.002 --    12 C    0.983
    33   1 H    1.010 --    14 C    0.983
    34   1 H    1.012 --    14 C    0.977
    35   1 H    1.002 --    14 C    0.984
    36   1 H    1.005 --    15 C    0.982
    37   1 H    1.003 --    15 C    0.984
    38   1 H    1.005 --    15 C    0.984
    39   1 H    0.958 --    16 N    0.885
    40   1 H    0.998 --    23 C    0.982
    41   1 H    0.997 --    23 C    0.964
    42   1 H    0.997 --    23 C    0.962
 ---------------------------------------------------------------------------

Topologies differ in total number of bonds
Writing topology from bond orders to xtbtopo.mol

 dipole moment from electron density (au)
     X       Y       Z   
  -1.8656   2.8475   2.6115  total (Debye):   10.906

           -------------------------------------------------
          |                Geometry Summary                 |
           -------------------------------------------------

      molecular mass/u    :      351.3152409
   center of mass at/Å    :        0.0941379       0.1004720      -0.1042836
  moments of inertia/u·Å² :        0.1005346E+04   0.4698048E+04   0.5337658E+04
rotational constants/cm⁻¹ :        0.1676799E-01   0.3588220E-02   0.3158245E-02

 * 36 selected distances

     #   Z          #   Z                                           value/Å
     1   6 C        2   8 O                                       1.4329821
     2   8 O        3   6 C                                       1.3201321
     3   6 C        4   8 O                                       1.2062508
     6   6 C        7   8 O                                       1.2124289
     8   6 C        9   8 O                                       1.3306790
     8   6 C       10   7 N                                       1.2737082
    11   6 C       12   6 C                                       1.5409288 (max)
    13   6 C       14   6 C                                       1.5289819
    13   6 C       15   6 C                                       1.5330355
    13   6 C       16   7 N                                       1.4619890
    16   7 N       17   6 C                                       1.3476064
    17   6 C       18   8 O                                       1.2200942
    19   6 C       20   7 N                                       1.2967048
    21   7 N       22   6 C                                       1.2964778
    22   6 C       23   6 C                                       1.4790015
    19   6 C       24   8 O                                       1.3515432
    22   6 C       24   8 O                                       1.3432871
     5   6 C       25   7 N                                       1.2792107
    11   6 C       25   7 N                                       1.4289817
     1   6 C       26   1 H                                       1.0919944
     1   6 C       27   1 H                                       1.0876051
     1   6 C       28   1 H                                       1.0920461
     9   8 O       29   1 H                                       0.9730866 (min)
    12   6 C       30   1 H                                       1.0878030
    12   6 C       31   1 H                                       1.0874270
    12   6 C       32   1 H                                       1.0871076
    14   6 C       33   1 H                                       1.0890956
    14   6 C       34   1 H                                       1.0887067
    14   6 C       35   1 H                                       1.0883481
    15   6 C       36   1 H                                       1.0892041
    15   6 C       37   1 H                                       1.0888591
    15   6 C       38   1 H                                       1.0886958
    16   7 N       39   1 H                                       1.0115279
    23   6 C       40   1 H                                       1.0873694
    23   6 C       41   1 H                                       1.0897471
    23   6 C       42   1 H                                       1.0898917

 * 6 distinct bonds (by element types)

   Z      Z             #   av. dist./Å        max./Å        min./Å
   1 H    6 C          15     1.0889267     1.0920461     1.0871076
   6 C    6 C           4     1.5204869     1.5409288     1.4790015
   1 H    7 N           1     1.0115279     1.0115279     1.0115279
   6 C    7 N           7     1.3406684     1.4619890     1.2737082
   1 H    8 O           1     0.9730866     0.9730866     0.9730866
   6 C    8 O           8     1.3021747     1.4329821     1.2062508


optimized geometry written to: xtbopt.xyz


           -------------------------------------------------
          | TOTAL ENERGY              -82.973246607116 Eh   |
          | GRADIENT NORM               0.000730712549 Eh/α |
          | HOMO-LUMO GAP               1.500806931004 eV   |
           -------------------------------------------------

------------------------------------------------------------------------
 * finished run on 2023/06/20 at 18:18:18.184     
------------------------------------------------------------------------
 total:
 * wall-time:     0 d,  0 h,  0 min,  7.448 sec
 *  cpu-time:     0 d,  0 h,  0 min,  7.305 sec
 * ratio c/w:     0.981 speedup
 SCF:
 * wall-time:     0 d,  0 h,  0 min,  0.209 sec
 *  cpu-time:     0 d,  0 h,  0 min,  0.170 sec
 * ratio c/w:     0.814 speedup
 ANC optimizer:
 * wall-time:     0 d,  0 h,  0 min,  7.153 sec
 *  cpu-time:     0 d,  0 h,  0 min,  7.099 sec
 * ratio c/w:     0.993 speedup

