16
 energy: -34.127670349984 gnorm: 0.000477053739 xtb: 6.5.1 (579679a)
C            3.45720472846894       -0.50852680592738        0.62639165752640
O            2.39902500326569        0.43425702180689        0.67062157455521
C            1.34946477112617        0.14908868618066       -0.20704265034903
Cl           1.64071255787525        0.81669408078080       -1.86893819910933
C            0.05361895147182        0.26118561964140        0.27981770632467
N           -0.34872160453854        0.07268883447002        1.54468612741170
N           -1.73011762883102        0.00687847520546        1.50189156924225
C           -2.08867469216935        0.14703918876373        0.27634059724435
C           -3.46968770717599        0.14185959688668       -0.27434601458446
O           -1.02796292131674        0.31163118717742       -0.57171315038762
H            4.14370369666668       -0.27158272393563        1.44132168469307
H            3.08199215090579       -1.53169272053787        0.75275722434421
H            3.99724670371326       -0.44868981604268       -0.32679939953492
H           -3.62116489290608       -0.72004542847675       -0.92614223717148
H           -4.18502275043898        0.09645187684000        0.54403137342318
H           -3.65161636611696        1.04276592716716       -0.86111486362815
