42
 energy: -82.979455008675 gnorm: 0.000606781693 xtb: 6.5.1 (579679a)
C            6.72794826671983       -0.05758350709411        2.26616279964275
O            5.63431991781807        0.55396898371785        1.59488653915851
C            4.68170886625484       -0.28854009547257        1.12682375795536
O            4.78514334025414       -1.49929580502904        1.28470871740482
C            3.57239617432831        0.36432381015465        0.44496767048283
N            2.62962761829630       -0.53596541842375       -0.01520669629019
C            1.58835715004541       -0.13266677036914       -0.63776503927004
C            0.58320271857964       -1.12662813014010       -1.17766175526302
C            0.80306179533822       -2.49501410322308       -0.52841427494428
C            0.71037534104704       -1.20408738615957       -2.70540861977682
N           -0.76504187766432       -0.62715910426058       -0.82487791090511
C           -1.89438602513706       -1.23672497693288       -1.18811562073484
O           -2.01334459237029       -2.26003244312624       -1.83209118083990
C           -3.12018522164729       -0.50292288105870       -0.70759129586553
N           -4.35869718141066       -0.84913006972264       -0.88908286341996
N           -5.08024140750523        0.11470105867903       -0.28832679684949
C           -6.52694208853856        0.05008761378747       -0.28837787710954
C           -4.27964652414923        1.01665813232470        0.23975246570456
C           -4.62520325128302        2.23098712124803        0.99501277910029
O           -3.03867596977069        0.64950346581513       -0.01077426295427
N            1.36342167612535        1.20703055642026       -0.89924027710845
C            2.20625816941363        2.21165392189187       -0.48650000947963
O            1.92640079052916        3.37906478825168       -0.73963055789387
C            3.44588423816614        1.76662443395604        0.26034740790546
O            4.24483959883529        2.63567864996371        0.64968433867222
H            7.26257929415341       -0.73801130422729        1.59583879342383
H            6.37987805684884       -0.62191083944478        3.13686233785901
H            7.39364517159035        0.74297354037418        2.58720328118343
H            0.63221068551734       -2.42666535352404        0.54471502036647
H            1.83273094127586       -2.80703351454866       -0.70029550277723
H            0.12660587660808       -3.23292161134248       -0.95392651810062
H            0.01558066123092       -1.93526418633588       -3.11293138203360
H            0.49978015540843       -0.23143070451603       -3.14599451857006
H            1.72683519770794       -1.49955812990385       -2.96334447021960
H           -0.83101964779923        0.20184821882577       -0.25801323169875
H           -6.82316011695763       -0.80111832531066       -0.89585386196300
H           -6.92143825511596        0.97516220016192       -0.70449115691398
H           -6.87560769724936       -0.07128978180555        0.73576587537953
H           -4.97632085738931        1.95441547640120        1.99188235442405
H           -5.43085099451056        2.76717570455515        0.49345695067054
H           -3.74724574080990        2.86796511395108        1.08851777657442
H            0.53521774721379        1.49113265148922       -1.39074318492897
