38
 energy: -79.617260405676 gnorm: 0.000188670917 xtb: 6.5.1 (579679a)
C            6.78090011932993        0.38912539949368       -0.02058938089301
O            5.48622608962588       -0.11301648334964       -0.33823476239163
C            4.46848212486062        0.35465322158887        0.40489712810773
O            4.64753519744522        1.15221777415715        1.30527021041116
C            3.14704619199906       -0.18263939570852        0.01033506440339
N            2.09361453140007        0.31979348145649        0.73010571424091
C            0.88700301438618       -0.08852566434669        0.41136969961579
C           -0.24847798731633        0.50333878839795        1.24119969216889
C           -0.12516963902150        2.03206812081418        1.26176133234844
C           -0.17862402755505       -0.06635379199595        2.66551926810747
N           -1.50210530651239        0.10540206181419        0.60509155791962
C           -2.72123425565423        0.47059226758766        1.00991602434145
O           -2.98037655786213        1.17293527695432        1.97801518933722
C           -3.77341751522070       -0.08512606748173        0.10852002153328
N           -3.57934929473398       -0.87062778883610       -0.90671418087949
N           -4.80439216303856       -1.11414169840529       -1.45724345866606
C           -5.66581190856378       -0.45982472594971       -0.74237682871202
C           -7.13136622657375       -0.39038212292318       -0.93486221000172
O           -5.07928015415923        0.20842616621561        0.26268871899365
N            0.54993541731317       -0.96006308012564       -0.53919152569510
C            1.53529990516542       -1.51469502514215       -1.28403832654779
O            1.34649574417903       -2.34427102134695       -2.19532207130314
C            2.90731143260052       -1.09323840624422       -0.98533515924079
O            3.85492206780596       -1.66708722856680       -1.76041814287922
H            6.80667473544469        1.47657208373625       -0.13464515897137
H            7.47918552357615       -0.07480080976107       -0.71484815252456
H            7.04931864988479        0.13267967574651        1.00803327919246
H           -0.25780965125602        2.43087971349679        0.25658054428079
H            0.86900689897306        2.29907961235126        1.61925988265676
H           -0.87209028883698        2.47180858614749        1.92027269372846
H            0.80156713923174        0.15322359269770        3.08728637558317
H           -0.94705923676785        0.38105031540976        3.29421283578048
H           -0.32082424154793       -1.14635070084065        2.64422451686241
H           -1.39883689059166       -0.50592810765764       -0.20477888764155
H           -7.41124092355025       -0.96008689236659       -1.81737803854503
H           -7.44246165622460        0.64679320171111       -1.05612100336410
H           -7.64387888117066       -0.79552533659569       -0.06260636481048
H            3.37328402294387       -2.26795599209956       -2.36831209653176
