      -----------------------------------------------------------      
     |                   =====================                   |     
     |                           x T B                           |     
     |                   =====================                   |     
     |                         S. Grimme                         |     
     |          Mulliken Center for Theoretical Chemistry        |     
     |                    University of Bonn                     |     
      -----------------------------------------------------------      

   * xtb version 6.5.1 (579679a) compiled by 'ehlert@majestix' on 2022-07-11

   xtb is free software: you can redistribute it and/or modify it under
   the terms of the GNU Lesser General Public License as published by
   the Free Software Foundation, either version 3 of the License, or
   (at your option) any later version.
   
   xtb is distributed in the hope that it will be useful,
   but WITHOUT ANY WARRANTY; without even the implied warranty of
   MERCHANTABILITY or FITNESS FOR A PARTICULAR PURPOSE.  See the
   GNU Lesser General Public License for more details.
   
   Cite this work as:
   * C. Bannwarth, E. Caldeweyher, S. Ehlert, A. Hansen, P. Pracht,
     J. Seibert, S. Spicher, S. Grimme, WIREs Comput. Mol. Sci., 2020, 11,
     e01493. DOI: 10.1002/wcms.1493
   
   for GFN2-xTB:
   * C. Bannwarth, S. Ehlert and S. Grimme., J. Chem. Theory Comput., 2019,
     15, 1652-1671. DOI: 10.1021/acs.jctc.8b01176
   for GFN1-xTB:
   * S. Grimme, C. Bannwarth, P. Shushkov, J. Chem. Theory Comput., 2017,
     13, 1989-2009. DOI: 10.1021/acs.jctc.7b00118
   for GFN0-xTB:
   * P. Pracht, E. Caldeweyher, S. Ehlert, S. Grimme, ChemRxiv, 2019, preprint.
     DOI: 10.26434/chemrxiv.8326202.v1
   for GFN-FF:
   * S. Spicher and S. Grimme, Angew. Chem. Int. Ed., 2020, 59, 15665-15673.
     DOI: 10.1002/anie.202004239
   
   for ALPB and GBSA implicit solvation:
   * S. Ehlert, M. Stahn, S. Spicher, S. Grimme, J. Chem. Theory Comput.,
     2021, 17, 4250-4261. DOI: 10.1021/acs.jctc.1c00471
   
   for DFT-D4:
   * E. Caldeweyher, C. Bannwarth and S. Grimme, J. Chem. Phys., 2017,
     147, 034112. DOI: 10.1063/1.4993215
   * E. Caldeweyher, S. Ehlert, A. Hansen, H. Neugebauer, S. Spicher,
     C. Bannwarth and S. Grimme, J. Chem. Phys., 2019, 150, 154122.
     DOI: 10.1063/1.5090222
   * E. Caldeweyher, J.-M. Mewes, S. Ehlert and S. Grimme, Phys. Chem. Chem. Phys.
     2020, 22, 8499-8512. DOI: 10.1039/D0CP00502A
   
   for sTDA-xTB:
   * S. Grimme and C. Bannwarth, J. Chem. Phys., 2016, 145, 054103.
     DOI: 10.1063/1.4959605
   
   in the mass-spec context:
   * V. Asgeirsson, C. Bauer and S. Grimme, Chem. Sci., 2017, 8, 4879.
     DOI: 10.1039/c7sc00601b
   * J. Koopman and S. Grimme, ACS Omega 2019, 4, 12, 15120-15133.
     DOI: 10.1021/acsomega.9b02011
   
   for metadynamics refer to:
   * S. Grimme, J. Chem. Theory Comput., 2019, 155, 2847-2862
     DOI: 10.1021/acs.jctc.9b00143
   
   for SPH calculations refer to:
   * S. Spicher and S. Grimme, J. Chem. Theory Comput., 2021, 17, 1701-1714
     DOI: 10.1021/acs.jctc.0c01306
   
   with help from (in alphabetical order)
   P. Atkinson, C. Bannwarth, F. Bohle, G. Brandenburg, E. Caldeweyher
   M. Checinski, S. Dohm, S. Ehlert, S. Ehrlich, I. Gerasimov, C. Hölzer
   A. Katbashev, J. Koopman, C. Lavigne, S. Lehtola, F. März, M. Müller,
   F. Musil, H. Neugebauer, J. Pisarek, C. Plett, P. Pracht, F. Pultar,
   J. Seibert, P. Shushkov, S. Spicher, M. Stahn, M. Steiner, T. Strunk,
   J. Stückrath, T. Rose, and J. Unsleber
   
 * started run on 2023/06/21 at 17:23:41.975     

           -------------------------------------------------
          |                Calculation Setup                |
           -------------------------------------------------

          program call               : /lustre/hpc/kemi/ree/PhD/git/ReactivityQM/dep/xtb-6.5.1/bin/xtb --gfn 1 /lustre/hpc/kemi/ree/PhD/git/ReactivityQM/calculations/R02oxygendeprot/reac01prodN08/conf09/R02oxygendeprot_reac01prodN08_conf09_gfn1.xyz --opt --vfukui --chrg 0 --uhf 0 --alpb DMSO
          hostname                   : node070
          coordinate file            : /lustre/hpc/kemi/ree/PhD/git/ReactivityQM/calculations/R02oxygendeprot/reac01prodN08/conf09/R02oxygendeprot_reac01prodN08_conf09_gfn1.xyz
          omp threads                :                     1

   ID    Z sym.   atoms
    1    6 C      1, 3, 5, 7-10, 12, 14, 17, 18, 21, 23, 25
    2    8 O      2, 4, 13, 19, 22, 24
    3    7 N      6, 11, 15, 16, 20
    4    1 H      26-42

           -------------------------------------------------
          |                 G F N 1 - x T B                 |
           -------------------------------------------------

        Reference                      10.1021/acs.jctc.7b00118
      * Hamiltonian:
        H0-scaling (s, p, d)           1.850000    2.250000    2.000000
        zeta-weighting                 0.000000
      * Dispersion:
        s8                             2.400000
        a1                             0.630000
        a2                             5.000000
        s9                             0.000000
      * Repulsion:
        kExp                           1.500000
        rExp                           1.000000
      * Coulomb:
        alpha                          2.000000
        third order                    atomic
        anisotropic                    false
      * Halogen bond correction:
        rad-scale                      1.300000
        damping                        0.440000

      * Solvation model:               ALPB
        Solvent                        DMSO
        Parameter file                 internal GFN1-xTB/ALPB
        Dielectric constant                4.6680E+01
        Reference state                gsolv [1 M gas/solution]
        Free energy shift                  7.6243E-03 Eh       4.7843E+00 kcal/mol
        Temperature                        2.9815E+02 K
        Density                            1.1000E+00 kg/L
        Solvent mass                       7.8130E+01 g/mol
        Interaction kernel             P16
        Born radius scaling (c1)           1.7672E+00
        Born radii integrator          GBOBC
        Born offset                        0.0000E+00 a0       0.0000E+00 AA
        H-bond correction              true
        Ion screening                  false
        Surface tension                    1.0000E-05 Eh       1.5569E+01 dyn/cm
        Grid points                               230 per atom

          ...................................................
          :                      SETUP                      :
          :.................................................:
          :  # basis functions                 134          :
          :  # atomic orbitals                 134          :
          :  # shells                           84          :
          :  # electrons                       134          :
          :  # halogen bonds                     0          :
          :  max. iterations                   250          :
          :  Hamiltonian                  GFN1-xTB          :
          :  restarted?                      false          :
          :  GBSA solvation                   true          :
          :  PC potential                    false          :
          :  electronic temp.          300.0000000     K    :
          :  accuracy                    1.0000000          :
          :  -> integral cutoff          0.2500000E+02      :
          :  -> integral neglect         0.1000000E-07      :
          :  -> SCF convergence          0.1000000E-05 Eh   :
          :  -> wf. convergence          0.2000000E-04 e    :
          :  Broyden damping             0.4000000          :
          ...................................................

 iter      E             dE          RMSdq      gap      omega  full diag
   1    -83.4328047 -0.834328E+02  0.846E+00    2.93       0.0  T
   2    -83.7431275 -0.310323E+00  0.506E+00    2.51       1.0  T
   3    -83.7349659  0.816158E-02  0.160E+00    2.70       1.0  T
   4    -83.7566313 -0.216654E-01  0.152E-01    2.61       1.0  T
   5    -83.7572935 -0.662152E-03  0.429E-02    2.60       1.0  T
   6    -83.7573312 -0.377421E-04  0.146E-02    2.60       1.1  T
   7    -83.7573369 -0.563963E-05  0.488E-03    2.60       3.2  T
   8    -83.7573373 -0.465749E-06  0.834E-04    2.60      18.5  T
   9    -83.7573374 -0.161724E-07  0.336E-04    2.60      45.9  T
  10    -83.7573374 -0.139471E-08  0.105E-04    2.60     146.9  T
  11    -83.7573374 -0.152539E-09  0.300E-05    2.60     513.8  T

   *** convergence criteria satisfied after 11 iterations ***

         #    Occupation            Energy/Eh            Energy/eV
      -------------------------------------------------------------
         1        2.0000           -0.8641089             -23.5136
       ...           ...                  ...                  ...
        61        2.0000           -0.4676887             -12.7265
        62        2.0000           -0.4622431             -12.5783
        63        2.0000           -0.4582900             -12.4707
        64        2.0000           -0.4512231             -12.2784
        65        2.0000           -0.4475053             -12.1772
        66        2.0000           -0.4455079             -12.1229
        67        2.0000           -0.4312748             -11.7356 (HOMO)
        68                         -0.3356153              -9.1326 (LUMO)
        69                         -0.3206427              -8.7251
        70                         -0.2932563              -7.9799
        71                         -0.2612583              -7.1092
        72                         -0.2471676              -6.7258
       ...                                ...                  ...
       134                          0.6874335              18.7060
      -------------------------------------------------------------
                  HL-Gap            0.0956595 Eh            2.6030 eV
             Fermi-level           -0.3834450 Eh          -10.4341 eV

 SCC (total)                   0 d,  0 h,  0 min,  0.130 sec
 SCC setup                      ...        0 min,  0.002 sec (  1.286%)
 Dispersion                     ...        0 min,  0.000 sec (  0.202%)
 classical contributions        ...        0 min,  0.000 sec (  0.067%)
 integral evaluation            ...        0 min,  0.022 sec ( 17.093%)
 iterations                     ...        0 min,  0.053 sec ( 40.922%)
 molecular gradient             ...        0 min,  0.051 sec ( 39.476%)
 printout                       ...        0 min,  0.001 sec (  0.938%)

         :::::::::::::::::::::::::::::::::::::::::::::::::::::
         ::                     SUMMARY                     ::
         :::::::::::::::::::::::::::::::::::::::::::::::::::::
         :: total energy             -82.994588534948 Eh    ::
         :: total w/o Gsasa/hb       -82.972464554279 Eh    ::
         :: gradient norm              0.119022221475 Eh/a0 ::
         :: HOMO-LUMO gap              2.603028365490 eV    ::
         ::.................................................::
         :: SCC energy               -83.757337363137 Eh    ::
         :: -> electrostatic           0.344835007017 Eh    ::
         :: -> Gsolv                  -0.051099845949 Eh    ::
         ::    -> Gelec               -0.028975865279 Eh    ::
         ::    -> Gsasa               -0.025452388081 Eh    ::
         ::    -> Ghb                 -0.004295871593 Eh    ::
         ::    -> Gshift               0.007624279005 Eh    ::
         :: repulsion energy           0.787691590891 Eh    ::
         :: dispersion energy         -0.024942762703 Eh    ::
         :: halogen bond corr.         0.000000000000 Eh    ::
         :: add. restraining           0.000000000000 Eh    ::
         :: total charge              -0.000000000000 e     ::
         :::::::::::::::::::::::::::::::::::::::::::::::::::::

      ----------------------------------------------------------- 
     |                   =====================                   |
     |                        A N C O P T                        |
     |                   =====================                   |
     |               Approximate Normal Coordinate               |
     |                Rational Function Optimizer                |
      ----------------------------------------------------------- 

          ...................................................
          :                      SETUP                      :
          :.................................................:
          :   optimization level            normal          :
          :   max. optcycles                   200          :
          :   ANC micro-cycles                  20          :
          :   degrees of freedom               120          :
          :.................................................:
          :   RF solver                   davidson          :
          :   write xtbopt.log                true          :
          :   linear?                        false          :
          :   energy convergence         0.5000000E-05 Eh   :
          :   grad. convergence          0.1000000E-02 Eh/α :
          :   maximium RF displ.         1.0000000          :
          :   Hlow (freq-cutoff)         0.1000000E-01      :
          :   Hmax (freq-cutoff)         5.0000000          :
          :   S6 in model hess.         20.0000000          :
          ...................................................

generating ANC from model Hessian ...
Using Lindh-Hessian (1995)
 Shifting diagonal of input Hessian by   9.825383341175250E-003
 Lowest  eigenvalues of input Hessian
    0.000000    0.000000    0.000000    0.000000    0.000000    0.000000
    0.010000    0.010122    0.010667    0.011152    0.011838    0.012338
    0.012478    0.013180    0.013721    0.014387    0.014917    0.015934
 Highest eigenvalues
    2.032492    2.098884    2.209557    2.290932    2.350247    2.426156
 

........................................................................
.............................. CYCLE    1 ..............................
........................................................................
   1    -83.7573374 -0.837573E+02  0.969E-06    2.60       0.0  T
   2    -83.7573374 -0.895284E-12  0.489E-06    2.60    3156.1  T
   3    -83.7573374 -0.113687E-12  0.228E-06    2.60    6766.7  T
     SCC iter.                  ...        0 min,  0.015 sec
     gradient                   ...        0 min,  0.051 sec
 * total energy  :   -82.9945885 Eh     change       -0.1593037E-10 Eh
   gradient norm :     0.1190220 Eh/α   predicted     0.0000000E+00 (-100.00%)
   displ. norm   :     0.4421967 α      lambda       -0.2194349E-01
   maximum displ.:     0.1571021 α      in ANC's #23, #13, #25, ...

........................................................................
.............................. CYCLE    2 ..............................
........................................................................
   1    -83.7809949 -0.837810E+02  0.826E-02    2.71       0.0  T
   2    -83.7812595 -0.264608E-03  0.406E-02    2.70       1.0  T
   3    -83.7813079 -0.483492E-04  0.151E-02    2.71       1.0  T
   4    -83.7813079  0.131952E-07  0.573E-03    2.70       2.7  T
   5    -83.7813083 -0.479198E-06  0.132E-03    2.70      11.7  T
   6    -83.7813084 -0.410377E-07  0.323E-04    2.70      47.7  T
   7    -83.7813084 -0.112813E-08  0.111E-04    2.70     138.6  T
   8    -83.7813084 -0.115691E-09  0.278E-05    2.70     554.4  T
     SCC iter.                  ...        0 min,  0.039 sec
     gradient                   ...        0 min,  0.051 sec
 * total energy  :   -83.0102128 Eh     change       -0.1562423E-01 Eh
   gradient norm :     0.0583416 Eh/α   predicted    -0.1314965E-01 ( -15.84%)
   displ. norm   :     0.3753532 α      lambda       -0.8795637E-02
   maximum displ.:     0.1555366 α      in ANC's #25, #23, #24, ...

........................................................................
.............................. CYCLE    3 ..............................
........................................................................
   1    -83.7950759 -0.837951E+02  0.826E-02    2.77       0.0  T
   2    -83.7953567 -0.280767E-03  0.426E-02    2.77       1.0  T
   3    -83.7954145 -0.578320E-04  0.146E-02    2.77       1.1  T
   4    -83.7954145  0.232249E-07  0.587E-03    2.77       2.6  T
   5    -83.7954149 -0.416985E-06  0.120E-03    2.77      12.8  T
   6    -83.7954149 -0.332364E-07  0.285E-04    2.77      54.1  T
   7    -83.7954149 -0.101117E-08  0.111E-04    2.77     139.2  T
   8    -83.7954149 -0.111683E-09  0.281E-05    2.77     548.7  T
     SCC iter.                  ...        0 min,  0.039 sec
     gradient                   ...        0 min,  0.051 sec
 * total energy  :   -83.0155307 Eh     change       -0.5317936E-02 Eh
   gradient norm :     0.0184504 Eh/α   predicted    -0.5017431E-02 (  -5.65%)
   displ. norm   :     0.2411843 α      lambda       -0.1543018E-02
   maximum displ.:     0.1049495 α      in ANC's #18, #25, #23, ...

........................................................................
.............................. CYCLE    4 ..............................
........................................................................
   1    -83.7971236 -0.837971E+02  0.204E-02    2.77       0.0  T
   2    -83.7971379 -0.142444E-04  0.992E-03    2.77       1.6  T
   3    -83.7971394 -0.146666E-05  0.473E-03    2.77       3.3  T
   4    -83.7971394 -0.151301E-07  0.144E-03    2.77      10.7  T
   5    -83.7971394 -0.164375E-07  0.302E-04    2.77      51.1  T
   6    -83.7971394 -0.175861E-08  0.104E-04    2.77     148.7  T
   7    -83.7971394 -0.289063E-09  0.334E-05    2.77     462.0  T
     SCC iter.                  ...        0 min,  0.034 sec
     gradient                   ...        0 min,  0.057 sec
 * total energy  :   -83.0165918 Eh     change       -0.1061084E-02 Eh
   gradient norm :     0.0110725 Eh/α   predicted    -0.8164115E-03 ( -23.06%)
   displ. norm   :     0.2023148 α      lambda       -0.6476248E-03
   maximum displ.:     0.0951715 α      in ANC's #18, #6, #9, ...

........................................................................
.............................. CYCLE    5 ..............................
........................................................................
   1    -83.7988016 -0.837988E+02  0.130E-02    2.77       0.0  T
   2    -83.7988069 -0.533576E-05  0.630E-03    2.77       2.5  T
   3    -83.7988076 -0.640908E-06  0.319E-03    2.77       4.8  T
   4    -83.7988076 -0.150203E-07  0.112E-03    2.77      13.8  T
   5    -83.7988076 -0.132858E-07  0.255E-04    2.77      60.4  T
   6    -83.7988076 -0.166193E-08  0.613E-05    2.77     251.7  T
   7    -83.7988076 -0.852367E-10  0.205E-05    2.77     752.8  T
     SCC iter.                  ...        0 min,  0.035 sec
     gradient                   ...        0 min,  0.040 sec
 * total energy  :   -83.0170142 Eh     change       -0.4223886E-03 Eh
   gradient norm :     0.0061317 Eh/α   predicted    -0.3371395E-03 ( -20.18%)
   displ. norm   :     0.1392707 α      lambda       -0.2064387E-03
   maximum displ.:     0.0714133 α      in ANC's #6, #18, #3, ...

........................................................................
.............................. CYCLE    6 ..............................
........................................................................
   1    -83.8001020 -0.838001E+02  0.624E-03    2.77       0.0  T
   2    -83.8001031 -0.104044E-05  0.310E-03    2.77       5.0  T
   3    -83.8001032 -0.119847E-06  0.167E-03    2.77       9.2  T
   4    -83.8001032 -0.579209E-08  0.554E-04    2.77      27.8  T
   5    -83.8001032 -0.383683E-08  0.118E-04    2.77     131.2  T
   6    -83.8001032 -0.354447E-09  0.329E-05    2.77     469.4  T
     SCC iter.                  ...        0 min,  0.024 sec
     gradient                   ...        0 min,  0.038 sec
 * total energy  :   -83.0171575 Eh     change       -0.1433397E-03 Eh
   gradient norm :     0.0039692 Eh/α   predicted    -0.1052223E-03 ( -26.59%)
   displ. norm   :     0.1422945 α      lambda       -0.1251235E-03
   maximum displ.:     0.0873740 α      in ANC's #6, #3, #18, ...

........................................................................
.............................. CYCLE    7 ..............................
........................................................................
   1    -83.8009578 -0.838010E+02  0.502E-03    2.77       0.0  T
   2    -83.8009589 -0.103464E-05  0.249E-03    2.77       6.2  T
   3    -83.8009589 -0.620964E-07  0.133E-03    2.77      11.6  T
   4    -83.8009589 -0.759115E-09  0.460E-04    2.77      33.5  T
   5    -83.8009589 -0.211823E-08  0.860E-05    2.77     179.4  T
   6    -83.8009589 -0.146187E-09  0.286E-05    2.77     539.8  T
     SCC iter.                  ...        0 min,  0.034 sec
     gradient                   ...        0 min,  0.056 sec
 * total energy  :   -83.0172442 Eh     change       -0.8673592E-04 Eh
   gradient norm :     0.0030563 Eh/α   predicted    -0.6382956E-04 ( -26.41%)
   displ. norm   :     0.1404190 α      lambda       -0.8363897E-04
   maximum displ.:     0.0872493 α      in ANC's #6, #3, #15, ...

........................................................................
.............................. CYCLE    8 ..............................
........................................................................
   1    -83.8011769 -0.838012E+02  0.491E-03    2.76       0.0  T
   2    -83.8011782 -0.130706E-05  0.254E-03    2.76       6.1  T
   3    -83.8011784 -0.158475E-06  0.110E-03    2.76      14.0  T
   4    -83.8011784 -0.267150E-09  0.537E-04    2.76      28.8  T
   5    -83.8011784 -0.206721E-08  0.964E-05    2.76     160.1  T
   6    -83.8011784 -0.143956E-09  0.252E-05    2.76     613.0  T
     SCC iter.                  ...        0 min,  0.019 sec
     gradient                   ...        0 min,  0.035 sec
 * total energy  :   -83.0173034 Eh     change       -0.5910742E-04 Eh
   gradient norm :     0.0029330 Eh/α   predicted    -0.4264573E-04 ( -27.85%)
   displ. norm   :     0.1282231 α      lambda       -0.6224982E-04
   maximum displ.:     0.0740658 α      in ANC's #6, #3, #15, ...

........................................................................
.............................. CYCLE    9 ..............................
........................................................................
   1    -83.8010116 -0.838010E+02  0.416E-03    2.76       0.0  T
   2    -83.8010125 -0.888273E-06  0.222E-03    2.76       6.9  T
   3    -83.8010126 -0.165445E-06  0.786E-04    2.76      19.6  T
   4    -83.8010126 -0.572996E-09  0.389E-04    2.76      39.6  T
   5    -83.8010126 -0.822354E-09  0.716E-05    2.76     215.5  T
   6    -83.8010126 -0.663221E-10  0.216E-05    2.76     714.0  T
     SCC iter.                  ...        0 min,  0.032 sec
     gradient                   ...        0 min,  0.055 sec
 * total energy  :   -83.0173505 Eh     change       -0.4713249E-04 Eh
   gradient norm :     0.0027357 Eh/α   predicted    -0.3164245E-04 ( -32.86%)
   displ. norm   :     0.1649177 α      lambda       -0.6542237E-04
   maximum displ.:     0.0901948 α      in ANC's #3, #6, #15, ...

........................................................................
.............................. CYCLE   10 ..............................
........................................................................
   1    -83.8004776 -0.838005E+02  0.417E-03    2.77       0.0  T
   2    -83.8004784 -0.776017E-06  0.212E-03    2.77       7.3  T
   3    -83.8004785 -0.138270E-06  0.830E-04    2.77      18.6  T
   4    -83.8004785 -0.130119E-08  0.386E-04    2.77      40.0  T
   5    -83.8004785 -0.102271E-08  0.685E-05    2.77     225.3  T
   6    -83.8004785 -0.498233E-10  0.266E-05    2.77     579.2  T
     SCC iter.                  ...        0 min,  0.033 sec
     gradient                   ...        0 min,  0.055 sec
 * total energy  :   -83.0173978 Eh     change       -0.4727963E-04 Eh
   gradient norm :     0.0026503 Eh/α   predicted    -0.3360424E-04 ( -28.92%)
   displ. norm   :     0.1492050 α      lambda       -0.4869518E-04
   maximum displ.:     0.0879964 α      in ANC's #3, #6, #15, ...

........................................................................
.............................. CYCLE   11 ..............................
........................................................................
   1    -83.8001837 -0.838002E+02  0.290E-03    2.77       0.0  T
   2    -83.8001840 -0.334982E-06  0.130E-03    2.77      11.8  T
   3    -83.8001840 -0.188959E-07  0.672E-04    2.77      23.0  T
   4    -83.8001840 -0.145576E-09  0.266E-04    2.77      58.0  T
   5    -83.8001840 -0.110474E-08  0.544E-05    2.77     283.5  T
   6    -83.8001840 -0.319176E-10  0.220E-05    2.77     702.9  T
     SCC iter.                  ...        0 min,  0.032 sec
     gradient                   ...        0 min,  0.056 sec
 * total energy  :   -83.0174335 Eh     change       -0.3576389E-04 Eh
   gradient norm :     0.0023312 Eh/α   predicted    -0.2489177E-04 ( -30.40%)
   displ. norm   :     0.1179747 α      lambda       -0.3770961E-04
   maximum displ.:     0.0755900 α      in ANC's #3, #4, #15, ...

........................................................................
.............................. CYCLE   12 ..............................
........................................................................
   1    -83.8003965 -0.838004E+02  0.264E-03    2.77       0.0  T
   2    -83.8003968 -0.320737E-06  0.143E-03    2.77      10.8  T
   3    -83.8003969 -0.377386E-07  0.692E-04    2.77      22.3  T
   4    -83.8003969 -0.108273E-09  0.305E-04    2.77      50.7  T
   5    -83.8003969 -0.818872E-09  0.561E-05    2.77     275.0  T
   6    -83.8003969 -0.533760E-10  0.167E-05    2.77     925.2  T
     SCC iter.                  ...        0 min,  0.032 sec
     gradient                   ...        0 min,  0.056 sec
 * total energy  :   -83.0174616 Eh     change       -0.2808443E-04 Eh
   gradient norm :     0.0017929 Eh/α   predicted    -0.1911826E-04 ( -31.93%)
   displ. norm   :     0.1581414 α      lambda       -0.3100791E-04
   maximum displ.:     0.1055395 α      in ANC's #3, #7, #17, ...

........................................................................
.............................. CYCLE   13 ..............................
........................................................................
   1    -83.8009414 -0.838009E+02  0.391E-03    2.77       0.0  T
   2    -83.8009422 -0.742076E-06  0.235E-03    2.77       6.6  T
   3    -83.8009423 -0.158546E-06  0.996E-04    2.77      15.5  T
   4    -83.8009423 -0.447059E-09  0.397E-04    2.77      38.8  T
   5    -83.8009424 -0.779423E-09  0.751E-05    2.77     205.5  T
   6    -83.8009424 -0.110845E-09  0.182E-05    2.77     849.1  T
     SCC iter.                  ...        0 min,  0.032 sec
     gradient                   ...        0 min,  0.056 sec
 * total energy  :   -83.0174913 Eh     change       -0.2964727E-04 Eh
   gradient norm :     0.0019918 Eh/α   predicted    -0.1567751E-04 ( -47.12%)
   displ. norm   :     0.0960034 α      lambda       -0.1844164E-04
   maximum displ.:     0.0662353 α      in ANC's #3, #7, #17, ...

........................................................................
.............................. CYCLE   14 ..............................
........................................................................
   1    -83.8012628 -0.838013E+02  0.187E-03    2.77       0.0  T
   2    -83.8012629 -0.156480E-06  0.861E-04    2.77      17.9  T
   3    -83.8012629 -0.127357E-07  0.426E-04    2.77      36.2  T
   4    -83.8012629 -0.130029E-09  0.199E-04    2.77      77.5  T
   5    -83.8012629 -0.512344E-09  0.338E-05    2.77     456.3  T
     SCC iter.                  ...        0 min,  0.026 sec
     gradient                   ...        0 min,  0.056 sec
 * total energy  :   -83.0175146 Eh     change       -0.2336099E-04 Eh
   gradient norm :     0.0018086 Eh/α   predicted    -0.9259442E-05 ( -60.36%)
   displ. norm   :     0.1893241 α      lambda       -0.3557240E-04
   maximum displ.:     0.1257971 α      in ANC's #3, #7, #17, ...

........................................................................
.............................. CYCLE   15 ..............................
........................................................................
   1    -83.8014458 -0.838014E+02  0.348E-03    2.77       0.0  T
   2    -83.8014462 -0.491090E-06  0.142E-03    2.77      10.8  T
   3    -83.8014463 -0.240669E-07  0.693E-04    2.77      22.3  T
   4    -83.8014463 -0.251262E-09  0.243E-04    2.77      63.4  T
   5    -83.8014463 -0.643908E-09  0.560E-05    2.77     275.6  T
   6    -83.8014463 -0.227800E-10  0.129E-05    2.77    1197.9  T
     SCC iter.                  ...        0 min,  0.032 sec
     gradient                   ...        0 min,  0.043 sec
 * total energy  :   -83.0175541 Eh     change       -0.3944725E-04 Eh
   gradient norm :     0.0017886 Eh/α   predicted    -0.1806996E-04 ( -54.19%)
   displ. norm   :     0.2102767 α      lambda       -0.2554281E-04
   maximum displ.:     0.1459288 α      in ANC's #3, #7, #17, ...

........................................................................
.............................. CYCLE   16 ..............................
........................................................................
   1    -83.8007407 -0.838007E+02  0.412E-03    2.77       0.0  T
   2    -83.8007414 -0.718322E-06  0.177E-03    2.77       8.7  T
   3    -83.8007415 -0.687352E-07  0.841E-04    2.77      18.3  T
   4    -83.8007415 -0.136798E-08  0.383E-04    2.77      40.3  T
   5    -83.8007415 -0.149387E-08  0.789E-05    2.77     195.7  T
   6    -83.8007415 -0.780176E-10  0.196E-05    2.77     787.3  T
     SCC iter.                  ...        0 min,  0.035 sec
     gradient                   ...        0 min,  0.060 sec
 * total energy  :   -83.0175794 Eh     change       -0.2534563E-04 Eh
   gradient norm :     0.0024008 Eh/α   predicted    -0.1302493E-04 ( -48.61%)
   displ. norm   :     0.1139606 α      lambda       -0.1970496E-04
   maximum displ.:     0.0801076 α      in ANC's #3, #7, #11, ...

........................................................................
.............................. CYCLE   17 ..............................
........................................................................
   1    -83.8012433 -0.838012E+02  0.242E-03    2.77       0.0  T
   2    -83.8012435 -0.217847E-06  0.969E-04    2.77      15.9  T
   3    -83.8012435 -0.114839E-07  0.517E-04    2.77      29.9  T
   4    -83.8012435 -0.163624E-09  0.201E-04    2.77      76.9  T
   5    -83.8012435 -0.640284E-09  0.451E-05    2.77     342.1  T
   6    -83.8012435 -0.319176E-10  0.127E-05    2.77    1210.8  T
     SCC iter.                  ...        0 min,  0.035 sec
     gradient                   ...        0 min,  0.061 sec
 * total energy  :   -83.0175938 Eh     change       -0.1441019E-04 Eh
   gradient norm :     0.0013231 Eh/α   predicted    -0.9983452E-05 ( -30.72%)
   displ. norm   :     0.2342671 α      lambda       -0.1873540E-04
   maximum displ.:     0.1672967 α      in ANC's #3, #7, #11, ...

........................................................................
.............................. CYCLE   18 ..............................
........................................................................
   1    -83.8008364 -0.838008E+02  0.411E-03    2.77       0.0  T
   2    -83.8008371 -0.684151E-06  0.169E-03    2.77       9.1  T
   3    -83.8008371 -0.598222E-07  0.815E-04    2.77      18.9  T
   4    -83.8008371 -0.170725E-08  0.381E-04    2.77      40.5  T
   5    -83.8008371 -0.155129E-08  0.735E-05    2.77     210.1  T
   6    -83.8008371 -0.638636E-10  0.208E-05    2.77     741.6  T
     SCC iter.                  ...        0 min,  0.035 sec
     gradient                   ...        0 min,  0.061 sec
 * total energy  :   -83.0176086 Eh     change       -0.1474086E-04 Eh
   gradient norm :     0.0017080 Eh/α   predicted    -0.9598729E-05 ( -34.88%)
   displ. norm   :     0.0346778 α      lambda       -0.1072049E-04
   maximum displ.:     0.0175763 α      in ANC's #12, #7, #5, ...

........................................................................
.............................. CYCLE   19 ..............................
........................................................................
   1    -83.8020954 -0.838021E+02  0.288E-03    2.77       0.0  T
   2    -83.8020955 -0.682239E-07  0.146E-03    2.77      10.6  T
   3    -83.8020955 -0.239758E-08  0.640E-04    2.77      24.1  T
   4    -83.8020955 -0.251741E-08  0.130E-04    2.77     118.6  T
   5    -83.8020955 -0.193964E-09  0.336E-05    2.77     459.9  T
     SCC iter.                  ...        0 min,  0.030 sec
     gradient                   ...        0 min,  0.061 sec
 * total energy  :   -83.0176144 Eh     change       -0.5824876E-05 Eh
   gradient norm :     0.0016481 Eh/α   predicted    -0.5366865E-05 (  -7.86%)
   displ. norm   :     0.0403725 α      lambda       -0.7450551E-05
   maximum displ.:     0.0227853 α      in ANC's #5, #6, #3, ...

........................................................................
.............................. CYCLE   20 ..............................
........................................................................
   1    -83.8017914 -0.838018E+02  0.174E-03    2.77       0.0  T
   2    -83.8017914 -0.542799E-07  0.913E-04    2.77      16.9  T
   3    -83.8017914 -0.926788E-08  0.483E-04    2.77      31.9  T
   4    -83.8017914 -0.111106E-08  0.110E-04    2.77     140.2  T
   5    -83.8017914 -0.153349E-09  0.279E-05    2.77     552.5  T
     SCC iter.                  ...        0 min,  0.029 sec
     gradient                   ...        0 min,  0.061 sec
 * total energy  :   -83.0176218 Eh     change       -0.7450495E-05 Eh
   gradient norm :     0.0009797 Eh/α   predicted    -0.3729996E-05 ( -49.94%)
   displ. norm   :     0.0394618 α      lambda       -0.4303435E-05
   maximum displ.:     0.0226104 α      in ANC's #5, #3, #14, ...
 * RMSD in coord.:     0.3434646 α      energy gain  -0.2303330E-01 Eh

generating ANC from model Hessian ...
Using Lindh-Hessian (1995)
 Shifting diagonal of input Hessian by   9.816876688804427E-003
 Lowest  eigenvalues of input Hessian
    0.000000    0.000000    0.000000    0.000000    0.000000    0.000000
    0.010000    0.010125    0.010614    0.011221    0.011998    0.012154
    0.012350    0.013413    0.013860    0.014703    0.015252    0.016193
 Highest eigenvalues
    2.059690    2.126566    2.233315    2.367593    2.428643    2.432647
 

........................................................................
.............................. CYCLE   21 ..............................
........................................................................
   1    -83.8013682 -0.838014E+02  0.138E-03    2.77       0.0  T
   2    -83.8013683 -0.556670E-07  0.643E-04    2.77      24.0  T
   3    -83.8013683 -0.939360E-08  0.321E-04    2.77      48.1  T
   4    -83.8013683 -0.189061E-09  0.986E-05    2.77     156.5  T
   5    -83.8013683 -0.129702E-09  0.181E-05    2.77     853.0  T
     SCC iter.                  ...        0 min,  0.029 sec
     gradient                   ...        0 min,  0.061 sec
 * total energy  :   -83.0176260 Eh     change       -0.4202969E-05 Eh
   gradient norm :     0.0006210 Eh/α   predicted     0.0000000E+00 (-100.00%)
   displ. norm   :     0.0138165 α      lambda       -0.4039685E-06
   maximum displ.:     0.0074683 α      in ANC's #5, #7, #1, ...

   *** GEOMETRY OPTIMIZATION CONVERGED AFTER 21 ITERATIONS ***

------------------------------------------------------------------------
 total energy gain   :        -0.0230375 Eh      -14.4563 kcal/mol
 total RMSD          :         0.3434646 a0        0.1818 Å
 total power (kW/mol):        -2.8802366 (step)  -25.2327 (real)
------------------------------------------------------------------------

 ANCopt (total)                0 d,  0 h,  0 min,  2.397 sec
 optimizer setup                ...        0 min,  0.001 sec (  0.034%)
 model hessian                  ...        0 min,  0.035 sec (  1.467%)
 ANC generation                 ...        0 min,  0.005 sec (  0.216%)
 coordinate transformation      ...        0 min,  0.000 sec (  0.019%)
 single point calculation       ...        0 min,  2.347 sec ( 97.895%)
 optimization log               ...        0 min,  0.005 sec (  0.220%)
 hessian update                 ...        0 min,  0.000 sec (  0.018%)
 rational function              ...        0 min,  0.002 sec (  0.082%)

================
 final structure:
================
42
 xtb: 6.5.1 (579679a)
C           -5.85564094124430        2.41596780598153        0.63094771333332
O           -4.87211457416745        1.38142237396824        0.53632881917891
C           -3.70337632241181        1.72503743866426        0.00054143082870
O           -3.45894188926564        2.84758960740121       -0.38224219672126
C           -2.71481017408741        0.60652419429936       -0.09440791690085
N           -1.53245804166320        1.01374937796466       -0.65740714352150
C           -0.57557440653442        0.16857379063111       -0.81660040918476
C            0.71919890854181        0.58508385210064       -1.47902568167881
C            0.81981654555918        2.11226951295954       -1.52874109035677
C            0.75355800452513       -0.02095235704733       -2.89060554909832
N            1.81554039604502        0.03511173324488       -0.67363458429988
C            3.11955581944263        0.18015438272907       -1.00107445348662
O            3.54405961097622        0.69568708313271       -2.01837794078025
C            3.99071121033646       -0.38846273795927        0.05897166601656
N            3.59092678073661       -0.92657706234820        1.17222681226093
N            4.71047379400300       -1.29994769818490        1.85188310777406
C            5.72291079381598       -0.96407083722466        1.11002422837448
C            7.16018939532545       -1.15111729340081        1.40697622517430
O            5.33259729017176       -0.38361296882034       -0.03374220696642
N           -0.70652493685180       -1.13728005865381       -0.44635908692808
C           -1.83829437298335       -1.67393118600403        0.13121462654989
O           -1.86378181309629       -2.85860835698796        0.43158823667583
C           -2.91585969259940       -0.69501802747274        0.31183132807358
O           -4.08801938573935       -1.04135536433934        0.85927646277765
C           -4.39046514718930       -2.37034627746763        1.28549903389297
H           -6.13921643043782        2.75457224638825       -0.36862908674231
H           -5.46086799234851        3.26097387621498        1.20019739710975
H           -6.71400723489289        1.98384665112028        1.14088274615725
H            1.73367166764927        2.40781699426561       -2.04023032356424
H            0.82466001982736        2.51861488849387       -0.51843956547758
H           -0.03871004637528        2.51238288641315       -2.06612064087631
H            1.65149636881386        0.29916675197763       -3.41531195479222
H            0.74609860970413       -1.10739331864914       -2.82842751863647
H           -0.12087557673973        0.30992379003898       -3.44865297443242
H            1.60379665416746       -0.33917589572087        0.23870197614836
H            7.64084311886976       -1.69683859205359        0.59515110969875
H            7.65065467336188       -0.18142985559339        1.49871366989902
H            7.27169070758953       -1.70309999766012        2.33716824876606
H            0.05401334645833       -1.78290044037158       -0.59681814724588
H           -4.34505963481510       -3.07173327319785        0.44952987299154
H           -3.71223592849906       -2.69504747985621        2.07750575483108
H           -5.40962817398165       -2.32557215897595        1.67161200517865
 
 Bond Distances (Angstroems)
 ---------------------------
C1-O2=1.4306         C1-H26=1.0928        C1-H27=1.0927        C1-H28=1.0879        O2-C1=1.4306         O2-C3=1.3308         
C3-O2=1.3308         C3-O4=1.2109         C3-C5=1.4958         O4-C3=1.2109         C5-C3=1.4958         C5-N6=1.3714         
C5-C23=1.3782        N6-C5=1.3714         N6-C7=1.2866         C7-N6=1.2866         C7-C8=1.5129         C7-N20=1.3636        
C8-C7=1.5129         C8-C9=1.5313         C8-C10=1.5366        C8-N11=1.4673        C9-C8=1.5313         C9-H29=1.0882        
C9-H30=1.0890        C9-H31=1.0890        C10-C8=1.5366        C10-H32=1.0882       C10-H33=1.0882       C10-H34=1.0888       
N11-C8=1.4673        N11-C12=1.3523       N11-H35=1.0086       C12-N11=1.3523       C12-O13=1.2169       C12-C14=1.4852       
O13-C12=1.2169       C14-C12=1.4852       C14-N15=1.2995       C14-O19=1.3451       N15-C14=1.2995       N15-N16=1.3619       
N16-N15=1.3619       N16-C17=1.2993       C17-N16=1.2993       C17-C18=1.4795       C17-O19=1.3407       C18-C17=1.4795       
C18-H36=1.0899       C18-H37=1.0905       C18-H38=1.0874       O19-C14=1.3451       O19-C17=1.3407       N20-C7=1.3636        
N20-C21=1.3793       N20-H39=1.0089       C21-N20=1.3793       C21-O22=1.2224       C21-C23=1.4670       O22-C21=1.2224       
C23-C5=1.3782        C23-C21=1.4670       C23-O24=1.3393       O24-C23=1.3393       O24-C25=1.4281       C25-O24=1.4281       
C25-H40=1.0922       C25-H41=1.0921       C25-H42=1.0908       H26-C1=1.0928        H27-C1=1.0927        H28-C1=1.0879        
H29-C9=1.0882        H30-C9=1.0890        H31-C9=1.0890        H32-C10=1.0882       H33-C10=1.0882       H34-C10=1.0888       
H35-N11=1.0086       H36-C18=1.0899       H37-C18=1.0905       H38-C18=1.0874       H39-N20=1.0089       H40-C25=1.0922       
H41-C25=1.0921       H42-C25=1.0908       
 C  H  Rav=1.0898 sigma=0.0018  Rmin=1.0874  Rmax=1.0928    15
 C  C  Rav=1.4858 sigma=0.0467  Rmin=1.3782  Rmax=1.5366     8
 N  H  Rav=1.0088 sigma=0.0001  Rmin=1.0086  Rmax=1.0089     2
 N  C  Rav=1.3524 sigma=0.0552  Rmin=1.2866  Rmax=1.4673     8
 N  N  Rav=1.3619 sigma=0.0000  Rmin=1.3619  Rmax=1.3619     1
 O  C  Rav=1.3183 sigma=0.0799  Rmin=1.2109  Rmax=1.4306     9
 
 selected bond angles (degree)
 --------------------
H26-C1-O2=110.00               H27-C1-O2=110.20               H27-C1-H26=109.31              H28-C1-O2=106.63               
H28-C1-H26=110.31              H28-C1-H27=110.37              C3-O2-C1=116.34                O4-C3-O2=122.95                
C5-C3-O2=114.39                C5-C3-O4=122.66                N6-C5-C3=111.95                C23-C5-C3=126.23               
C23-C5-N6=121.82               C7-N6-C5=119.80                C8-C7-N6=120.65                N20-C7-N6=121.61               
N20-C7-C8=117.69               C9-C8-C7=110.18                C10-C8-C7=108.23               C10-C8-C9=111.23               
N11-C8-C7=107.21               N11-C8-C9=110.03               N11-C8-C10=109.86              H29-C9-C8=109.96               
H30-C9-C8=110.02               H30-C9-H29=109.33              H31-C9-C8=109.31               H31-C9-H29=109.29              
H31-C9-H30=108.92              H32-C10-C8=110.21              H33-C10-C8=109.94              H33-C10-H32=109.08             
H34-C10-C8=109.45              H34-C10-H32=109.04             H34-C10-H33=109.10             
 
 selected dihedral angles (degree)
 ---------------------------------
C3-O2-C1-H26= 63.78           C3-O2-C1-H27=303.19           C3-O2-C1-H28=183.39           O4-C3-O2-C1=  0.62            
C5-C3-O2-C1=180.80            N6-C5-C3-O2=179.76            N6-C5-C3-O4=359.95            C23-C5-C3-O2=  0.08           
C23-C5-C3-O4=180.27           C7-N6-C5-C3=180.28            C7-N6-C5-C23=  0.00           C8-C7-N6-C5=177.87            
N20-C7-N6-C5=  0.46           C9-C8-C7-N6= 15.47            C9-C8-C7-N20=192.98           C10-C8-C7-N6=253.66           
C10-C8-C7-N20= 71.17          N11-C8-C7-N6=135.20           N11-C8-C7-N20=312.71          H29-C9-C8-C7=182.19           
H29-C9-C8-C10=302.21          H29-C9-C8-N11= 64.18          H30-C9-C8-C7= 61.72           H30-C9-C8-C10=181.74          
H30-C9-C8-N11=303.71          H31-C9-C8-C7=302.17           H31-C9-C8-C10= 62.19          H31-C9-C8-N11=184.16          
H32-C10-C8-C7=177.24          H32-C10-C8-C9= 56.07          H32-C10-C8-N11=294.00         H33-C10-C8-C7=297.51          
H33-C10-C8-C9=176.34          H33-C10-C8-N11= 54.27         H34-C10-C8-C7= 57.33          H34-C10-C8-C9=296.16          
H34-C10-C8-N11=174.09         
           -------------------------------------------------
          |                Final Singlepoint                |
           -------------------------------------------------

          ...................................................
          :                      SETUP                      :
          :.................................................:
          :  # basis functions                 134          :
          :  # atomic orbitals                 134          :
          :  # shells                           84          :
          :  # electrons                       134          :
          :  # halogen bonds                     0          :
          :  max. iterations                   250          :
          :  Hamiltonian                  GFN1-xTB          :
          :  restarted?                      false          :
          :  GBSA solvation                   true          :
          :  PC potential                    false          :
          :  electronic temp.          300.0000000     K    :
          :  accuracy                    1.0000000          :
          :  -> integral cutoff          0.2500000E+02      :
          :  -> integral neglect         0.1000000E-07      :
          :  -> SCF convergence          0.1000000E-05 Eh   :
          :  -> wf. convergence          0.2000000E-04 e    :
          :  Broyden damping             0.4000000          :
          ...................................................

 iter      E             dE          RMSdq      gap      omega  full diag
   1    -83.8013683 -0.838014E+02  0.541E-06    2.77       0.0  T
   2    -83.8013683 -0.397904E-12  0.279E-06    2.77    5534.3  T
   3    -83.8013683 -0.142109E-12  0.122E-06    2.77   12616.3  T

   *** convergence criteria satisfied after 3 iterations ***

         #    Occupation            Energy/Eh            Energy/eV
      -------------------------------------------------------------
         1        2.0000           -0.8648570             -23.5340
       ...           ...                  ...                  ...
        61        2.0000           -0.4681189             -12.7382
        62        2.0000           -0.4629058             -12.5963
        63        2.0000           -0.4586339             -12.4801
        64        2.0000           -0.4533047             -12.3350
        65        2.0000           -0.4525151             -12.3136
        66        2.0000           -0.4491459             -12.2219
        67        2.0000           -0.4293652             -11.6836 (HOMO)
        68                         -0.3275242              -8.9124 (LUMO)
        69                         -0.3127112              -8.5093
        70                         -0.2867086              -7.8017
        71                         -0.2579223              -7.0184
        72                         -0.2427356              -6.6052
       ...                                ...                  ...
       134                          0.7257548              19.7488
      -------------------------------------------------------------
                  HL-Gap            0.1018410 Eh            2.7712 eV
             Fermi-level           -0.3784447 Eh          -10.2980 eV

 SCC (total)                   0 d,  0 h,  0 min,  0.107 sec
 SCC setup                      ...        0 min,  0.002 sec (  1.562%)
 Dispersion                     ...        0 min,  0.000 sec (  0.220%)
 classical contributions        ...        0 min,  0.000 sec (  0.082%)
 integral evaluation            ...        0 min,  0.026 sec ( 24.523%)
 iterations                     ...        0 min,  0.018 sec ( 16.590%)
 molecular gradient             ...        0 min,  0.060 sec ( 55.688%)
 printout                       ...        0 min,  0.001 sec (  1.306%)

         :::::::::::::::::::::::::::::::::::::::::::::::::::::
         ::                     SUMMARY                     ::
         :::::::::::::::::::::::::::::::::::::::::::::::::::::
         :: total energy             -83.017626042489 Eh    ::
         :: total w/o Gsasa/hb       -82.995323917144 Eh    ::
         :: gradient norm              0.000621968154 Eh/a0 ::
         :: HOMO-LUMO gap              2.771234369279 eV    ::
         ::.................................................::
         :: SCC energy               -83.801368297309 Eh    ::
         :: -> electrostatic           0.347384206604 Eh    ::
         :: -> Gsolv                  -0.052150849845 Eh    ::
         ::    -> Gelec               -0.029848724501 Eh    ::
         ::    -> Gsasa               -0.025681750570 Eh    ::
         ::    -> Ghb                 -0.004244653779 Eh    ::
         ::    -> Gshift               0.007624279005 Eh    ::
         :: repulsion energy           0.808644918462 Eh    ::
         :: dispersion energy         -0.024902663642 Eh    ::
         :: halogen bond corr.         0.000000000000 Eh    ::
         :: add. restraining           0.000000000000 Eh    ::
         :: total charge               0.000000000000 e     ::
         :::::::::::::::::::::::::::::::::::::::::::::::::::::

           -------------------------------------------------
          |                Property Printout                |
           -------------------------------------------------

    * Orbital Energies and Occupations

         #    Occupation            Energy/Eh            Energy/eV
      -------------------------------------------------------------
         1        2.0000           -0.8648570             -23.5340
       ...           ...                  ...                  ...
        55        2.0000           -0.5067803             -13.7902
        56        2.0000           -0.5025692             -13.6756
        57        2.0000           -0.4971432             -13.5280
        58        2.0000           -0.4872148             -13.2578
        59        2.0000           -0.4840610             -13.1720
        60        2.0000           -0.4826428             -13.1334
        61        2.0000           -0.4681189             -12.7382
        62        2.0000           -0.4629058             -12.5963
        63        2.0000           -0.4586339             -12.4801
        64        2.0000           -0.4533047             -12.3350
        65        2.0000           -0.4525151             -12.3136
        66        2.0000           -0.4491459             -12.2219
        67        2.0000           -0.4293652             -11.6836 (HOMO)
        68                         -0.3275242              -8.9124 (LUMO)
        69                         -0.3127112              -8.5093
        70                         -0.2867086              -7.8017
        71                         -0.2579223              -7.0184
        72                         -0.2427356              -6.6052
        73                         -0.2006200              -5.4591
        74                         -0.1635511              -4.4505
        75                         -0.1424927              -3.8774
        76                         -0.1383981              -3.7660
        77                         -0.1336365              -3.6364
        78                         -0.1307880              -3.5589
       ...                                ...                  ...
       134                          0.7257548              19.7488
      -------------------------------------------------------------
                  HL-Gap            0.1018410 Eh            2.7712 eV
             Fermi-level           -0.3784447 Eh          -10.2980 eV

  Mulliken/CM5 charges         n(s)   n(p)   n(d)
     1C     0.16384  0.04320   0.980  2.856  0.000
     2O    -0.40975 -0.49365   1.685  4.725  0.000
     3C     0.57586  0.64342   0.968  2.456  0.000
     4O    -0.56369 -0.60780   1.725  4.839  0.000
     5C     0.08119  0.15913   1.045  2.874  0.000
     6N    -0.36166 -0.54762   1.524  3.838  0.000
     7C     0.27762  0.42966   1.019  2.703  0.000
     8C     0.15364  0.19364   1.064  2.782  0.000
     9C    -0.09881 -0.23695   1.016  3.082  0.000
    10C    -0.10545 -0.24496   1.021  3.084  0.000
    11N    -0.35393 -0.70651   1.433  3.921  0.000
    12C     0.47339  0.58166   0.975  2.551  0.000
    13O    -0.56488 -0.61087   1.725  4.840  0.000
    14C     0.33316  0.45876   1.007  2.660  0.000
    15N    -0.24194 -0.35297   1.568  3.674  0.000
    16N    -0.26231 -0.36970   1.564  3.698  0.000
    17C     0.38928  0.49764   1.008  2.603  0.000
    18C    -0.11118 -0.24848   1.012  3.099  0.000
    19O    -0.33714 -0.38874   1.691  4.646  0.000
    20N    -0.28971 -0.63809   1.438  3.852  0.000
    21C     0.44785  0.54894   0.986  2.566  0.000
    22O    -0.57531 -0.62229   1.727  4.849  0.000
    23C     0.22480  0.26315   1.030  2.745  0.000
    24O    -0.39725 -0.48235   1.669  4.729  0.000
    25C     0.16376  0.04332   0.981  2.855  0.000
    26H     0.05180  0.11321   0.948  0.000  0.000
    27H     0.05228  0.11439   0.948  0.000  0.000
    28H     0.05397  0.11437   0.946  0.000  0.000
    29H     0.05840  0.11793   0.942  0.000  0.000
    30H     0.04510  0.10312   0.955  0.000  0.000
    31H     0.04800  0.10603   0.952  0.000  0.000
    32H     0.06836  0.12879   0.932  0.000  0.000
    33H     0.04653  0.10503   0.953  0.000  0.000
    34H     0.04836  0.10332   0.952  0.000  0.000
    35H     0.25285  0.46327   0.747  0.000  0.000
    36H     0.07915  0.13372   0.921  0.000  0.000
    37H     0.07968  0.13400   0.920  0.000  0.000
    38H     0.06985  0.12567   0.930  0.000  0.000
    39H     0.28275  0.48739   0.717  0.000  0.000
    40H     0.05024  0.11326   0.950  0.000  0.000
    41H     0.05015  0.11323   0.950  0.000  0.000
    42H     0.05117  0.11173   0.949  0.000  0.000

Wiberg/Mayer (AO) data.
largest (>0.10) Wiberg bond orders for each atom

 ---------------------------------------------------------------------------
     #   Z sym  total        # sym  WBO       # sym  WBO       # sym  WBO
 ---------------------------------------------------------------------------
     1   6 C    3.871 --    28 H    0.986    27 H    0.979    26 H    0.979
                             2 O    0.896
     2   8 O    2.206 --     3 C    1.117     1 C    0.896     4 O    0.134
     3   6 C    3.852 --     4 O    1.654     2 O    1.117     5 C    1.000
     4   8 O    1.916 --     3 C    1.654     2 O    0.134
     5   6 C    3.962 --    23 C    1.483     6 N    1.184     3 C    1.000
     6   7 N    3.029 --     7 C    1.591     5 C    1.184
     7   6 C    3.930 --     6 N    1.591    20 N    1.165     8 C    0.981
     8   6 C    3.933 --     9 C    0.991     7 C    0.981    10 C    0.976
                            11 N    0.921
     9   6 C    3.989 --     8 C    0.991    30 H    0.985    31 H    0.983
                            29 H    0.982
    10   6 C    3.987 --    34 H    0.985    33 H    0.984    32 H    0.977
                             8 C    0.976
    11   7 N    3.333 --    12 C    1.242     8 C    0.921    35 H    0.894
                            13 O    0.175
    12   6 C    3.916 --    13 O    1.601    11 N    1.242    14 C    0.989
    13   8 O    1.917 --    12 C    1.601    11 N    0.175
    14   6 C    3.875 --    15 N    1.609    19 O    1.065    12 C    0.989
    15   7 N    3.018 --    14 C    1.609    16 N    1.201
    16   7 N    2.981 --    17 C    1.603    15 N    1.201
    17   6 C    3.870 --    16 N    1.603    19 O    1.084    18 C    1.031
    18   6 C    3.986 --    17 C    1.031    38 H    0.982    36 H    0.965
                            37 H    0.961
    19   8 O    2.332 --    17 C    1.084    14 C    1.065
    20   7 N    3.465 --     7 C    1.165    21 C    1.130    39 H    0.883
                            22 O    0.133
    21   6 C    3.909 --    22 O    1.577    20 N    1.130    23 C    1.066
    22   8 O    1.904 --    21 C    1.577    20 N    0.133
    23   6 C    3.918 --     5 C    1.483    24 O    1.099    21 C    1.066
    24   8 O    2.195 --    23 C    1.099    25 C    0.895
    25   6 C    3.870 --    42 H    0.984    40 H    0.979    41 H    0.979
                            24 O    0.895
    26   1 H    1.007 --     1 C    0.979
    27   1 H    1.008 --     1 C    0.979
    28   1 H    1.011 --     1 C    0.986
    29   1 H    1.007 --     9 C    0.982
    30   1 H    1.004 --     9 C    0.985
    31   1 H    1.009 --     9 C    0.983
    32   1 H    1.009 --    10 C    0.977
    33   1 H    1.001 --    10 C    0.984
    34   1 H    1.001 --    10 C    0.985
    35   1 H    0.951 --    11 N    0.894
    36   1 H    0.996 --    18 C    0.965
    37   1 H    0.997 --    18 C    0.961
    38   1 H    0.998 --    18 C    0.982
    39   1 H    0.929 --    20 N    0.883
    40   1 H    1.014 --    25 C    0.979
    41   1 H    1.014 --    25 C    0.979
    42   1 H    1.012 --    25 C    0.984
 ---------------------------------------------------------------------------

Topologies differ in total number of bonds
Writing topology from bond orders to xtbtopo.mol

 dipole moment from electron density (au)
     X       Y       Z   
   0.6064  -1.4277   0.7500  total (Debye):    4.379

           -------------------------------------------------
          |                Geometry Summary                 |
           -------------------------------------------------

      molecular mass/u    :      351.3152409
   center of mass at/Å    :        0.0699337      -0.0417054      -0.0879034
  moments of inertia/u·Å² :        0.1166772E+04   0.5236921E+04   0.5784679E+04
rotational constants/cm⁻¹ :        0.1444809E-01   0.3218997E-02   0.2914187E-02

 * 38 selected distances

     #   Z          #   Z                                           value/Å
     1   6 C        2   8 O                                       1.4305808
     2   8 O        3   6 C                                       1.3308226
     3   6 C        4   8 O                                       1.2109480
     5   6 C        6   7 N                                       1.3714071
     6   7 N        7   6 C                                       1.2865811
     8   6 C        9   6 C                                       1.5313040
     8   6 C       10   6 C                                       1.5365606 (max)
     8   6 C       11   7 N                                       1.4673409
    11   7 N       12   6 C                                       1.3522983
    12   6 C       13   8 O                                       1.2169158
    14   6 C       15   7 N                                       1.2995122
    16   7 N       17   6 C                                       1.2993063
    17   6 C       18   6 C                                       1.4795057
    14   6 C       19   8 O                                       1.3450940
    17   6 C       19   8 O                                       1.3407005
     7   6 C       20   7 N                                       1.3636280
    20   7 N       21   6 C                                       1.3793072
    21   6 C       22   8 O                                       1.2224296
     5   6 C       23   6 C                                       1.3782103
    23   6 C       24   8 O                                       1.3392552
    24   8 O       25   6 C                                       1.4280603
     1   6 C       26   1 H                                       1.0928047
     1   6 C       27   1 H                                       1.0926694
     1   6 C       28   1 H                                       1.0879133
     9   6 C       29   1 H                                       1.0881640
     9   6 C       30   1 H                                       1.0889671
     9   6 C       31   1 H                                       1.0890067
    10   6 C       32   1 H                                       1.0881574
    10   6 C       33   1 H                                       1.0882444
    10   6 C       34   1 H                                       1.0888206
    11   7 N       35   1 H                                       1.0086054 (min)
    18   6 C       36   1 H                                       1.0899082
    18   6 C       37   1 H                                       1.0905347
    18   6 C       38   1 H                                       1.0873706
    20   7 N       39   1 H                                       1.0089015
    25   6 C       40   1 H                                       1.0921767
    25   6 C       41   1 H                                       1.0921083
    25   6 C       42   1 H                                       1.0907710

 * 5 distinct bonds (by element types)

   Z      Z             #   av. dist./Å        max./Å        min./Å
   1 H    6 C          15     1.0898412     1.0928047     1.0873706
   6 C    6 C           4     1.4813952     1.5365606     1.3782103
   1 H    7 N           2     1.0087535     1.0089015     1.0086054
   6 C    7 N           8     1.3524226     1.4673409     1.2865811
   6 C    8 O           9     1.3183119     1.4305808     1.2109480


optimized geometry written to: xtbopt.xyz


           -------------------------------------------------
          | TOTAL ENERGY              -83.017626042489 Eh   |
          | GRADIENT NORM               0.000621968154 Eh/α |
          | HOMO-LUMO GAP               2.771234369279 eV   |
           -------------------------------------------------

------------------------------------------------------------------------
 * finished run on 2023/06/21 at 17:23:44.684     
------------------------------------------------------------------------
 total:
 * wall-time:     0 d,  0 h,  0 min,  2.709 sec
 *  cpu-time:     0 d,  0 h,  0 min,  2.673 sec
 * ratio c/w:     0.987 speedup
 SCF:
 * wall-time:     0 d,  0 h,  0 min,  0.131 sec
 *  cpu-time:     0 d,  0 h,  0 min,  0.131 sec
 * ratio c/w:     0.999 speedup
 ANC optimizer:
 * wall-time:     0 d,  0 h,  0 min,  2.511 sec
 *  cpu-time:     0 d,  0 h,  0 min,  2.504 sec
 * ratio c/w:     0.997 speedup

