42
 energy: -83.583493745523 gnorm: 0.000573764916 xtb: 6.5.1 (579679a)
C           -5.44533875564865        1.28810440037465        1.70598181514336
O           -5.15265160538029        0.19476215824360        0.83779373828100
C           -3.92978555405236        0.23347185209308        0.19223520729317
O           -3.96177924663762        0.87174744417135       -1.05466379960613
C           -4.87808694029808        0.33779034090050       -1.99514898530875
C           -2.74912024216711       -0.29374825669124        0.67969651028700
N           -1.66924267123957       -0.25482682112850       -0.20686976906991
C           -0.54241521409277       -0.78051949957017        0.13821636581127
C            0.62620463014152       -0.78835030365568       -0.83419278294115
C            0.70155820414109       -2.18202622847427       -1.48004409657676
C            0.41507021858170        0.29185283746771       -1.90456555387091
N            1.84110672801099       -0.53231305757325       -0.05408022413907
C            3.07920278466359       -0.36057684370576       -0.69160355335121
O            3.33308389366409       -0.81209185154368       -1.82849568571689
C            4.00381037513395        0.33252933303192        0.14803789481613
N            3.74279878443851        0.85276161897927        1.35241412118903
N            4.90590044364699        1.42846296973776        1.78602097401887
C            5.79383519264811        1.24574896385745        0.86471612309780
C            7.20958151745758        1.69105367646045        0.88441262558208
O            5.31821817818684        0.56651139714358       -0.20660219227800
N           -0.35562395597771       -1.39456831453665        1.33782477995591
C           -1.32969766880209       -1.44426954355090        2.34892468808742
O           -1.00857250959152       -2.00531766364625        3.42953557422154
C           -2.60369145868463       -0.84213805155551        2.02529811660556
O           -3.54318494692581       -0.78494978208358        2.89184541029541
H           -6.47873093935596        1.16739306893624        2.03555675043062
H           -4.78285934135371        1.28183067729314        2.58059848993895
H           -5.34653436266397        2.24712379803807        1.18343803446263
H           -4.58652135467949       -0.67355222120469       -2.31042401680345
H           -5.89520313312965        0.29994812016107       -1.58630715554278
H           -4.87117789328476        0.99696905334747       -2.86478261360258
H           -0.25055382651764       -2.41392862275022       -1.95700834418385
H            0.90643195157496       -2.93288429113310       -0.71741138277189
H            1.48861055729325       -2.21942607350603       -2.23101291727052
H            0.41419094957597        1.27972065662339       -1.44385666911556
H           -0.54789951401392        0.13477062487731       -2.39037872969066
H            1.20433546074257        0.24734437238751       -2.65309956082854
H            1.70412668923213        0.12654345364789        0.70651947197139
H            7.41319609405591        2.21565395564290        1.81484739592365
H            7.87856835817227        0.83425776380757        0.80087896729559
H            7.41066737687589        2.35684122579839        0.04504887345914
H            0.53817374625536       -1.80770733671254        1.55227110449652
