      -----------------------------------------------------------      
     |                   =====================                   |     
     |                           x T B                           |     
     |                   =====================                   |     
     |                         S. Grimme                         |     
     |          Mulliken Center for Theoretical Chemistry        |     
     |                    University of Bonn                     |     
      -----------------------------------------------------------      

   * xtb version 6.5.1 (579679a) compiled by 'ehlert@majestix' on 2022-07-11

   xtb is free software: you can redistribute it and/or modify it under
   the terms of the GNU Lesser General Public License as published by
   the Free Software Foundation, either version 3 of the License, or
   (at your option) any later version.
   
   xtb is distributed in the hope that it will be useful,
   but WITHOUT ANY WARRANTY; without even the implied warranty of
   MERCHANTABILITY or FITNESS FOR A PARTICULAR PURPOSE.  See the
   GNU Lesser General Public License for more details.
   
   Cite this work as:
   * C. Bannwarth, E. Caldeweyher, S. Ehlert, A. Hansen, P. Pracht,
     J. Seibert, S. Spicher, S. Grimme, WIREs Comput. Mol. Sci., 2020, 11,
     e01493. DOI: 10.1002/wcms.1493
   
   for GFN2-xTB:
   * C. Bannwarth, S. Ehlert and S. Grimme., J. Chem. Theory Comput., 2019,
     15, 1652-1671. DOI: 10.1021/acs.jctc.8b01176
   for GFN1-xTB:
   * S. Grimme, C. Bannwarth, P. Shushkov, J. Chem. Theory Comput., 2017,
     13, 1989-2009. DOI: 10.1021/acs.jctc.7b00118
   for GFN0-xTB:
   * P. Pracht, E. Caldeweyher, S. Ehlert, S. Grimme, ChemRxiv, 2019, preprint.
     DOI: 10.26434/chemrxiv.8326202.v1
   for GFN-FF:
   * S. Spicher and S. Grimme, Angew. Chem. Int. Ed., 2020, 59, 15665-15673.
     DOI: 10.1002/anie.202004239
   
   for ALPB and GBSA implicit solvation:
   * S. Ehlert, M. Stahn, S. Spicher, S. Grimme, J. Chem. Theory Comput.,
     2021, 17, 4250-4261. DOI: 10.1021/acs.jctc.1c00471
   
   for DFT-D4:
   * E. Caldeweyher, C. Bannwarth and S. Grimme, J. Chem. Phys., 2017,
     147, 034112. DOI: 10.1063/1.4993215
   * E. Caldeweyher, S. Ehlert, A. Hansen, H. Neugebauer, S. Spicher,
     C. Bannwarth and S. Grimme, J. Chem. Phys., 2019, 150, 154122.
     DOI: 10.1063/1.5090222
   * E. Caldeweyher, J.-M. Mewes, S. Ehlert and S. Grimme, Phys. Chem. Chem. Phys.
     2020, 22, 8499-8512. DOI: 10.1039/D0CP00502A
   
   for sTDA-xTB:
   * S. Grimme and C. Bannwarth, J. Chem. Phys., 2016, 145, 054103.
     DOI: 10.1063/1.4959605
   
   in the mass-spec context:
   * V. Asgeirsson, C. Bauer and S. Grimme, Chem. Sci., 2017, 8, 4879.
     DOI: 10.1039/c7sc00601b
   * J. Koopman and S. Grimme, ACS Omega 2019, 4, 12, 15120-15133.
     DOI: 10.1021/acsomega.9b02011
   
   for metadynamics refer to:
   * S. Grimme, J. Chem. Theory Comput., 2019, 155, 2847-2862
     DOI: 10.1021/acs.jctc.9b00143
   
   for SPH calculations refer to:
   * S. Spicher and S. Grimme, J. Chem. Theory Comput., 2021, 17, 1701-1714
     DOI: 10.1021/acs.jctc.0c01306
   
   with help from (in alphabetical order)
   P. Atkinson, C. Bannwarth, F. Bohle, G. Brandenburg, E. Caldeweyher
   M. Checinski, S. Dohm, S. Ehlert, S. Ehrlich, I. Gerasimov, C. Hölzer
   A. Katbashev, J. Koopman, C. Lavigne, S. Lehtola, F. März, M. Müller,
   F. Musil, H. Neugebauer, J. Pisarek, C. Plett, P. Pracht, F. Pultar,
   J. Seibert, P. Shushkov, S. Spicher, M. Stahn, M. Steiner, T. Strunk,
   J. Stückrath, T. Rose, and J. Unsleber
   
 * started run on 2023/06/21 at 17:07:45.231     

           -------------------------------------------------
          |                Calculation Setup                |
           -------------------------------------------------

          program call               : /lustre/hpc/kemi/ree/PhD/git/ReactivityQM/dep/xtb-6.5.1/bin/xtb --gfn 1 /lustre/hpc/kemi/ree/PhD/git/ReactivityQM/calculations/R02oxygendeprot/reac01prodE06/conf13/R02oxygendeprot_reac01prodE06_conf13_gfn1.xyz --opt --vfukui --chrg -2 --uhf 0 --alpb DMSO
          hostname                   : node070
          coordinate file            : /lustre/hpc/kemi/ree/PhD/git/ReactivityQM/calculations/R02oxygendeprot/reac01prodE06/conf13/R02oxygendeprot_reac01prodE06_conf13_gfn1.xyz
          omp threads                :                     1

   ID    Z sym.   atoms
    1    6 C      1, 3, 5, 6, 8, 11-15, 17, 19, 22, 23
    2    8 O      2, 4, 7, 9, 18, 24
    3    7 N      10, 16, 20, 21, 25
    4    1 H      26-42

           -------------------------------------------------
          |                 G F N 1 - x T B                 |
           -------------------------------------------------

        Reference                      10.1021/acs.jctc.7b00118
      * Hamiltonian:
        H0-scaling (s, p, d)           1.850000    2.250000    2.000000
        zeta-weighting                 0.000000
      * Dispersion:
        s8                             2.400000
        a1                             0.630000
        a2                             5.000000
        s9                             0.000000
      * Repulsion:
        kExp                           1.500000
        rExp                           1.000000
      * Coulomb:
        alpha                          2.000000
        third order                    atomic
        anisotropic                    false
      * Halogen bond correction:
        rad-scale                      1.300000
        damping                        0.440000

      * Solvation model:               ALPB
        Solvent                        DMSO
        Parameter file                 internal GFN1-xTB/ALPB
        Dielectric constant                4.6680E+01
        Reference state                gsolv [1 M gas/solution]
        Free energy shift                  7.6243E-03 Eh       4.7843E+00 kcal/mol
        Temperature                        2.9815E+02 K
        Density                            1.1000E+00 kg/L
        Solvent mass                       7.8130E+01 g/mol
        Interaction kernel             P16
        Born radius scaling (c1)           1.7672E+00
        Born radii integrator          GBOBC
        Born offset                        0.0000E+00 a0       0.0000E+00 AA
        H-bond correction              true
        Ion screening                  false
        Surface tension                    1.0000E-05 Eh       1.5569E+01 dyn/cm
        Grid points                               230 per atom

          ...................................................
          :                      SETUP                      :
          :.................................................:
          :  # basis functions                 134          :
          :  # atomic orbitals                 134          :
          :  # shells                           84          :
          :  # electrons                       136          :
          :  # halogen bonds                     0          :
          :  max. iterations                   250          :
          :  Hamiltonian                  GFN1-xTB          :
          :  restarted?                      false          :
          :  GBSA solvation                   true          :
          :  PC potential                    false          :
          :  electronic temp.          300.0000000     K    :
          :  accuracy                    1.0000000          :
          :  -> integral cutoff          0.2500000E+02      :
          :  -> integral neglect         0.1000000E-07      :
          :  -> SCF convergence          0.1000000E-05 Eh   :
          :  -> wf. convergence          0.2000000E-04 e    :
          :  Broyden damping             0.4000000          :
          ...................................................

 iter      E             dE          RMSdq      gap      omega  full diag
   1    -83.9716875 -0.839717E+02  0.867E+00    1.47       0.0  T
   2    -84.0242238 -0.525362E-01  0.544E+00    0.39       1.0  T
   3    -84.0322451 -0.802131E-02  0.307E+00    0.23       1.0  T
   4    -84.2510818 -0.218837E+00  0.119E+00    1.10       1.0  T
   5    -84.2685190 -0.174372E-01  0.848E-01    1.03       1.0  T
   6    -84.3157606 -0.472416E-01  0.358E-01    0.07       1.0  T
   7    -84.2971927  0.185678E-01  0.527E-01    0.35       1.0  T
   8    -84.1032906  0.193902E+00  0.131E+00    0.19       1.0  T
   9    -84.3024778 -0.199187E+00  0.458E-01    0.23       1.0  T
  10    -84.3204460 -0.179682E-01  0.236E-01    0.12       1.0  T
  11    -84.3274105 -0.696449E-02  0.144E-02    0.08       1.1  T
  12    -84.3273827  0.278080E-04  0.196E-02    0.08       1.0  T
  13    -84.3273161  0.665582E-04  0.302E-02    0.09       1.0  T
  14    -84.3273877 -0.715725E-04  0.188E-02    0.08       1.0  T
  15    -84.3274334 -0.456878E-04  0.123E-03    0.08      12.6  T
  16    -84.3274332  0.162000E-06  0.163E-03    0.08       9.4  T
  17    -84.3274336 -0.336254E-06  0.309E-04    0.08      50.0  T
  18    -84.3274336 -0.316172E-08  0.264E-04    0.08      58.4  T
  19    -84.3274336 -0.907514E-08  0.100E-05    0.08    1538.4  T
  20    -84.3274336  0.110134E-10  0.135E-05    0.08    1141.3  T

   *** convergence criteria satisfied after 20 iterations ***

         #    Occupation            Energy/Eh            Energy/eV
      -------------------------------------------------------------
         1        2.0000           -0.8112361             -22.0749
       ...           ...                  ...                  ...
        62        2.0000           -0.3980646             -10.8319
        63        2.0000           -0.3954211             -10.7600
        64        2.0000           -0.3865085             -10.5174
        65        2.0000           -0.3789682             -10.3122
        66        2.0000           -0.3628721              -9.8743
        67        2.0000           -0.3288009              -8.9471
        68        1.6614           -0.2686812              -7.3112 (HOMO)
        69        0.3386           -0.2656591              -7.2290 (LUMO)
        70                         -0.2340429              -6.3686
        71                         -0.2171573              -5.9092
        72                         -0.1613869              -4.3916
        73                         -0.1502745              -4.0892
       ...                                ...                  ...
       134                          0.8003390              21.7783
      -------------------------------------------------------------
                  HL-Gap            0.0030221 Eh            0.0822 eV
             Fermi-level           -0.2671701 Eh           -7.2701 eV

 SCC (total)                   0 d,  0 h,  0 min,  0.212 sec
 SCC setup                      ...        0 min,  0.002 sec (  0.901%)
 Dispersion                     ...        0 min,  0.000 sec (  0.141%)
 classical contributions        ...        0 min,  0.000 sec (  0.049%)
 integral evaluation            ...        0 min,  0.028 sec ( 13.452%)
 iterations                     ...        0 min,  0.115 sec ( 54.066%)
 molecular gradient             ...        0 min,  0.065 sec ( 30.636%)
 printout                       ...        0 min,  0.002 sec (  0.738%)

         :::::::::::::::::::::::::::::::::::::::::::::::::::::
         ::                     SUMMARY                     ::
         :::::::::::::::::::::::::::::::::::::::::::::::::::::
         :: total energy             -83.605154162299 Eh    ::
         :: total w/o Gsasa/hb       -83.586854314130 Eh    ::
         :: gradient norm              0.130398085212 Eh/a0 ::
         :: HOMO-LUMO gap              0.082236855019 eV    ::
         ::.................................................::
         :: SCC energy               -84.327433588752 Eh    ::
         :: -> electrostatic           0.694276308755 Eh    ::
         :: -> Gsolv                  -0.277594448442 Eh    ::
         ::    -> Gelec               -0.259294600273 Eh    ::
         ::    -> Gsasa               -0.023719709872 Eh    ::
         ::    -> Ghb                 -0.002204417302 Eh    ::
         ::    -> Gshift               0.007624279005 Eh    ::
         :: repulsion energy           0.749315487954 Eh    ::
         :: dispersion energy         -0.027036061500 Eh    ::
         :: halogen bond corr.         0.000000000000 Eh    ::
         :: add. restraining           0.000000000000 Eh    ::
         :: total charge              -2.000000000000 e     ::
         :::::::::::::::::::::::::::::::::::::::::::::::::::::

      ----------------------------------------------------------- 
     |                   =====================                   |
     |                        A N C O P T                        |
     |                   =====================                   |
     |               Approximate Normal Coordinate               |
     |                Rational Function Optimizer                |
      ----------------------------------------------------------- 

          ...................................................
          :                      SETUP                      :
          :.................................................:
          :   optimization level            normal          :
          :   max. optcycles                   200          :
          :   ANC micro-cycles                  20          :
          :   degrees of freedom               120          :
          :.................................................:
          :   RF solver                   davidson          :
          :   write xtbopt.log                true          :
          :   linear?                        false          :
          :   energy convergence         0.5000000E-05 Eh   :
          :   grad. convergence          0.1000000E-02 Eh/α :
          :   maximium RF displ.         1.0000000          :
          :   Hlow (freq-cutoff)         0.1000000E-01      :
          :   Hmax (freq-cutoff)         5.0000000          :
          :   S6 in model hess.         20.0000000          :
          ...................................................

generating ANC from model Hessian ...
Using Lindh-Hessian (1995)
 Shifting diagonal of input Hessian by   9.832648739860027E-003
 Lowest  eigenvalues of input Hessian
    0.000000    0.000000    0.000000    0.000000    0.000000    0.000000
    0.010000    0.010113    0.010710    0.011664    0.011914    0.012642
    0.012855    0.013859    0.014681    0.015454    0.015812    0.016744
 Highest eigenvalues
    1.916271    2.084684    2.161179    2.232189    2.300715    2.311580
 

........................................................................
.............................. CYCLE    1 ..............................
........................................................................
   1    -84.3274336 -0.843274E+02  0.307E-07    0.08       0.0  T
   2    -84.3274336  0.196110E-11  0.403E-06    0.08    3828.8  T
   3    -84.3274336 -0.196110E-11  0.392E-07    0.08   39330.7  T
     SCC iter.                  ...        0 min,  0.018 sec
     gradient                   ...        0 min,  0.064 sec
 * total energy  :   -83.6051542 Eh     change       -0.2314948E-10 Eh
   gradient norm :     0.1303984 Eh/α   predicted     0.0000000E+00 (-100.00%)
   displ. norm   :     0.2781694 α      lambda       -0.1650694E-01
   maximum displ.:     0.0943762 α      in ANC's #57, #26, #20, ...

........................................................................
.............................. CYCLE    2 ..............................
........................................................................
   1    -84.3153256 -0.843153E+02  0.339E-01    0.17       0.0  T
   2    -84.0398835  0.275442E+00  0.163E+00    0.72       1.0  T
   3    -84.2775705 -0.237687E+00  0.649E-01    0.06       1.0  T
   4    -84.3094070 -0.318365E-01  0.405E-01    0.21       1.0  T
   5    -84.3297580 -0.203510E-01  0.332E-02    0.09       1.0  T
   6    -84.3297451  0.128502E-04  0.394E-02    0.08       1.0  T
   7    -84.3299105 -0.165409E-03  0.387E-03    0.09       4.0  T
   8    -84.3298636  0.468897E-04  0.197E-02    0.09       1.0  T
   9    -84.3298695 -0.586504E-05  0.183E-02    0.09       1.0  T
  10    -84.3299071 -0.375522E-04  0.617E-03    0.09       2.5  T
  11    -84.3299116 -0.454725E-05  0.132E-03    0.09      11.7  T
  12    -84.3299118 -0.213029E-06  0.195E-04    0.09      79.2  T
  13    -84.3299118 -0.430221E-08  0.682E-05    0.09     226.3  T
     SCC iter.                  ...        0 min,  0.046 sec
     gradient                   ...        0 min,  0.035 sec
 * total energy  :   -83.6168975 Eh     change       -0.1174337E-01 Eh
   gradient norm :     0.0588404 Eh/α   predicted    -0.8901260E-02 ( -24.20%)
   displ. norm   :     0.3045288 α      lambda       -0.6795687E-02
   maximum displ.:     0.0977604 α      in ANC's #10, #5, #57, ...

........................................................................
.............................. CYCLE    3 ..............................
........................................................................
   1    -84.3302094 -0.843302E+02  0.244E-01    0.14       0.0  T
   2    -84.0476499  0.282560E+00  0.162E+00    0.49       1.0  T
   3    -84.3301839 -0.282534E+00  0.246E-01    0.07       1.0  T
   4    -84.3341492 -0.396532E-02  0.155E-01    0.12       1.0  T
   5    -84.3356061 -0.145692E-02  0.116E-01    0.08       1.0  T
   6    -84.3367923 -0.118624E-02  0.533E-02    0.10       1.0  T
   7    -84.3371450 -0.352614E-03  0.192E-03    0.09       8.0  T
   8    -84.3371451 -0.119241E-06  0.954E-04    0.09      16.2  T
   9    -84.3371447  0.400742E-06  0.200E-03    0.10       7.7  T
  10    -84.3371451 -0.472980E-06  0.267E-04    0.09      57.7  T
  11    -84.3371451  0.755037E-09  0.269E-04    0.09      57.4  T
  12    -84.3371451 -0.797741E-08  0.721E-05    0.09     214.1  T
  13    -84.3371451 -0.420982E-09  0.392E-05    0.09     394.1  T
     SCC iter.                  ...        0 min,  0.061 sec
     gradient                   ...        0 min,  0.062 sec
 * total energy  :   -83.6209127 Eh     change       -0.4015206E-02 Eh
   gradient norm :     0.0187543 Eh/α   predicted    -0.3715181E-02 (  -7.47%)
   displ. norm   :     0.2284496 α      lambda       -0.1108940E-02
   maximum displ.:     0.1182997 α      in ANC's #5, #10, #6, ...

........................................................................
.............................. CYCLE    4 ..............................
........................................................................
   1    -84.3401271 -0.843401E+02  0.723E-02    0.11       0.0  T
   2    -84.1957183  0.144409E+00  0.111E+00    0.10       1.0  T
   3    -84.3402747 -0.144556E+00  0.579E-02    0.10       1.0  T
   4    -84.3406604 -0.385718E-03  0.632E-03    0.10       2.4  T
   5    -84.3406561  0.435925E-05  0.761E-03    0.10       2.0  T
   6    -84.3406617 -0.565345E-05  0.196E-03    0.10       7.9  T
   7    -84.3406616  0.125635E-06  0.176E-03    0.10       8.8  T
   8    -84.3406620 -0.354164E-06  0.343E-04    0.10      45.0  T
   9    -84.3406620 -0.133753E-07  0.448E-05    0.10     344.6  T
  10    -84.3406620 -0.217653E-09  0.596E-06    0.10    2588.2  T
     SCC iter.                  ...        0 min,  0.054 sec
     gradient                   ...        0 min,  0.060 sec
 * total energy  :   -83.6217532 Eh     change       -0.8404190E-03 Eh
   gradient norm :     0.0124245 Eh/α   predicted    -0.5834182E-03 ( -30.58%)
   displ. norm   :     0.3864789 α      lambda       -0.1123563E-02
   maximum displ.:     0.2166675 α      in ANC's #5, #10, #6, ...

........................................................................
.............................. CYCLE    5 ..............................
........................................................................
   1    -84.3428981 -0.843429E+02  0.596E-02    0.11       0.0  T
   2    -84.2730763  0.698218E-01  0.772E-01    0.08       1.0  T
   3    -84.3423043 -0.692280E-01  0.888E-02    0.11       1.0  T
   4    -84.3431510 -0.846688E-03  0.257E-02    0.11       1.0  T
   5    -84.3431437  0.734435E-05  0.255E-02    0.11       1.0  T
   6    -84.3432138 -0.701443E-04  0.506E-03    0.10       3.0  T
   7    -84.3432165 -0.271775E-05  0.430E-04    0.10      35.9  T
   8    -84.3432165 -0.175555E-07  0.184E-04    0.10      83.7  T
   9    -84.3432165 -0.226834E-09  0.167E-04    0.10      92.6  T
     SCC iter.                  ...        0 min,  0.048 sec
     gradient                   ...        0 min,  0.059 sec
 * total energy  :   -83.6225506 Eh     change       -0.7974090E-03 Eh
   gradient norm :     0.0107025 Eh/α   predicted    -0.6457000E-03 ( -19.03%)
   displ. norm   :     0.3801494 α      lambda       -0.6817686E-03
   maximum displ.:     0.2217566 α      in ANC's #5, #6, #10, ...

........................................................................
.............................. CYCLE    6 ..............................
........................................................................
   1    -84.3434763 -0.843435E+02  0.469E-02    0.11       0.0  T
   2    -84.2940007  0.494756E-01  0.649E-01    0.08       1.0  T
   3    -84.3431721 -0.491714E-01  0.664E-02    0.12       1.0  T
   4    -84.3435920 -0.419930E-03  0.293E-02    0.11       1.0  T
   5    -84.3435961 -0.412116E-05  0.275E-02    0.11       1.0  T
   6    -84.3436708 -0.747103E-04  0.893E-03    0.11       1.7  T
   7    -84.3436793 -0.850596E-05  0.171E-03    0.11       9.0  T
   8    -84.3436796 -0.302914E-06  0.501E-04    0.11      30.8  T
   9    -84.3436797 -0.276742E-07  0.821E-05    0.11     188.0  T
  10    -84.3436797 -0.754156E-09  0.225E-05    0.11     684.4  T
     SCC iter.                  ...        0 min,  0.052 sec
     gradient                   ...        0 min,  0.060 sec
 * total energy  :   -83.6230560 Eh     change       -0.5054160E-03 Eh
   gradient norm :     0.0116389 Eh/α   predicted    -0.3901836E-03 ( -22.80%)
   displ. norm   :     0.3777706 α      lambda       -0.5492758E-03
   maximum displ.:     0.2132923 α      in ANC's #5, #6, #10, ...

........................................................................
.............................. CYCLE    7 ..............................
........................................................................
   1    -84.3442916 -0.843443E+02  0.995E-03    0.11       0.0  T
   2    -84.3434485  0.843100E-03  0.872E-02    0.13       1.0  T
   3    -84.3442390 -0.790497E-03  0.247E-02    0.12       1.0  T
   4    -84.3442481 -0.904319E-05  0.220E-02    0.12       1.0  T
   5    -84.3442987 -0.506327E-04  0.223E-03    0.11       6.9  T
   6    -84.3442992 -0.487670E-06  0.615E-04    0.11      25.1  T
   7    -84.3442992 -0.771108E-08  0.413E-04    0.11      37.3  T
   8    -84.3442992 -0.187858E-07  0.773E-05    0.11     199.6  T
   9    -84.3442992 -0.520416E-09  0.211E-05    0.11     731.2  T
     SCC iter.                  ...        0 min,  0.047 sec
     gradient                   ...        0 min,  0.061 sec
 * total energy  :   -83.6234714 Eh     change       -0.4154496E-03 Eh
   gradient norm :     0.0103710 Eh/α   predicted    -0.3138330E-03 ( -24.46%)
   displ. norm   :     0.3775742 α      lambda       -0.4551972E-03
   maximum displ.:     0.2059499 α      in ANC's #5, #6, #10, ...

........................................................................
.............................. CYCLE    8 ..............................
........................................................................
   1    -84.3447128 -0.843447E+02  0.216E-02    0.12       0.0  T
   2    -84.3398375  0.487535E-02  0.208E-01    0.15       1.0  T
   3    -84.3447203 -0.488285E-02  0.222E-02    0.12       1.0  T
   4    -84.3447246 -0.430958E-05  0.198E-02    0.12       1.0  T
   5    -84.3447651 -0.404140E-04  0.462E-03    0.12       3.3  T
   6    -84.3447650  0.493209E-07  0.367E-03    0.12       4.2  T
   7    -84.3447664 -0.142251E-05  0.428E-04    0.12      36.1  T
   8    -84.3447665 -0.187887E-07  0.102E-04    0.12     152.0  T
   9    -84.3447665 -0.975348E-09  0.454E-05    0.12     339.5  T
     SCC iter.                  ...        0 min,  0.048 sec
     gradient                   ...        0 min,  0.061 sec
 * total energy  :   -83.6238001 Eh     change       -0.3286332E-03 Eh
   gradient norm :     0.0083637 Eh/α   predicted    -0.2600487E-03 ( -20.87%)
   displ. norm   :     0.3212261 α      lambda       -0.2930973E-03
   maximum displ.:     0.1551657 α      in ANC's #5, #6, #9, ...

........................................................................
.............................. CYCLE    9 ..............................
........................................................................
   1    -84.3452610 -0.843453E+02  0.520E-02    0.12       0.0  T
   2    -84.3301451  0.151159E-01  0.371E-01    0.22       1.0  T
   3    -84.3454454 -0.153003E-01  0.349E-02    0.13       1.0  T
   4    -84.3455709 -0.125568E-03  0.654E-03    0.13       2.4  T
   5    -84.3455714 -0.456546E-06  0.533E-03    0.13       2.9  T
   6    -84.3455508  0.205588E-04  0.143E-02    0.13       1.1  T
   7    -84.3455745 -0.236941E-04  0.175E-03    0.13       8.8  T
   8    -84.3455749 -0.351272E-06  0.235E-04    0.13      65.6  T
   9    -84.3455749 -0.632819E-08  0.230E-05    0.13     669.7  T
  10    -84.3455749 -0.430589E-10  0.853E-06    0.13    1809.7  T
     SCC iter.                  ...        0 min,  0.053 sec
     gradient                   ...        0 min,  0.060 sec
 * total energy  :   -83.6240035 Eh     change       -0.2034239E-03 Eh
   gradient norm :     0.0069642 Eh/α   predicted    -0.1616727E-03 ( -20.52%)
   displ. norm   :     0.2440667 α      lambda       -0.1754543E-03
   maximum displ.:     0.0967485 α      in ANC's #9, #3, #5, ...

........................................................................
.............................. CYCLE   10 ..............................
........................................................................
   1    -84.3458515 -0.843459E+02  0.375E-02    0.13       0.0  T
   2    -84.3357451  0.101063E-01  0.300E-01    0.20       1.0  T
   3    -84.3459943 -0.102491E-01  0.111E-02    0.13       1.4  T
   4    -84.3460045 -0.102166E-04  0.594E-03    0.13       2.6  T
   5    -84.3460061 -0.166927E-05  0.433E-03    0.13       3.6  T
   6    -84.3460081 -0.192407E-05  0.114E-03    0.13      13.5  T
   7    -84.3460081 -0.609217E-07  0.877E-04    0.13      17.6  T
   8    -84.3460082 -0.909873E-07  0.700E-05    0.13     220.3  T
   9    -84.3460082 -0.542173E-09  0.942E-06    0.13    1638.4  T
     SCC iter.                  ...        0 min,  0.048 sec
     gradient                   ...        0 min,  0.061 sec
 * total energy  :   -83.6241280 Eh     change       -0.1244749E-03 Eh
   gradient norm :     0.0056872 Eh/α   predicted    -0.9296374E-04 ( -25.32%)
   displ. norm   :     0.2084037 α      lambda       -0.1415533E-03
   maximum displ.:     0.0906590 α      in ANC's #3, #4, #9, ...

........................................................................
.............................. CYCLE   11 ..............................
........................................................................
   1    -84.3470788 -0.843471E+02  0.483E-02    0.13       0.0  T
   2    -84.3341292  0.129495E-01  0.342E-01    0.22       1.0  T
   3    -84.3473163 -0.131870E-01  0.137E-02    0.14       1.1  T
   4    -84.3473335 -0.172132E-04  0.444E-03    0.14       3.5  T
   5    -84.3473326  0.879044E-06  0.522E-03    0.14       3.0  T
   6    -84.3473329 -0.250985E-06  0.484E-03    0.14       3.2  T
   7    -84.3473356 -0.277523E-05  0.256E-04    0.14      60.2  T
   8    -84.3473356 -0.737001E-08  0.491E-05    0.14     314.3  T
   9    -84.3473356 -0.396483E-11  0.468E-05    0.14     329.5  T
     SCC iter.                  ...        0 min,  0.047 sec
     gradient                   ...        0 min,  0.061 sec
 * total energy  :   -83.6242265 Eh     change       -0.9853548E-04 Eh
   gradient norm :     0.0053774 Eh/α   predicted    -0.7388965E-04 ( -25.01%)
   displ. norm   :     0.2098815 α      lambda       -0.1193636E-03
   maximum displ.:     0.1064289 α      in ANC's #4, #3, #9, ...

........................................................................
.............................. CYCLE   12 ..............................
........................................................................
   1    -84.3467035 -0.843467E+02  0.148E-02    0.14       0.0  T
   2    -84.3450898  0.161370E-02  0.119E-01    0.16       1.0  T
   3    -84.3467005 -0.161067E-02  0.136E-02    0.14       1.1  T
   4    -84.3467215 -0.210343E-04  0.395E-03    0.14       3.9  T
   5    -84.3467231 -0.153761E-05  0.109E-03    0.14      14.1  T
   6    -84.3467231 -0.460252E-07  0.385E-04    0.14      40.0  T
   7    -84.3467231 -0.973296E-08  0.768E-05    0.14     200.8  T
   8    -84.3467231 -0.401613E-09  0.232E-05    0.14     664.3  T
     SCC iter.                  ...        0 min,  0.043 sec
     gradient                   ...        0 min,  0.060 sec
 * total energy  :   -83.6243118 Eh     change       -0.8529716E-04 Eh
   gradient norm :     0.0056783 Eh/α   predicted    -0.6231483E-04 ( -26.94%)
   displ. norm   :     0.2001616 α      lambda       -0.1175742E-03
   maximum displ.:     0.1150623 α      in ANC's #4, #3, #5, ...

........................................................................
.............................. CYCLE   13 ..............................
........................................................................
   1    -84.3478536 -0.843479E+02  0.298E-02    0.14       0.0  T
   2    -84.3409237  0.692989E-02  0.249E-01    0.19       1.0  T
   3    -84.3479407 -0.701701E-02  0.135E-02    0.15       1.1  T
   4    -84.3479390  0.167772E-05  0.129E-02    0.15       1.2  T
   5    -84.3479567 -0.176999E-04  0.168E-03    0.14       9.2  T
   6    -84.3479567  0.617396E-07  0.141E-03    0.14      10.9  T
   7    -84.3479568 -0.174431E-06  0.404E-04    0.14      38.1  T
   8    -84.3479569 -0.175969E-07  0.809E-05    0.14     190.8  T
   9    -84.3479569 -0.674092E-09  0.174E-05    0.14     885.7  T
     SCC iter.                  ...        0 min,  0.048 sec
     gradient                   ...        0 min,  0.059 sec
 * total energy  :   -83.6243936 Eh     change       -0.8178398E-04 Eh
   gradient norm :     0.0049958 Eh/α   predicted    -0.6114570E-04 ( -25.24%)
   displ. norm   :     0.2128646 α      lambda       -0.9257066E-04
   maximum displ.:     0.1143827 α      in ANC's #4, #3, #9, ...

........................................................................
.............................. CYCLE   14 ..............................
........................................................................
   1    -84.3464434 -0.843464E+02  0.131E-02    0.15       0.0  T
   2    -84.3450538  0.138957E-02  0.108E-01    0.14       1.0  T
   3    -84.3464273 -0.137345E-02  0.189E-02    0.15       1.0  T
   4    -84.3464425 -0.152689E-04  0.129E-02    0.15       1.2  T
   5    -84.3464539 -0.113637E-04  0.734E-03    0.15       2.1  T
   6    -84.3464594 -0.546880E-05  0.958E-04    0.15      16.1  T
   7    -84.3464594 -0.879865E-07  0.509E-05    0.15     303.1  T
   8    -84.3464594  0.135842E-09  0.516E-05    0.15     299.1  T
     SCC iter.                  ...        0 min,  0.042 sec
     gradient                   ...        0 min,  0.057 sec
 * total energy  :   -83.6244560 Eh     change       -0.6245423E-04 Eh
   gradient norm :     0.0044217 Eh/α   predicted    -0.4838398E-04 ( -22.53%)
   displ. norm   :     0.1738879 α      lambda       -0.8551661E-04
   maximum displ.:     0.0912777 α      in ANC's #4, #5, #3, ...

........................................................................
.............................. CYCLE   15 ..............................
........................................................................
   1    -84.3476830 -0.843477E+02  0.168E-02    0.15       0.0  T
   2    -84.3447329  0.295014E-02  0.162E-01    0.18       1.0  T
   3    -84.3476619 -0.292899E-02  0.237E-02    0.16       1.0  T
   4    -84.3477043 -0.423779E-04  0.135E-02    0.15       1.1  T
   5    -84.3477181 -0.138067E-04  0.643E-03    0.15       2.4  T
   6    -84.3477220 -0.391853E-05  0.116E-03    0.15      13.3  T
   7    -84.3477221 -0.112096E-06  0.352E-04    0.15      43.9  T
   8    -84.3477221 -0.135522E-07  0.208E-05    0.15     742.3  T
   9    -84.3477221  0.265885E-10  0.172E-05    0.15     896.4  T
     SCC iter.                  ...        0 min,  0.047 sec
     gradient                   ...        0 min,  0.060 sec
 * total energy  :   -83.6245144 Eh     change       -0.5836936E-04 Eh
   gradient norm :     0.0035675 Eh/α   predicted    -0.4405471E-04 ( -24.52%)
   displ. norm   :     0.2506280 α      lambda       -0.8328237E-04
   maximum displ.:     0.1145774 α      in ANC's #4, #3, #10, ...

........................................................................
.............................. CYCLE   16 ..............................
........................................................................
   1    -84.3469153 -0.843469E+02  0.799E-03    0.16       0.0  T
   2    -84.3467821  0.133182E-03  0.333E-02    0.16       1.0  T
   3    -84.3468550 -0.728577E-04  0.253E-02    0.16       1.0  T
   4    -84.3469088 -0.537990E-04  0.108E-02    0.16       1.4  T
   5    -84.3469186 -0.982994E-05  0.446E-03    0.16       3.5  T
   6    -84.3469205 -0.190528E-05  0.614E-04    0.16      25.1  T
   7    -84.3469205 -0.342280E-07  0.111E-04    0.16     139.0  T
   8    -84.3469205 -0.990653E-09  0.315E-05    0.16     490.6  T
     SCC iter.                  ...        0 min,  0.044 sec
     gradient                   ...        0 min,  0.061 sec
 * total energy  :   -83.6245777 Eh     change       -0.6330823E-04 Eh
   gradient norm :     0.0050039 Eh/α   predicted    -0.4425785E-04 ( -30.09%)
   displ. norm   :     0.3026695 α      lambda       -0.1334495E-03
   maximum displ.:     0.1322998 α      in ANC's #10, #4, #3, ...

........................................................................
.............................. CYCLE   17 ..............................
........................................................................
   1    -84.3473494 -0.843473E+02  0.119E-02    0.17       0.0  T
   2    -84.3463432  0.100619E-02  0.943E-02    0.18       1.0  T
   3    -84.3473570 -0.101381E-02  0.891E-03    0.17       1.7  T
   4    -84.3473607 -0.375263E-05  0.677E-03    0.17       2.3  T
   5    -84.3473634 -0.265907E-05  0.369E-03    0.17       4.2  T
   6    -84.3473647 -0.132105E-05  0.401E-04    0.17      38.5  T
   7    -84.3473647 -0.600174E-08  0.244E-04    0.17      63.1  T
   8    -84.3473647 -0.622182E-08  0.194E-05    0.17     797.2  T
   9    -84.3473647 -0.923706E-12  0.941E-06    0.17    1640.5  T
     SCC iter.                  ...        0 min,  0.050 sec
     gradient                   ...        0 min,  0.060 sec
 * total energy  :   -83.6246738 Eh     change       -0.9612608E-04 Eh
   gradient norm :     0.0060589 Eh/α   predicted    -0.7284183E-04 ( -24.22%)
   displ. norm   :     0.2593793 α      lambda       -0.1206678E-03
   maximum displ.:     0.1191912 α      in ANC's #10, #6, #3, ...

........................................................................
.............................. CYCLE   18 ..............................
........................................................................
   1    -84.3478656 -0.843479E+02  0.182E-02    0.18       0.0  T
   2    -84.3457038  0.216181E-02  0.138E-01    0.20       1.0  T
   3    -84.3479001 -0.219632E-02  0.399E-03    0.18       3.9  T
   4    -84.3479011 -0.998923E-06  0.193E-03    0.18       8.0  T
   5    -84.3479012 -0.119953E-06  0.115E-03    0.18      13.4  T
   6    -84.3479013 -0.658112E-07  0.277E-04    0.18      55.6  T
   7    -84.3479013 -0.181380E-08  0.190E-04    0.18      81.1  T
   8    -84.3479013 -0.386977E-08  0.293E-05    0.18     525.9  T
     SCC iter.                  ...        0 min,  0.044 sec
     gradient                   ...        0 min,  0.060 sec
 * total energy  :   -83.6247661 Eh     change       -0.9229747E-04 Eh
   gradient norm :     0.0052405 Eh/α   predicted    -0.6439480E-04 ( -30.23%)
   displ. norm   :     0.2668356 α      lambda       -0.1333591E-03
   maximum displ.:     0.1179769 α      in ANC's #10, #6, #2, ...

........................................................................
.............................. CYCLE   19 ..............................
........................................................................
   1    -84.3488978 -0.843489E+02  0.286E-02    0.18       0.0  T
   2    -84.3445130  0.438471E-02  0.199E-01    0.23       1.0  T
   3    -84.3489843 -0.447122E-02  0.590E-03    0.19       2.6  T
   4    -84.3489871 -0.288001E-05  0.251E-03    0.19       6.2  T
   5    -84.3489876 -0.456688E-06  0.116E-03    0.19      13.3  T
   6    -84.3489876 -0.335627E-07  0.423E-04    0.19      36.5  T
   7    -84.3489876 -0.957313E-08  0.250E-04    0.19      61.7  T
   8    -84.3489877 -0.511795E-08  0.134E-04    0.19     114.9  T
   9    -84.3489877 -0.191702E-08  0.331E-05    0.19     466.4  T
     SCC iter.                  ...        0 min,  0.049 sec
     gradient                   ...        0 min,  0.061 sec
 * total energy  :   -83.6248569 Eh     change       -0.9072934E-04 Eh
   gradient norm :     0.0038206 Eh/α   predicted    -0.7142966E-04 ( -21.27%)
   displ. norm   :     0.4458056 α      lambda       -0.1271214E-03
   maximum displ.:     0.1933063 α      in ANC's #10, #3, #9, ...

........................................................................
.............................. CYCLE   20 ..............................
........................................................................
   1    -84.3440169 -0.843440E+02  0.209E-02    0.20       0.0  T
   2    -84.3440136  0.331146E-05  0.199E-02    0.20       1.0  T
   3    -84.3439222  0.913391E-04  0.329E-02    0.20       1.0  T
   4    -84.3440309 -0.108715E-03  0.106E-02    0.20       1.5  T
   5    -84.3440426 -0.116654E-04  0.272E-03    0.20       5.7  T
   6    -84.3440429 -0.265767E-06  0.107E-03    0.20      14.4  T
   7    -84.3440430 -0.116573E-06  0.998E-05    0.20     154.7  T
   8    -84.3440430 -0.303714E-09  0.283E-05    0.20     545.1  T
     SCC iter.                  ...        0 min,  0.044 sec
     gradient                   ...        0 min,  0.060 sec
 * total energy  :   -83.6248596 Eh     change       -0.2742592E-05 Eh
   gradient norm :     0.0095477 Eh/α   predicted    -0.7619722E-04 (2678.29%)
   displ. norm   :     0.1319242 α      lambda       -0.2075327E-03
   maximum displ.:     0.0781969 α      in ANC's #4, #2, #15, ...
 * RMSD in coord.:     0.6158719 α      energy gain  -0.1970544E-01 Eh

generating ANC from model Hessian ...
Using Lindh-Hessian (1995)
 Shifting diagonal of input Hessian by   9.803227859375199E-003
 Lowest  eigenvalues of input Hessian
    0.000000    0.000000    0.000000    0.000000    0.000000    0.000000
    0.010000    0.010043    0.010509    0.011357    0.011905    0.012354
    0.012645    0.014025    0.014874    0.015512    0.015919    0.016559
 Highest eigenvalues
    2.003966    2.099283    2.144973    2.225511    2.291250    2.305470
 

........................................................................
.............................. CYCLE   21 ..............................
........................................................................
   1    -84.3497067 -0.843497E+02  0.501E-02    0.19       0.0  T
   2    -84.3398316  0.987511E-02  0.304E-01    0.28       1.0  T
   3    -84.3497748 -0.994325E-02  0.476E-02    0.21       1.0  T
   4    -84.3500240 -0.249111E-03  0.499E-03    0.20       3.1  T
   5    -84.3500190  0.496454E-05  0.770E-03    0.20       2.0  T
   6    -84.3500246 -0.560583E-05  0.371E-03    0.20       4.2  T
   7    -84.3500260 -0.139290E-05  0.767E-04    0.20      20.1  T
   8    -84.3500260 -0.639486E-07  0.500E-05    0.20     308.8  T
   9    -84.3500260  0.156089E-08  0.121E-04    0.20     127.0  T
     SCC iter.                  ...        0 min,  0.048 sec
     gradient                   ...        0 min,  0.061 sec
 * total energy  :   -83.6249637 Eh     change       -0.1041197E-03 Eh
   gradient norm :     0.0056127 Eh/α   predicted     0.0000000E+00 (-100.00%)
   displ. norm   :     0.0388221 α      lambda       -0.5624459E-04
   maximum displ.:     0.0228423 α      in ANC's #6, #25, #12, ...

........................................................................
.............................. CYCLE   22 ..............................
........................................................................
   1    -84.3495345 -0.843495E+02  0.767E-03    0.20       0.0  T
   2    -84.3492176  0.316895E-03  0.530E-02    0.21       1.0  T
   3    -84.3495400 -0.322360E-03  0.328E-03    0.20       4.7  T
   4    -84.3495403 -0.312037E-06  0.255E-03    0.20       6.0  T
   5    -84.3495404 -0.129886E-06  0.200E-03    0.20       7.7  T
   6    -84.3495408 -0.352714E-06  0.524E-04    0.20      29.4  T
   7    -84.3495408 -0.273762E-07  0.603E-05    0.20     255.9  T
   8    -84.3495408 -0.382471E-09  0.906E-06    0.20    1702.7  T
     SCC iter.                  ...        0 min,  0.042 sec
     gradient                   ...        0 min,  0.060 sec
 * total energy  :   -83.6250135 Eh     change       -0.4973275E-04 Eh
   gradient norm :     0.0024910 Eh/α   predicted    -0.3217775E-04 ( -35.30%)
   displ. norm   :     0.0933249 α      lambda       -0.7592609E-04
   maximum displ.:     0.0590456 α      in ANC's #6, #25, #8, ...

........................................................................
.............................. CYCLE   23 ..............................
........................................................................
   1    -84.3488890 -0.843489E+02  0.106E-02    0.20       0.0  T
   2    -84.3483125  0.576508E-03  0.717E-02    0.21       1.0  T
   3    -84.3488992 -0.586636E-03  0.526E-03    0.20       2.9  T
   4    -84.3488998 -0.663988E-06  0.446E-03    0.20       3.5  T
   5    -84.3489005 -0.619127E-06  0.333E-03    0.20       4.6  T
   6    -84.3489014 -0.954832E-06  0.103E-03    0.20      15.0  T
   7    -84.3489015 -0.106300E-06  0.364E-05    0.20     423.7  T
   8    -84.3489015 -0.485016E-10  0.130E-05    0.20    1190.2  T
     SCC iter.                  ...        0 min,  0.043 sec
     gradient                   ...        0 min,  0.061 sec
 * total energy  :   -83.6250628 Eh     change       -0.4938445E-04 Eh
   gradient norm :     0.0026445 Eh/α   predicted    -0.3829544E-04 ( -22.45%)
   displ. norm   :     0.0901882 α      lambda       -0.3811665E-04
   maximum displ.:     0.0617474 α      in ANC's #6, #25, #8, ...

........................................................................
.............................. CYCLE   24 ..............................
........................................................................
   1    -84.3487316 -0.843487E+02  0.563E-03    0.20       0.0  T
   2    -84.3485220  0.209652E-03  0.432E-02    0.21       1.0  T
   3    -84.3487341 -0.212153E-03  0.371E-03    0.20       4.2  T
   4    -84.3487349 -0.748169E-06  0.263E-03    0.20       5.9  T
   5    -84.3487351 -0.253391E-06  0.190E-03    0.20       8.1  T
   6    -84.3487354 -0.314457E-06  0.567E-04    0.20      27.2  T
   7    -84.3487355 -0.318793E-07  0.771E-05    0.20     200.1  T
   8    -84.3487355 -0.573536E-09  0.879E-06    0.20    1755.7  T
     SCC iter.                  ...        0 min,  0.043 sec
     gradient                   ...        0 min,  0.061 sec
 * total energy  :   -83.6250934 Eh     change       -0.3053129E-04 Eh
   gradient norm :     0.0035596 Eh/α   predicted    -0.1929714E-04 ( -36.80%)
   displ. norm   :     0.1455373 α      lambda       -0.5718884E-04
   maximum displ.:     0.0964186 α      in ANC's #6, #4, #8, ...

........................................................................
.............................. CYCLE   25 ..............................
........................................................................
   1    -84.3487929 -0.843488E+02  0.685E-03    0.20       0.0  T
   2    -84.3484568  0.336094E-03  0.547E-02    0.21       1.0  T
   3    -84.3487969 -0.340171E-03  0.404E-03    0.20       3.8  T
   4    -84.3487981 -0.119431E-05  0.227E-03    0.20       6.8  T
   5    -84.3487984 -0.249363E-06  0.131E-03    0.20      11.8  T
   6    -84.3487985 -0.152578E-06  0.220E-04    0.20      70.2  T
   7    -84.3487985 -0.307304E-08  0.998E-05    0.20     154.6  T
   8    -84.3487985 -0.978687E-09  0.148E-05    0.20    1041.4  T
     SCC iter.                  ...        0 min,  0.043 sec
     gradient                   ...        0 min,  0.061 sec
 * total energy  :   -83.6251400 Eh     change       -0.4665194E-04 Eh
   gradient norm :     0.0034296 Eh/α   predicted    -0.2920124E-04 ( -37.41%)
   displ. norm   :     0.2128603 α      lambda       -0.7574509E-04
   maximum displ.:     0.1400252 α      in ANC's #6, #4, #8, ...

........................................................................
.............................. CYCLE   26 ..............................
........................................................................
   1    -84.3488735 -0.843489E+02  0.804E-03    0.20       0.0  T
   2    -84.3485084  0.365162E-03  0.570E-02    0.21       1.0  T
   3    -84.3488800 -0.371662E-03  0.202E-03    0.20       7.6  T
   4    -84.3488801 -0.931463E-07  0.130E-03    0.20      11.8  T
   5    -84.3488801  0.161793E-08  0.856E-04    0.20      18.0  T
   6    -84.3488802 -0.468720E-07  0.170E-04    0.20      90.8  T
   7    -84.3488802 -0.137872E-08  0.111E-04    0.20     138.6  T
     SCC iter.                  ...        0 min,  0.037 sec
     gradient                   ...        0 min,  0.061 sec
 * total energy  :   -83.6251998 Eh     change       -0.5979141E-04 Eh
   gradient norm :     0.0033405 Eh/α   predicted    -0.3960050E-04 ( -33.77%)
   displ. norm   :     0.2521931 α      lambda       -0.8200928E-04
   maximum displ.:     0.1647419 α      in ANC's #6, #4, #2, ...

........................................................................
.............................. CYCLE   27 ..............................
........................................................................
   1    -84.3488755 -0.843489E+02  0.831E-03    0.21       0.0  T
   2    -84.3485835  0.292065E-03  0.510E-02    0.22       1.0  T
   3    -84.3488802 -0.296714E-03  0.406E-03    0.21       3.8  T
   4    -84.3488815 -0.134150E-05  0.144E-03    0.21      10.7  T
   5    -84.3488816 -0.950111E-07  0.726E-04    0.21      21.2  T
   6    -84.3488816  0.567435E-08  0.430E-04    0.21      35.9  T
   7    -84.3488816 -0.198338E-07  0.807E-05    0.21     191.3  T
   8    -84.3488816 -0.647091E-09  0.115E-05    0.21    1345.3  T
     SCC iter.                  ...        0 min,  0.035 sec
     gradient                   ...        0 min,  0.060 sec
 * total energy  :   -83.6252650 Eh     change       -0.6518392E-04 Eh
   gradient norm :     0.0041322 Eh/α   predicted    -0.4361294E-04 ( -33.09%)
   displ. norm   :     0.3028596 α      lambda       -0.1078940E-03
   maximum displ.:     0.1960460 α      in ANC's #6, #2, #10, ...

........................................................................
.............................. CYCLE   28 ..............................
........................................................................
   1    -84.3490465 -0.843490E+02  0.938E-03    0.22       0.0  T
   2    -84.3487738  0.272662E-03  0.493E-02    0.23       1.0  T
   3    -84.3490469 -0.273094E-03  0.812E-03    0.22       1.9  T
   4    -84.3490530 -0.608638E-05  0.245E-03    0.22       6.3  T
   5    -84.3490534 -0.441407E-06  0.122E-03    0.22      12.7  T
   6    -84.3490535 -0.295980E-07  0.729E-04    0.22      21.2  T
   7    -84.3490535 -0.560312E-07  0.484E-05    0.22     319.1  T
   8    -84.3490535 -0.155310E-09  0.152E-05    0.22    1014.0  T
     SCC iter.                  ...        0 min,  0.044 sec
     gradient                   ...        0 min,  0.060 sec
 * total energy  :   -83.6253513 Eh     change       -0.8632849E-04 Eh
   gradient norm :     0.0052376 Eh/α   predicted    -0.5889795E-04 ( -31.77%)
   displ. norm   :     0.4045843 α      lambda       -0.1618539E-03
   maximum displ.:     0.2580322 α      in ANC's #6, #10, #5, ...

........................................................................
.............................. CYCLE   29 ..............................
........................................................................
   1    -84.3490738 -0.843491E+02  0.992E-03    0.23       0.0  T
   2    -84.3489254  0.148408E-03  0.365E-02    0.24       1.0  T
   3    -84.3490547 -0.129277E-03  0.156E-02    0.23       1.0  T
   4    -84.3490791 -0.244242E-04  0.354E-03    0.23       4.4  T
   5    -84.3490801 -0.951715E-06  0.179E-03    0.23       8.6  T
   6    -84.3490802 -0.121908E-06  0.101E-03    0.23      15.3  T
   7    -84.3490803 -0.103159E-06  0.882E-05    0.23     175.0  T
   8    -84.3490803 -0.553698E-09  0.183E-05    0.23     844.1  T
     SCC iter.                  ...        0 min,  0.044 sec
     gradient                   ...        0 min,  0.061 sec
 * total energy  :   -83.6254779 Eh     change       -0.1265716E-03 Eh
   gradient norm :     0.0063397 Eh/α   predicted    -0.9417873E-04 ( -25.59%)
   displ. norm   :     0.4112835 α      lambda       -0.1765031E-03
   maximum displ.:     0.2526903 α      in ANC's #6, #5, #10, ...

........................................................................
.............................. CYCLE   30 ..............................
........................................................................
   1    -84.3492428 -0.843492E+02  0.794E-03    0.24       0.0  T
   2    -84.3491916  0.511709E-04  0.218E-02    0.25       1.0  T
   3    -84.3492238 -0.321948E-04  0.147E-02    0.24       1.1  T
   4    -84.3492462 -0.223856E-04  0.219E-03    0.24       7.0  T
   5    -84.3492465 -0.345821E-06  0.819E-04    0.24      18.8  T
   6    -84.3492466 -0.704293E-08  0.275E-04    0.24      56.2  T
   7    -84.3492466 -0.505464E-08  0.788E-05    0.24     195.9  T
   8    -84.3492466 -0.456296E-09  0.145E-05    0.24    1063.9  T
     SCC iter.                  ...        0 min,  0.044 sec
     gradient                   ...        0 min,  0.059 sec
 * total energy  :   -83.6256117 Eh     change       -0.1337654E-03 Eh
   gradient norm :     0.0066175 Eh/α   predicted    -0.1031994E-03 ( -22.85%)
   displ. norm   :     0.4620903 α      lambda       -0.1658876E-03
   maximum displ.:     0.2836852 α      in ANC's #6, #5, #10, ...

........................................................................
.............................. CYCLE   31 ..............................
........................................................................
   1    -84.3464952 -0.843465E+02  0.108E-02    0.26       0.0  T
   2    -84.3462403  0.254891E-03  0.490E-02    0.25       1.0  T
   3    -84.3464962 -0.255914E-03  0.858E-03    0.26       1.8  T
   4    -84.3465036 -0.732930E-05  0.269E-03    0.25       5.7  T
   5    -84.3465038 -0.271761E-06  0.127E-03    0.25      12.1  T
   6    -84.3465039 -0.710482E-07  0.445E-04    0.25      34.7  T
   7    -84.3465039 -0.167879E-07  0.600E-05    0.25     257.1  T
   8    -84.3465039 -0.272493E-09  0.169E-05    0.25     912.7  T
     SCC iter.                  ...        0 min,  0.043 sec
     gradient                   ...        0 min,  0.060 sec
 * total energy  :   -83.6257066 Eh     change       -0.9498254E-04 Eh
   gradient norm :     0.0082563 Eh/α   predicted    -0.1006564E-03 (   5.97%)
   displ. norm   :     0.3357731 α      lambda       -0.3834845E-03
   maximum displ.:     0.1653621 α      in ANC's #5, #3, #6, ...

........................................................................
.............................. CYCLE   32 ..............................
........................................................................
   1    -84.3573529 -0.843574E+02  0.705E-02    0.25       0.0  T
   2    -84.3468118  0.105411E-01  0.325E-01    0.37       1.0  T
   3    -84.3574916 -0.106798E-01  0.682E-02    0.27       1.0  T
   4    -84.3579442 -0.452615E-03  0.139E-02    0.26       1.1  T
   5    -84.3579632 -0.189918E-04  0.519E-03    0.26       3.0  T
   6    -84.3579635 -0.263539E-06  0.435E-03    0.26       3.5  T
   7    -84.3579653 -0.178895E-05  0.226E-04    0.26      68.3  T
   8    -84.3579653  0.283642E-08  0.204E-04    0.26      75.7  T
   9    -84.3579653 -0.381144E-08  0.638E-05    0.26     241.9  T
  10    -84.3579653 -0.389278E-09  0.101E-05    0.26    1530.6  T
     SCC iter.                  ...        0 min,  0.053 sec
     gradient                   ...        0 min,  0.059 sec
 * total energy  :   -83.6255225 Eh     change        0.1841453E-03 Eh
   gradient norm :     0.0164902 Eh/α   predicted    -0.2133782E-03 (-215.87%)
   displ. norm   :     0.1448991 α      lambda       -0.6335729E-03
   maximum displ.:     0.0738548 α      in ANC's #6, #25, #8, ...

........................................................................
.............................. CYCLE   33 ..............................
........................................................................
   1    -84.3498963 -0.843499E+02  0.420E-02    0.27       0.0  T
   2    -84.3379298  0.119665E-01  0.329E-01    0.23       1.0  T
   3    -84.3500822 -0.121524E-01  0.141E-02    0.26       1.1  T
   4    -84.3500787  0.351803E-05  0.126E-02    0.26       1.2  T
   5    -84.3500905 -0.118806E-04  0.535E-03    0.26       2.9  T
   6    -84.3500926 -0.208768E-05  0.204E-03    0.26       7.6  T
   7    -84.3500931 -0.446346E-06  0.381E-04    0.26      40.4  T
   8    -84.3500931 -0.154848E-07  0.839E-05    0.26     184.0  T
   9    -84.3500931 -0.633463E-09  0.424E-05    0.26     364.2  T
     SCC iter.                  ...        0 min,  0.037 sec
     gradient                   ...        0 min,  0.044 sec
 * total energy  :   -83.6258773 Eh     change       -0.3547814E-03 Eh
   gradient norm :     0.0054117 Eh/α   predicted    -0.3234458E-03 (  -8.83%)
   displ. norm   :     0.1579360 α      lambda       -0.8780962E-04
   maximum displ.:     0.0941103 α      in ANC's #6, #5, #3, ...

........................................................................
.............................. CYCLE   34 ..............................
........................................................................
   1    -84.3491045 -0.843491E+02  0.507E-03    0.26       0.0  T
   2    -84.3490686  0.359063E-04  0.183E-02    0.27       1.0  T
   3    -84.3491043 -0.357380E-04  0.410E-03    0.26       3.8  T
   4    -84.3491057 -0.135993E-05  0.152E-03    0.26      10.2  T
   5    -84.3491058 -0.692366E-07  0.558E-04    0.26      27.7  T
   6    -84.3491058 -0.225553E-07  0.119E-04    0.26     129.3  T
   7    -84.3491058 -0.129762E-08  0.232E-05    0.26     666.5  T
     SCC iter.                  ...        0 min,  0.035 sec
     gradient                   ...        0 min,  0.059 sec
 * total energy  :   -83.6259469 Eh     change       -0.6956987E-04 Eh
   gradient norm :     0.0051648 Eh/α   predicted    -0.4500198E-04 ( -35.31%)
   displ. norm   :     0.3629067 α      lambda       -0.1899973E-03
   maximum displ.:     0.1998152 α      in ANC's #6, #5, #3, ...

........................................................................
.............................. CYCLE   35 ..............................
........................................................................
   1    -84.3480642 -0.843481E+02  0.767E-03    0.27       0.0  T
   2    -84.3479982  0.660707E-04  0.253E-02    0.27       1.0  T
   3    -84.3480661 -0.679664E-04  0.447E-03    0.27       3.5  T
   4    -84.3480668 -0.711553E-06  0.303E-03    0.27       5.1  T
   5    -84.3480671 -0.284456E-06  0.181E-03    0.27       8.5  T
   6    -84.3480674 -0.261665E-06  0.284E-04    0.27      54.4  T
   7    -84.3480674 -0.548984E-08  0.585E-05    0.27     263.9  T
   8    -84.3480674 -0.107633E-09  0.215E-05    0.27     716.8  T
     SCC iter.                  ...        0 min,  0.041 sec
     gradient                   ...        0 min,  0.059 sec
 * total energy  :   -83.6260656 Eh     change       -0.1187279E-03 Eh
   gradient norm :     0.0080757 Eh/α   predicted    -0.1075094E-03 (  -9.45%)
   displ. norm   :     0.2223695 α      lambda       -0.1435428E-03
   maximum displ.:     0.1061022 α      in ANC's #6, #3, #5, ...

........................................................................
.............................. CYCLE   36 ..............................
........................................................................
   1    -84.3506735 -0.843507E+02  0.333E-02    0.27       0.0  T
   2    -84.3472676  0.340589E-02  0.180E-01    0.32       1.0  T
   3    -84.3507810 -0.351333E-02  0.159E-02    0.27       1.0  T
   4    -84.3508061 -0.250757E-04  0.455E-03    0.27       3.4  T
   5    -84.3508075 -0.140459E-05  0.142E-03    0.27      10.9  T
   6    -84.3508075 -0.484002E-07  0.890E-04    0.27      17.3  T
   7    -84.3508076 -0.741817E-07  0.145E-04    0.27     106.4  T
   8    -84.3508076 -0.198979E-08  0.230E-05    0.27     671.4  T
     SCC iter.                  ...        0 min,  0.041 sec
     gradient                   ...        0 min,  0.059 sec
 * total energy  :   -83.6261520 Eh     change       -0.8644563E-04 Eh
   gradient norm :     0.0069884 Eh/α   predicted    -0.7531994E-04 ( -12.87%)
   displ. norm   :     0.5575398 α      lambda       -0.1933532E-03
   maximum displ.:     0.3118264 α      in ANC's #6, #5, #3, ...

........................................................................
.............................. CYCLE   37 ..............................
........................................................................
   1    -84.3460476 -0.843460E+02  0.443E-02    0.29       0.0  T
   2    -84.3328519  0.131958E-01  0.347E-01    0.25       1.0  T
   3    -84.3462803 -0.134284E-01  0.145E-02    0.28       1.1  T
   4    -84.3462784  0.186076E-05  0.140E-02    0.28       1.1  T
   5    -84.3462895 -0.110730E-04  0.812E-03    0.28       1.9  T
   6    -84.3462955 -0.599092E-05  0.279E-03    0.28       5.5  T
   7    -84.3462962 -0.761839E-06  0.447E-04    0.28      34.5  T
   8    -84.3462963 -0.206878E-07  0.375E-05    0.28     411.0  T
   9    -84.3462963  0.132886E-09  0.483E-05    0.28     319.8  T
     SCC iter.                  ...        0 min,  0.048 sec
     gradient                   ...        0 min,  0.063 sec
 * total energy  :   -83.6262476 Eh     change       -0.9556996E-04 Eh
   gradient norm :     0.0095126 Eh/α   predicted    -0.1267264E-03 (  32.60%)
   displ. norm   :     0.1549430 α      lambda       -0.2540053E-03
   maximum displ.:     0.0901126 α      in ANC's #3, #4, #5, ...

........................................................................
.............................. CYCLE   38 ..............................
........................................................................
   1    -84.3512027 -0.843512E+02  0.506E-02    0.27       0.0  T
   2    -84.3452403  0.596240E-02  0.242E-01    0.35       1.0  T
   3    -84.3514100 -0.616966E-02  0.326E-02    0.29       1.0  T
   4    -84.3515095 -0.995443E-04  0.114E-02    0.28       1.4  T
   5    -84.3515134 -0.389941E-05  0.756E-03    0.28       2.0  T
   6    -84.3515198 -0.636253E-05  0.640E-04    0.28      24.1  T
   7    -84.3515198  0.513722E-09  0.451E-04    0.28      34.2  T
   8    -84.3515198 -0.218036E-07  0.514E-05    0.28     300.1  T
   9    -84.3515198 -0.779323E-10  0.346E-05    0.28     446.4  T
     SCC iter.                  ...        0 min,  0.049 sec
     gradient                   ...        0 min,  0.062 sec
 * total energy  :   -83.6263404 Eh     change       -0.9276013E-04 Eh
   gradient norm :     0.0063240 Eh/α   predicted    -0.1300542E-03 (  40.20%)
   displ. norm   :     0.1985840 α      lambda       -0.1015297E-03
   maximum displ.:     0.1113079 α      in ANC's #6, #3, #5, ...

........................................................................
.............................. CYCLE   39 ..............................
........................................................................
   1    -84.3509992 -0.843510E+02  0.181E-02    0.29       0.0  T
   2    -84.3496603  0.133894E-02  0.112E-01    0.27       1.0  T
   3    -84.3510336 -0.137329E-02  0.351E-03    0.29       4.4  T
   4    -84.3510327  0.803080E-06  0.402E-03    0.29       3.8  T
   5    -84.3510338 -0.106051E-05  0.182E-03    0.29       8.5  T
   6    -84.3510340 -0.235741E-06  0.222E-04    0.29      69.5  T
   7    -84.3510340 -0.123197E-08  0.136E-04    0.29     113.4  T
   8    -84.3510340 -0.201206E-08  0.141E-05    0.29    1093.7  T
     SCC iter.                  ...        0 min,  0.044 sec
     gradient                   ...        0 min,  0.063 sec
 * total energy  :   -83.6264096 Eh     change       -0.6921187E-04 Eh
   gradient norm :     0.0051806 Eh/α   predicted    -0.5276989E-04 ( -23.76%)
   displ. norm   :     0.3409089 α      lambda       -0.9706327E-04
   maximum displ.:     0.1897042 α      in ANC's #6, #3, #2, ...

........................................................................
.............................. CYCLE   40 ..............................
........................................................................
   1    -84.3490830 -0.843491E+02  0.133E-02    0.29       0.0  T
   2    -84.3490079  0.751216E-04  0.291E-02    0.29       1.0  T
   3    -84.3490495 -0.416126E-04  0.198E-02    0.29       1.0  T
   4    -84.3490914 -0.419373E-04  0.512E-03    0.29       3.0  T
   5    -84.3490935 -0.211657E-05  0.119E-03    0.29      13.0  T
   6    -84.3490935  0.343170E-07  0.686E-04    0.29      22.5  T
   7    -84.3490936 -0.463286E-07  0.735E-05    0.29     210.1  T
   8    -84.3490936 -0.182951E-09  0.423E-05    0.29     364.6  T
     SCC iter.                  ...        0 min,  0.044 sec
     gradient                   ...        0 min,  0.063 sec
 * total energy  :   -83.6264436 Eh     change       -0.3406063E-04 Eh
   gradient norm :     0.0049081 Eh/α   predicted    -0.5417842E-04 (  59.06%)
   displ. norm   :     0.0906326 α      lambda       -0.7497932E-04
   maximum displ.:     0.0456634 α      in ANC's #3, #6, #1, ...

........................................................................
.............................. CYCLE   41 ..............................
........................................................................
   1    -84.3511208 -0.843511E+02  0.685E-03    0.29       0.0  T
   2    -84.3510629  0.579064E-04  0.234E-02    0.29       1.0  T
   3    -84.3511203 -0.573700E-04  0.539E-03    0.29       2.9  T
   4    -84.3511227 -0.242363E-05  0.128E-03    0.29      12.0  T
   5    -84.3511227 -0.341967E-07  0.591E-04    0.29      26.1  T
   6    -84.3511227 -0.277250E-07  0.182E-04    0.29      84.8  T
   7    -84.3511227 -0.188641E-08  0.517E-05    0.29     298.2  T
     SCC iter.                  ...        0 min,  0.039 sec
     gradient                   ...        0 min,  0.062 sec
 * total energy  :   -83.6264872 Eh     change       -0.4354796E-04 Eh
   gradient norm :     0.0039394 Eh/α   predicted    -0.3779921E-04 ( -13.20%)
   displ. norm   :     0.1001805 α      lambda       -0.4797670E-04
   maximum displ.:     0.0508822 α      in ANC's #3, #6, #1, ...

........................................................................
.............................. CYCLE   42 ..............................
........................................................................
   1    -84.3519934 -0.843520E+02  0.147E-02    0.29       0.0  T
   2    -84.3518908  0.102670E-03  0.336E-02    0.30       1.0  T
   3    -84.3519421 -0.513637E-04  0.265E-02    0.29       1.0  T
   4    -84.3520150 -0.729120E-04  0.283E-03    0.29       5.5  T
   5    -84.3520154 -0.349356E-06  0.159E-03    0.29       9.7  T
   6    -84.3520156 -0.160182E-06  0.276E-04    0.29      55.8  T
   7    -84.3520156 -0.545991E-08  0.103E-04    0.29     150.3  T
   8    -84.3520156 -0.106077E-08  0.822E-06    0.29    1878.2  T
     SCC iter.                  ...        0 min,  0.044 sec
     gradient                   ...        0 min,  0.062 sec
 * total energy  :   -83.6265167 Eh     change       -0.2954249E-04 Eh
   gradient norm :     0.0036094 Eh/α   predicted    -0.2422922E-04 ( -17.99%)
   displ. norm   :     0.2648613 α      lambda       -0.6408183E-04
   maximum displ.:     0.1433181 α      in ANC's #6, #3, #1, ...
 * RMSD in coord.:     0.7411609 α      energy gain  -0.1657116E-02 Eh

generating ANC from model Hessian ...
Using Lindh-Hessian (1995)
 Shifting diagonal of input Hessian by   9.795074512946833E-003
 Lowest  eigenvalues of input Hessian
    0.000000    0.000000    0.000000    0.000000    0.000000    0.000000
    0.010000    0.010025    0.010385    0.011342    0.011991    0.012530
    0.013241    0.014183    0.014543    0.015313    0.015990    0.016374
 Highest eigenvalues
    2.001816    2.101660    2.141234    2.234055    2.298845    2.300949
 

........................................................................
.............................. CYCLE   43 ..............................
........................................................................
   1    -84.3520380 -0.843520E+02  0.226E-02    0.30       0.0  T
   2    -84.3500508  0.198725E-02  0.135E-01    0.28       1.0  T
   3    -84.3520931 -0.204230E-02  0.677E-03    0.30       2.3  T
   4    -84.3520958 -0.274553E-05  0.194E-03    0.30       8.0  T
   5    -84.3520956  0.267568E-06  0.208E-03    0.30       7.4  T
   6    -84.3520958 -0.202667E-06  0.946E-04    0.30      16.3  T
   7    -84.3520958 -0.858904E-07  0.194E-04    0.30      79.6  T
   8    -84.3520959 -0.405383E-08  0.234E-05    0.30     658.9  T
     SCC iter.                  ...        0 min,  0.047 sec
     gradient                   ...        0 min,  0.062 sec
 * total energy  :   -83.6265428 Eh     change       -0.2607108E-04 Eh
   gradient norm :     0.0043214 Eh/α   predicted     0.0000000E+00 (-100.00%)
   displ. norm   :     0.0253869 α      lambda       -0.3762199E-04
   maximum displ.:     0.0073712 α      in ANC's #26, #15, #14, ...

........................................................................
.............................. CYCLE   44 ..............................
........................................................................
   1    -84.3518578 -0.843519E+02  0.504E-03    0.30       0.0  T
   2    -84.3518443  0.135026E-04  0.117E-02    0.30       1.3  T
   3    -84.3518519 -0.758217E-05  0.883E-03    0.29       1.7  T
   4    -84.3518595 -0.760856E-05  0.167E-03    0.30       9.3  T
   5    -84.3518597 -0.169429E-06  0.616E-04    0.30      25.1  T
   6    -84.3518597 -0.959631E-08  0.899E-05    0.30     171.6  T
   7    -84.3518597 -0.201325E-09  0.220E-05    0.30     701.8  T
     SCC iter.                  ...        0 min,  0.041 sec
     gradient                   ...        0 min,  0.062 sec
 * total energy  :   -83.6265698 Eh     change       -0.2699254E-04 Eh
   gradient norm :     0.0017142 Eh/α   predicted    -0.1990793E-04 ( -26.25%)
   displ. norm   :     0.0538484 α      lambda       -0.2015822E-04
   maximum displ.:     0.0196107 α      in ANC's #23, #15, #5, ...

........................................................................
.............................. CYCLE   45 ..............................
........................................................................
   1    -84.3516390 -0.843516E+02  0.531E-03    0.30       0.0  T
   2    -84.3516395 -0.566720E-06  0.444E-03    0.30       3.5  T
   3    -84.3516383  0.122048E-05  0.511E-03    0.30       3.0  T
   4    -84.3516409 -0.258320E-05  0.114E-03    0.30      13.6  T
   5    -84.3516409 -0.111916E-07  0.911E-04    0.30      16.9  T
   6    -84.3516409 -0.324366E-07  0.126E-04    0.30     122.0  T
   7    -84.3516409 -0.259007E-09  0.384E-05    0.30     401.7  T
     SCC iter.                  ...        0 min,  0.040 sec
     gradient                   ...        0 min,  0.062 sec
 * total energy  :   -83.6265858 Eh     change       -0.1603520E-04 Eh
   gradient norm :     0.0020316 Eh/α   predicted    -0.1009301E-04 ( -37.06%)
   displ. norm   :     0.0307908 α      lambda       -0.1139396E-04
   maximum displ.:     0.0116120 α      in ANC's #15, #23, #5, ...

........................................................................
.............................. CYCLE   46 ..............................
........................................................................
   1    -84.3516997 -0.843517E+02  0.123E-03    0.30       0.0  T
   2    -84.3516997  0.123028E-07  0.106E-03    0.30      14.5  T
   3    -84.3516995  0.273141E-06  0.185E-03    0.30       8.3  T
   4    -84.3516998 -0.354445E-06  0.512E-04    0.30      30.1  T
   5    -84.3516998 -0.194550E-07  0.129E-04    0.30     119.8  T
   6    -84.3516998 -0.296282E-09  0.352E-05    0.30     438.3  T
     SCC iter.                  ...        0 min,  0.033 sec
     gradient                   ...        0 min,  0.063 sec
 * total energy  :   -83.6265955 Eh     change       -0.9653250E-05 Eh
   gradient norm :     0.0018155 Eh/α   predicted    -0.5733971E-05 ( -40.60%)
   displ. norm   :     0.1515992 α      lambda       -0.3009212E-04
   maximum displ.:     0.0577119 α      in ANC's #15, #23, #5, ...

........................................................................
.............................. CYCLE   47 ..............................
........................................................................
   1    -84.3516503 -0.843517E+02  0.689E-03    0.30       0.0  T
   2    -84.3515739  0.764132E-04  0.267E-02    0.29       1.0  T
   3    -84.3516517 -0.778373E-04  0.553E-03    0.30       2.8  T
   4    -84.3516543 -0.259751E-05  0.125E-03    0.29      12.4  T
   5    -84.3516543 -0.296313E-07  0.485E-04    0.29      31.8  T
   6    -84.3516543 -0.478457E-08  0.127E-04    0.29     122.0  T
   7    -84.3516543 -0.324363E-09  0.366E-05    0.29     421.8  T
     SCC iter.                  ...        0 min,  0.038 sec
     gradient                   ...        0 min,  0.063 sec
 * total energy  :   -83.6266121 Eh     change       -0.1658479E-04 Eh
   gradient norm :     0.0020842 Eh/α   predicted    -0.1520839E-04 (  -8.30%)
   displ. norm   :     0.1014176 α      lambda        0.5393305E-04
   maximum displ.:     0.0386136 α      in ANC's #15, #23, #5, ...

........................................................................
.............................. CYCLE   48 ..............................
........................................................................
   1    -84.3512489 -0.843512E+02  0.439E-03    0.30       0.0  T
   2    -84.3512148  0.340728E-04  0.179E-02    0.29       1.0  T
   3    -84.3512499 -0.351081E-04  0.250E-03    0.29       6.2  T
   4    -84.3512504 -0.456360E-06  0.881E-04    0.29      17.5  T
   5    -84.3512504 -0.193324E-07  0.362E-04    0.29      42.6  T
   6    -84.3512504 -0.372648E-08  0.103E-04    0.29     150.0  T
   7    -84.3512504 -0.342425E-09  0.328E-05    0.29     470.0  T
     SCC iter.                  ...        0 min,  0.038 sec
     gradient                   ...        0 min,  0.063 sec
 * total energy  :   -83.6265904 Eh     change        0.2161780E-04 Eh
   gradient norm :     0.0038323 Eh/α   predicted     0.2724352E-04 (  26.02%)
   displ. norm   :     0.1157452 α      lambda       -0.4947212E-04
   maximum displ.:     0.0432671 α      in ANC's #15, #23, #5, ...

........................................................................
.............................. CYCLE   49 ..............................
........................................................................
   1    -84.3518260 -0.843518E+02  0.484E-03    0.29       0.0  T
   2    -84.3518025  0.234234E-04  0.150E-02    0.30       1.0  T
   3    -84.3518262 -0.236357E-04  0.372E-03    0.29       4.1  T
   4    -84.3518273 -0.117492E-05  0.116E-03    0.30      13.3  T
   5    -84.3518274 -0.279852E-07  0.504E-04    0.30      30.6  T
   6    -84.3518274 -0.104932E-07  0.153E-04    0.30     100.9  T
   7    -84.3518274 -0.110167E-08  0.327E-05    0.30     471.5  T
     SCC iter.                  ...        0 min,  0.038 sec
     gradient                   ...        0 min,  0.062 sec
 * total energy  :   -83.6266169 Eh     change       -0.2644509E-04 Eh
   gradient norm :     0.0011819 Eh/α   predicted    -0.2506823E-04 (  -5.21%)
   displ. norm   :     0.0128721 α      lambda       -0.2805845E-05
   maximum displ.:     0.0058583 α      in ANC's #2, #26, #4, ...

........................................................................
.............................. CYCLE   50 ..............................
........................................................................
   1    -84.3519574 -0.843520E+02  0.152E-03    0.30       0.0  T
   2    -84.3519539  0.356633E-05  0.582E-03    0.29       2.7  T
   3    -84.3519574 -0.358169E-05  0.120E-03    0.30      12.8  T
   4    -84.3519576 -0.140607E-06  0.236E-04    0.30      65.3  T
   5    -84.3519576 -0.322913E-09  0.109E-04    0.30     141.9  T
   6    -84.3519576 -0.653159E-09  0.417E-05    0.30     369.7  T
     SCC iter.                  ...        0 min,  0.033 sec
     gradient                   ...        0 min,  0.063 sec
 * total energy  :   -83.6266202 Eh     change       -0.3275928E-05 Eh
   gradient norm :     0.0004943 Eh/α   predicted    -0.1409442E-05 ( -56.98%)
   displ. norm   :     0.0546978 α      lambda       -0.4781824E-05
   maximum displ.:     0.0272206 α      in ANC's #2, #6, #15, ...

   *** GEOMETRY OPTIMIZATION CONVERGED AFTER 50 ITERATIONS ***

------------------------------------------------------------------------
 total energy gain   :        -0.0214660 Eh      -13.4701 kcal/mol
 total RMSD          :         1.2054179 a0        0.6379 Å
 total power (kW/mol):        -1.1271794 (step)   -8.3081 (real)
------------------------------------------------------------------------

 ANCopt (total)                0 d,  0 h,  0 min,  6.784 sec
 optimizer setup                ...        0 min,  0.001 sec (  0.009%)
 model hessian                  ...        0 min,  0.096 sec (  1.422%)
 ANC generation                 ...        0 min,  0.008 sec (  0.121%)
 coordinate transformation      ...        0 min,  0.001 sec (  0.016%)
 single point calculation       ...        0 min,  6.659 sec ( 98.164%)
 optimization log               ...        0 min,  0.009 sec (  0.137%)
 hessian update                 ...        0 min,  0.001 sec (  0.015%)
 rational function              ...        0 min,  0.005 sec (  0.080%)

================
 final structure:
================
42
 xtb: 6.5.1 (579679a)
C           -6.47782429778391       -0.31738817694144        0.67686706953810
O           -5.30301912296200        0.08190829618690       -0.00229682572882
C           -4.15290871392977       -0.56422701809898        0.37709881412566
O           -4.21078614827245       -1.42217261514900        1.26269408314785
C           -2.94486128054294       -0.16287667714704       -0.32627433553292
C           -2.94356354063186        0.82386201747732       -1.35364421407409
O           -3.93363868381448        1.52619890842665       -1.71735161386326
C           -1.64347508512981        0.97610176335147       -2.08623857652345
O           -1.51299637178289        1.61803079098741       -3.14119990128077
N           -0.56837231909844        0.32748831730605       -1.56258598132163
C           -0.57100248303616       -0.50803547954440       -0.37759094866509
C            0.24240068948439       -1.77698924849348       -0.70766823239694
C            0.16303455732376        0.29090410407719        0.83510942564530
C            0.06114539297007       -0.55631958392601        2.10912074054178
C           -0.54833263888893        1.62612779169703        1.07150528306563
N            1.56972489930334        0.47085639383320        0.55054546638085
C            2.16311737824078        1.43838762528914       -0.21778514224319
O            1.60148344907290        2.47542725989994       -0.62120829938611
C            3.55716351839992        1.15843016725619       -0.49670185416626
N            4.41414175347858        1.91698065545983       -1.15979866744613
N            5.60505137829209        1.24056963466397       -1.17414059822004
C            5.42334672877964        0.13155423304648       -0.53747026532706
C            6.41978684927932       -0.93799255266957       -0.28879161778107
O            4.15878037516033       -0.00409228063082       -0.07549279154801
N           -1.85175686755675       -0.89231552418239        0.05824579522108
H           -6.40061537631335       -0.11588614729558        1.75130579100815
H           -7.30637451227705        0.25549522816578        0.25946829294456
H           -6.66947298222429       -1.38763110273234        0.53901997049284
H            0.30252375237944        0.40626314533907       -2.06371358597984
H           -0.20086684198974       -2.26124688867511       -1.57695224690662
H            1.28013912240172       -1.53639777514058       -0.93004412925840
H            0.20420531762474       -2.47065345688358        0.12852583550341
H           -0.96932093621275       -0.89274079189190        2.23820202871171
H            0.35770000758444        0.03030900832570        2.97852815175401
H            0.70812962034120       -1.43021002516718        2.05263695962328
H           -1.55314983837407        1.43258775420811        1.44878947441693
H           -0.00500477340652        2.21209180714813        1.81264468361116
H           -0.62541025133774        2.20967987637671        0.15498755819884
H            2.15614649840189       -0.31209101999118        0.78833556979521
H            7.39448543677525       -0.61790496611865       -0.64903400404951
H            6.48039758449847       -1.15679607538231        0.77685871553880
H            6.12984975578566       -1.85389937246126       -0.80450987757882
 
 Bond Distances (Angstroems)
 ---------------------------
C1-O2=1.4145         C1-H26=1.0959        C1-H27=1.0904        C1-H28=1.0960        O2-C1=1.4145         O2-C3=1.3727         
C3-O2=1.3727         C3-O4=1.2344         C3-C5=1.4544         O4-C3=1.2344         C5-C3=1.4544         C5-C6=1.4245         
C5-N25=1.3692        C6-C5=1.4245         C6-O7=1.2672         C6-C8=1.5000         O7-C6=1.2672         C8-C6=1.5000         
C8-O9=1.2418         C8-N10=1.3604        O9-C8=1.2418         N10-C8=1.3604        N10-C11=1.4499       N10-H29=1.0079       
C11-N10=1.4499       C11-C12=1.5430       C11-C13=1.6272       C11-N25=1.4064       C12-C11=1.5430       C12-H30=1.0893       
C12-H31=1.0882       C12-H32=1.0871       C13-C11=1.6272       C13-C14=1.5334       C13-C15=1.5313       C13-N16=1.4464       
C14-C13=1.5334       C14-H33=1.0917       C14-H34=1.0899       C14-H35=1.0888       C15-C13=1.5313       C15-H36=1.0906       
C15-H37=1.0899       C15-H38=1.0893       N16-C13=1.4464       N16-C17=1.3706       N16-H39=1.0067       C17-N16=1.3706       
[...]
H35-C14=1.0888       H36-C15=1.0906       H37-C15=1.0899       H38-C15=1.0893       H39-N16=1.0067       H40-C23=1.0873       
H41-C23=1.0896       H42-C23=1.0904       
 C  H  Rav=1.0903 sigma=0.0025  Rmin=1.0871  Rmax=1.0960    15
 C  C  Rav=1.5051 sigma=0.0583  Rmin=1.4245  Rmax=1.6272     9
 N  H  Rav=1.0073 sigma=0.0006  Rmin=1.0067  Rmax=1.0079     2
 N  C  Rav=1.3772 sigma=0.0520  Rmin=1.2916  Rmax=1.4499     8
 N  N  Rav=1.3697 sigma=0.0000  Rmin=1.3697  Rmax=1.3697     1
 O  C  Rav=1.3132 sigma=0.0681  Rmin=1.2344  Rmax=1.4145     8
 
 selected bond angles (degree)
 --------------------
H26-C1-O2=111.12               H27-C1-O2=107.40               H27-C1-H26=109.40              H28-C1-O2=111.13               
H28-C1-H26=108.37              H28-C1-H27=109.39              C3-O2-C1=115.49                O4-C3-O2=119.09                
C5-C3-O2=115.62                C5-C3-O4=125.29                C6-C5-C3=122.73                N25-C5-C3=112.35               
N25-C5-C6=124.81               O7-C6-C5=126.17                C8-C6-C5=115.04                C8-C6-O7=118.73                
O9-C8-C6=123.95                N10-C8-C6=116.65               N10-C8-O9=119.37               C11-N10-C8=126.01              
H29-N10-C8=117.01              H29-N10-C11=116.93             
 
 selected dihedral angles (degree)
 ---------------------------------
C3-O2-C1-H26= 61.75           C3-O2-C1-H27=181.38           C3-O2-C1-H28=300.99           O4-C3-O2-C1=359.70            
C5-C3-O2-C1=179.57            C6-C5-C3-O2=359.33            C6-C5-C3-O4=179.18            N25-C5-C3-O2=182.93           
N25-C5-C3-O4=  2.78           O7-C6-C5-C3=  5.11            O7-C6-C5-N25=181.05           C8-C6-C5-C3=187.71            
C8-C6-C5-N25=  3.66           O9-C8-C6-C5=167.77            O9-C8-C6-O7=350.17            N10-C8-C6-C5=349.85           
N10-C8-C6-O7=172.24           C11-N10-C8-C6=  0.93          C11-N10-C8-O9=182.91          H29-N10-C8-C6=178.44          
H29-N10-C8-O9=  0.42          
           -------------------------------------------------
          |                Final Singlepoint                |
           -------------------------------------------------

          ...................................................
          :                      SETUP                      :
          :.................................................:
          :  # basis functions                 134          :
          :  # atomic orbitals                 134          :
          :  # shells                           84          :
          :  # electrons                       136          :
          :  # halogen bonds                     0          :
          :  max. iterations                   250          :
          :  Hamiltonian                  GFN1-xTB          :
          :  restarted?                      false          :
          :  GBSA solvation                   true          :
          :  PC potential                    false          :
          :  electronic temp.          300.0000000     K    :
          :  accuracy                    1.0000000          :
          :  -> integral cutoff          0.2500000E+02      :
          :  -> integral neglect         0.1000000E-07      :
          :  -> SCF convergence          0.1000000E-05 Eh   :
          :  -> wf. convergence          0.2000000E-04 e    :
          :  Broyden damping             0.4000000          :
          ...................................................

 iter      E             dE          RMSdq      gap      omega  full diag
   1    -84.3519576 -0.843520E+02  0.673E-06    0.30       0.0  T
   2    -84.3519576  0.591882E-10  0.234E-05    0.30     658.4  T
   3    -84.3519576 -0.592308E-10  0.540E-06    0.30    2856.9  T

   *** convergence criteria satisfied after 3 iterations ***

         #    Occupation            Energy/Eh            Energy/eV
      -------------------------------------------------------------
         1        2.0000           -0.8160521             -22.2059
       ...           ...                  ...                  ...
        62        2.0000           -0.4040623             -10.9951
        63        2.0000           -0.4010647             -10.9135
        64        2.0000           -0.3886869             -10.5767
        65        2.0000           -0.3712277             -10.1016
        66        2.0000           -0.3660403              -9.9605
        67        2.0000           -0.3352393              -9.1223
        68        1.9934           -0.2776106              -7.5542 (HOMO)
        69        0.0066           -0.2667514              -7.2587 (LUMO)
        70                         -0.2349259              -6.3927
        71                         -0.2187644              -5.9529
        72                         -0.1630507              -4.4368
        73                         -0.1475042              -4.0138
       ...                                ...                  ...
       134                          0.7425007              20.2045
      -------------------------------------------------------------
                  HL-Gap            0.0108592 Eh            0.2955 eV
             Fermi-level           -0.2721810 Eh           -7.4064 eV

 SCC (total)                   0 d,  0 h,  0 min,  0.110 sec
 SCC setup                      ...        0 min,  0.002 sec (  1.525%)
 Dispersion                     ...        0 min,  0.000 sec (  0.219%)
 classical contributions        ...        0 min,  0.000 sec (  0.074%)
 integral evaluation            ...        0 min,  0.027 sec ( 24.654%)
 iterations                     ...        0 min,  0.017 sec ( 15.228%)
 molecular gradient             ...        0 min,  0.063 sec ( 57.123%)
 printout                       ...        0 min,  0.001 sec (  1.153%)

         :::::::::::::::::::::::::::::::::::::::::::::::::::::
         ::                     SUMMARY                     ::
         :::::::::::::::::::::::::::::::::::::::::::::::::::::
         :: total energy             -83.626620161171 Eh    ::
         :: total w/o Gsasa/hb       -83.608268587811 Eh    ::
         :: gradient norm              0.000494045493 Eh/a0 ::
         :: HOMO-LUMO gap              0.295494967240 eV    ::
         ::.................................................::
         :: SCC energy               -84.351957577176 Eh    ::
         :: -> electrostatic           0.715708300600 Eh    ::
         :: -> Gsolv                  -0.286170483219 Eh    ::
         ::    -> Gelec               -0.267818909859 Eh    ::
         ::    -> Gsasa               -0.023387333237 Eh    ::
         ::    -> Ghb                 -0.002588519127 Eh    ::
         ::    -> Gshift               0.007624279005 Eh    ::
         :: repulsion energy           0.753322282853 Eh    ::
         :: dispersion energy         -0.027984866848 Eh    ::
         :: halogen bond corr.         0.000000000000 Eh    ::
         :: add. restraining           0.000000000000 Eh    ::
         :: total charge              -2.000000000000 e     ::
         :::::::::::::::::::::::::::::::::::::::::::::::::::::

           -------------------------------------------------
          |                Property Printout                |
           -------------------------------------------------

    * Orbital Energies and Occupations

         #    Occupation            Energy/Eh            Energy/eV
      -------------------------------------------------------------
         1        2.0000           -0.8160521             -22.2059
       ...           ...                  ...                  ...
        56        2.0000           -0.4450149             -12.1095
        57        2.0000           -0.4368011             -11.8860
        58        2.0000           -0.4157136             -11.3121
        59        2.0000           -0.4147125             -11.2849
        60        2.0000           -0.4134720             -11.2511
        61        2.0000           -0.4086824             -11.1208
        62        2.0000           -0.4040623             -10.9951
        63        2.0000           -0.4010647             -10.9135
        64        2.0000           -0.3886869             -10.5767
        65        2.0000           -0.3712277             -10.1016
        66        2.0000           -0.3660403              -9.9605
        67        2.0000           -0.3352393              -9.1223
        68        1.9934           -0.2776106              -7.5542 (HOMO)
        69        0.0066           -0.2667514              -7.2587 (LUMO)
        70                         -0.2349259              -6.3927
        71                         -0.2187644              -5.9529
        72                         -0.1630507              -4.4368
        73                         -0.1475042              -4.0138
        74                         -0.1265909              -3.4447
        75                         -0.1121486              -3.0517
        76                         -0.1026229              -2.7925
        77                         -0.0958784              -2.6090
        78                         -0.0876514              -2.3851
        79                         -0.0788330              -2.1452
       ...                                ...                  ...
       134                          0.7425007              20.2045
      -------------------------------------------------------------
                  HL-Gap            0.0108592 Eh            0.2955 eV
             Fermi-level           -0.2721810 Eh           -7.4064 eV

  Mulliken/CM5 charges         n(s)   n(p)   n(d)
     1C     0.17833  0.05972   0.966  2.856  0.000
     2O    -0.44275 -0.52470   1.691  4.752  0.000
     3C     0.52370  0.58685   0.986  2.491  0.000
     4O    -0.64860 -0.69191   1.741  4.907  0.000
     5C     0.00867  0.08522   1.046  2.945  0.000
     6C     0.23461  0.27753   1.028  2.737  0.000
     7O    -0.69168 -0.72799   1.757  4.935  0.000
     8C     0.41791  0.52098   1.008  2.574  0.000
     9O    -0.66398 -0.70076   1.744  4.920  0.000
    10N    -0.36289 -0.71114   1.430  3.933  0.000
    11C     0.27170  0.37908   1.042  2.687  0.000
    12C    -0.10735 -0.24175   1.020  3.087  0.000
    13C     0.14688  0.18760   1.075  2.778  0.000
    14C    -0.09915 -0.23925   1.017  3.082  0.000
    15C    -0.08064 -0.21832   1.008  3.073  0.000
    16N    -0.35722 -0.71493   1.433  3.924  0.000
    17C     0.40418  0.50718   0.966  2.629  0.000
    18O    -0.65821 -0.69960   1.740  4.918  0.000
    19C     0.29121  0.40959   1.009  2.700  0.000
    20N    -0.30478 -0.40312   1.578  3.727  0.000
    21N    -0.30236 -0.41053   1.569  3.733  0.000
    22C     0.36688  0.47587   0.996  2.637  0.000
    23C    -0.11088 -0.24822   1.009  3.102  0.000
    24O    -0.39616 -0.45261   1.706  4.690  0.000
    25N    -0.53566 -0.71462   1.551  3.985  0.000
    26H     0.02241  0.08394   0.978  0.000  0.000
    27H     0.02245  0.08261   0.978  0.000  0.000
    28H     0.02234  0.08416   0.978  0.000  0.000
    29H     0.22242  0.42682   0.778  0.000  0.000
    30H     0.02381  0.08196   0.976  0.000  0.000
    31H     0.02007  0.08097   0.980  0.000  0.000
    32H     0.02651  0.08435   0.973  0.000  0.000
    33H     0.03497  0.09581   0.965  0.000  0.000
    34H     0.02136  0.07642   0.979  0.000  0.000
    35H     0.02577  0.08298   0.974  0.000  0.000
    36H     0.02005  0.07829   0.980  0.000  0.000
    37H     0.01784  0.07486   0.982  0.000  0.000
    38H     0.03511  0.10117   0.965  0.000  0.000
    39H     0.22761  0.43538   0.772  0.000  0.000
    40H     0.05238  0.10821   0.948  0.000  0.000
    41H     0.06111  0.11566   0.939  0.000  0.000
    42H     0.06202  0.11624   0.938  0.000  0.000

Wiberg/Mayer (AO) data.
largest (>0.10) Wiberg bond orders for each atom

 ---------------------------------------------------------------------------
     #   Z sym  total        # sym  WBO       # sym  WBO       # sym  WBO
 ---------------------------------------------------------------------------
     1   6 C    3.912 --    27 H    0.987    26 H    0.980    28 H    0.980
                             2 O    0.940
     2   8 O    2.133 --     3 C    1.012     1 C    0.940
     3   6 C    3.815 --     4 O    1.542     5 C    1.125     2 O    1.012
     4   8 O    1.813 --     3 C    1.542
     5   6 C    3.919 --     6 C    1.245    25 N    1.242     3 C    1.125
                             7 O    0.102
     6   6 C    3.908 --     7 O    1.426     5 C    1.245     8 C    0.992
     7   8 O    1.677 --     6 C    1.426     5 C    0.102
     8   6 C    3.876 --     9 O    1.516    10 N    1.204     6 C    0.992
     9   8 O    1.790 --     8 C    1.516    10 N    0.143
    10   7 N    3.323 --     8 C    1.204    11 C    0.933    29 H    0.913
                             9 O    0.143
    11   6 C    3.937 --    25 N    1.073    12 C    0.979    10 N    0.933
                            13 C    0.852
    12   6 C    3.992 --    30 H    0.985    31 H    0.985    32 H    0.984
                            11 C    0.979
    13   6 C    3.925 --    15 C    1.001    14 C    1.000    16 N    0.958
                            11 C    0.852
    14   6 C    3.994 --    13 C    1.000    34 H    0.986    35 H    0.982
                            33 H    0.978
    15   6 C    3.996 --    13 C    1.001    37 H    0.986    36 H    0.985
                            38 H    0.979
    16   7 N    3.312 --    17 C    1.169    13 C    0.958    39 H    0.912
                            18 O    0.141
    17   6 C    3.900 --    18 O    1.450    16 N    1.169    19 C    1.093
    18   8 O    1.784 --    17 C    1.450    16 N    0.141
    19   6 C    3.747 --    20 N    1.475    17 C    1.093    24 O    0.990
    20   7 N    2.814 --    19 C    1.475    21 N    1.181
    21   7 N    2.980 --    22 C    1.634    20 N    1.181
    22   6 C    3.833 --    21 N    1.634    24 O    1.048    23 C    1.025
    23   6 C    3.993 --    22 C    1.025    40 H    0.985    41 H    0.971
                            42 H    0.968
    24   8 O    2.223 --    22 C    1.048    19 C    0.990
    25   7 N    2.725 --     5 C    1.242    11 C    1.073
    26   1 H    1.018 --     1 C    0.980
    27   1 H    1.018 --     1 C    0.987
    28   1 H    1.018 --     1 C    0.980
    29   1 H    0.965 --    10 N    0.913
    30   1 H    1.016 --    12 C    0.985
    31   1 H    1.007 --    12 C    0.985
    32   1 H    1.015 --    12 C    0.984
    33   1 H    1.030 --    14 C    0.978
    34   1 H    1.006 --    14 C    0.986
    35   1 H    1.005 --    14 C    0.982
    36   1 H    1.014 --    15 C    0.985
    37   1 H    1.009 --    15 C    0.986
    38   1 H    1.028 --    15 C    0.979
    39   1 H    0.963 --    16 N    0.912
    40   1 H    1.003 --    23 C    0.985
    41   1 H    1.000 --    23 C    0.971
    42   1 H    1.000 --    23 C    0.968
 ---------------------------------------------------------------------------

Topologies differ in total number of bonds
Writing topology from bond orders to xtbtopo.mol

 dipole moment from electron density (au)
     X       Y       Z   
   6.5997  -5.7034   4.9415  total (Debye):   25.481

           -------------------------------------------------
          |                Geometry Summary                 |
           -------------------------------------------------

      molecular mass/u    :      351.3152409
   center of mass at/Å    :       -0.0925562       0.3507969      -0.3463370
  moments of inertia/u·Å² :        0.9019644E+03   0.4714515E+04   0.5110648E+04
rotational constants/cm⁻¹ :        0.1868991E-01   0.3575687E-02   0.3298531E-02

 * 36 selected distances

     #   Z          #   Z                                           value/Å
     1   6 C        2   8 O                                       1.4145207
     2   8 O        3   6 C                                       1.3726566
     3   6 C        4   8 O                                       1.2343823
     5   6 C        6   6 C                                       1.4244803
     8   6 C        9   8 O                                       1.2417895
     8   6 C       10   7 N                                       1.3604256
    10   7 N       11   6 C                                       1.4499381
    13   6 C       14   6 C                                       1.5333867 (max)
    13   6 C       15   6 C                                       1.5312573
    13   6 C       16   7 N                                       1.4464223
    16   7 N       17   6 C                                       1.3706070
    17   6 C       19   6 C                                       1.4489775
    19   6 C       20   7 N                                       1.3226898
    21   7 N       22   6 C                                       1.2916196
    22   6 C       23   6 C                                       1.4827895
    19   6 C       24   8 O                                       1.3750704
    22   6 C       24   8 O                                       1.3531266
     5   6 C       25   7 N                                       1.3692386
    11   6 C       25   7 N                                       1.4063986
     1   6 C       26   1 H                                       1.0958937
     1   6 C       27   1 H                                       1.0903728
     1   6 C       28   1 H                                       1.0959704
    10   7 N       29   1 H                                       1.0078663
    12   6 C       30   1 H                                       1.0893330
    12   6 C       31   1 H                                       1.0882263
    12   6 C       32   1 H                                       1.0871291
    14   6 C       33   1 H                                       1.0916512
    14   6 C       34   1 H                                       1.0899299
    14   6 C       35   1 H                                       1.0887900
    15   6 C       36   1 H                                       1.0906232
    15   6 C       37   1 H                                       1.0898839
    15   6 C       38   1 H                                       1.0892561
    16   7 N       39   1 H                                       1.0066982 (min)
    23   6 C       40   1 H                                       1.0873216
    23   6 C       41   1 H                                       1.0895685
    23   6 C       42   1 H                                       1.0903735

 * 5 distinct bonds (by element types)

   Z      Z             #   av. dist./Å        max./Å        min./Å
   1 H    6 C          15     1.0902882     1.0959704     1.0871291
   6 C    6 C           5     1.4841783     1.5333867     1.4244803
   1 H    7 N           2     1.0072823     1.0078663     1.0066982
   6 C    7 N           8     1.3771675     1.4499381     1.2916196
   6 C    8 O           6     1.3319244     1.4145207     1.2343823


optimized geometry written to: xtbopt.xyz


           -------------------------------------------------
          | TOTAL ENERGY              -83.626620161171 Eh   |
          | GRADIENT NORM               0.000494045493 Eh/α |
          | HOMO-LUMO GAP               0.295494967240 eV   |
           -------------------------------------------------

------------------------------------------------------------------------
 * finished run on 2023/06/21 at 17:07:52.462     
------------------------------------------------------------------------
 total:
 * wall-time:     0 d,  0 h,  0 min,  7.231 sec
 *  cpu-time:     0 d,  0 h,  0 min,  7.132 sec
 * ratio c/w:     0.986 speedup
 SCF:
 * wall-time:     0 d,  0 h,  0 min,  0.212 sec
 *  cpu-time:     0 d,  0 h,  0 min,  0.212 sec
 * ratio c/w:     0.999 speedup
 ANC optimizer:
 * wall-time:     0 d,  0 h,  0 min,  6.904 sec
 *  cpu-time:     0 d,  0 h,  0 min,  6.877 sec
 * ratio c/w:     0.996 speedup

