
                                 *****************
                                 * O   R   C   A *
                                 *****************

                                            #,                                       
                                            ###                                      
                                            ####                                     
                                            #####                                    
                                            ######                                   
                                           ########,                                 
                                     ,,################,,,,,                         
                               ,,#################################,,                 
                          ,,##########################################,,             
                       ,#########################################, ''#####,          
                    ,#############################################,,   '####,        
                  ,##################################################,,,,####,       
                ,###########''''           ''''###############################       
              ,#####''   ,,,,##########,,,,          '''####'''          '####       
            ,##' ,,,,###########################,,,                        '##       
           ' ,,###''''                  '''############,,,                           
         ,,##''                                '''############,,,,        ,,,,,,###''
      ,#''                                            '''#######################'''  
     '                                                          ''''####''''         
             ,#######,   #######,   ,#######,      ##                                
            ,#'     '#,  ##    ##  ,#'     '#,    #''#        ######   ,####,        
            ##       ##  ##   ,#'  ##            #'  '#       #        #'  '#        
            ##       ##  #######   ##           ,######,      #####,   #    #        
            '#,     ,#'  ##    ##  '#,     ,#' ,#      #,         ##   #,  ,#        
             '#######'   ##     ##  '#######'  #'      '#     #####' # '####'        



                  #######################################################
                  #                        -***-                        #
                  #          Department of theory and spectroscopy      #
                  #    Directorship and core code : Frank Neese         #
                  #        Max Planck Institute fuer Kohlenforschung    #
                  #                Kaiser Wilhelm Platz 1               #
                  #                 D-45470 Muelheim/Ruhr               #
                  #                      Germany                        #
                  #                                                     #
                  #                  All rights reserved                #
                  #                        -***-                        #
                  #######################################################


                         Program Version 5.0.1 -  RELEASE  -


 With contributions from (in alphabetic order):
   Daniel Aravena         : Magnetic Suceptibility
   Michael Atanasov       : Ab Initio Ligand Field Theory (pilot matlab implementation)
   Alexander A. Auer      : GIAO ZORA, VPT2 properties, NMR spectrum
   Ute Becker             : Parallelization
   Giovanni Bistoni       : ED, misc. LED, open-shell LED, HFLD
   Martin Brehm           : Molecular dynamics
   Dmytro Bykov           : SCF Hessian
   Vijay G. Chilkuri      : MRCI spin determinant printing, contributions to CSF-ICE
   Dipayan Datta          : RHF DLPNO-CCSD density
   Achintya Kumar Dutta   : EOM-CC, STEOM-CC
   Dmitry Ganyushin       : Spin-Orbit,Spin-Spin,Magnetic field MRCI
   Miquel Garcia          : C-PCM and meta-GGA Hessian, CC/C-PCM, Gaussian charge scheme
   Yang Guo               : DLPNO-NEVPT2, F12-NEVPT2, CIM, IAO-localization
   Andreas Hansen         : Spin unrestricted coupled pair/coupled cluster methods
   Benjamin Helmich-Paris : MC-RPA, TRAH-SCF, COSX integrals
   Lee Huntington         : MR-EOM, pCC
   Robert Izsak           : Overlap fitted RIJCOSX, COSX-SCS-MP3, EOM
   Marcus Kettner         : VPT2
   Christian Kollmar      : KDIIS, OOCD, Brueckner-CCSD(T), CCSD density, CASPT2, CASPT2-K
   Simone Kossmann        : Meta GGA functionals, TD-DFT gradient, OOMP2, MP2 Hessian
   Martin Krupicka        : Initial AUTO-CI
   Lucas Lang             : DCDCAS
   Marvin Lechner         : AUTO-CI (C++ implementation), FIC-MRCC
   Dagmar Lenk            : GEPOL surface, SMD
   Dimitrios Liakos       : Extrapolation schemes; Compound Job, initial MDCI parallelization
   Dimitrios Manganas     : Further ROCIS development; embedding schemes
   Dimitrios Pantazis     : SARC Basis sets
   Anastasios Papadopoulos: AUTO-CI, single reference methods and gradients
   Taras Petrenko         : DFT Hessian,TD-DFT gradient, ASA, ECA, R-Raman, ABS, FL, XAS/XES, NRVS
   Peter Pinski           : DLPNO-MP2, DLPNO-MP2 Gradient
   Christoph Reimann      : Effective Core Potentials
   Marius Retegan         : Local ZFS, SOC
   Christoph Riplinger    : Optimizer, TS searches, QM/MM, DLPNO-CCSD(T), (RO)-DLPNO pert. Triples
   Tobias Risthaus        : Range-separated hybrids, TD-DFT gradient, RPA, STAB
   Michael Roemelt        : Original ROCIS implementation
   Masaaki Saitow         : Open-shell DLPNO-CCSD energy and density
   Barbara Sandhoefer     : DKH picture change effects
   Avijit Sen             : IP-ROCIS
   Kantharuban Sivalingam : CASSCF convergence, NEVPT2, FIC-MRCI
   Bernardo de Souza      : ESD, SOC TD-DFT
   Georgi Stoychev        : AutoAux, RI-MP2 NMR, DLPNO-MP2 response
   Willem Van den Heuvel  : Paramagnetic NMR
   Boris Wezisla          : Elementary symmetry handling
   Frank Wennmohs         : Technical directorship


 We gratefully acknowledge several colleagues who have allowed us to
 interface, adapt or use parts of their codes:
   Stefan Grimme, W. Hujo, H. Kruse, P. Pracht,  : VdW corrections, initial TS optimization,
                  C. Bannwarth, S. Ehlert          DFT functionals, gCP, sTDA/sTD-DF
   Ed Valeev, F. Pavosevic, A. Kumar             : LibInt (2-el integral package), F12 methods
   Garnet Chan, S. Sharma, J. Yang, R. Olivares  : DMRG
   Ulf Ekstrom                                   : XCFun DFT Library
   Mihaly Kallay                                 : mrcc  (arbitrary order and MRCC methods)
   Jiri Pittner, Ondrej Demel                    : Mk-CCSD
   Frank Weinhold                                : gennbo (NPA and NBO analysis)
   Christopher J. Cramer and Donald G. Truhlar   : smd solvation model
   Lars Goerigk                                  : TD-DFT with DH, B97 family of functionals
   V. Asgeirsson, H. Jonsson                     : NEB implementation
   FAccTs GmbH                                   : IRC, NEB, NEB-TS, DLPNO-Multilevel, CI-OPT
                                                   MM, QMMM, 2- and 3-layer-ONIOM, Crystal-QMMM,
                                                   LR-CPCM, SF, NACMEs, symmetry and pop. for TD-DFT,
                                                   nearIR, NL-DFT gradient (VV10), updates on ESD,
                                                   ML-optimized integration grids
   S Lehtola, MJT Oliveira, MAL Marques          : LibXC Library
   Liviu Ungur et al                             : ANISO software


 Your calculation uses the libint2 library for the computation of 2-el integrals
 For citations please refer to: http://libint.valeyev.net

 Your ORCA version has been built with support for libXC version: 5.1.0
 For citations please refer to: https://tddft.org/programs/libxc/

 This ORCA versions uses:
   CBLAS   interface :  Fast vector & matrix operations
   LAPACKE interface :  Fast linear algebra routines
   SCALAPACK package :  Parallel linear algebra routines
   Shared memory     :  Shared parallel matrices
   BLAS/LAPACK       :  OpenBLAS 0.3.15  USE64BITINT DYNAMIC_ARCH NO_AFFINITY Zen SINGLE_THREADED
        Core in use  :  Zen
   Copyright (c) 2011-2014, The OpenBLAS Project


Your calculation utilizes the geometrical counterpoise correction gCP
Please cite in your paper:
H.Kruse, S. Grimme J.Chem.Phys., 136, (2012), 154101 
   

Your calculation utilizes the atom-pairwise dispersion correction
based on tight binding partial charges (D4)
Cite in your paper:
E.Caldeweyher, C.Bannwarth, S.Grimme, J.Chem.Phys., (2017), 147, 034112.
E.Caldeweyher, S.Ehlert, A.Hansen, H.Neugebauer, S.Grimme, J.Chem.Phys., (2018), in progress.
   

Your calculation utilizes the SMD solvation module
Please cite in your paper:
A.V. Marenich, C.J. Cramer, D.G. Truhlar J. Phys. Chem. B, 113, (2009), 6378 

================================================================================

----- Orbital basis set information -----
Your calculation utilizes the basis: def2-mTZVPP
   Stefan Grimme, Andreas Hansen, Sebastian Ehlert, and Jan-Michael Mewes 
   J. Chem. Phys. 154, 000000 (2021). DOI: 10.1063/5.0040021

----- AuxJ basis set information -----
Your calculation utilizes the basis: def2-mTZVPP/J
   Stefan Grimme, Andreas Hansen, Sebastian Ehlert, and Jan-Michael Mewes 
   J. Chem. Phys. 154, 000000 (2021). DOI: 10.1063/5.0040021

================================================================================
                                        WARNINGS
                       Please study these warnings very carefully!
================================================================================

Using LibXC functional ID 497 : Re-regularized SCAN exchange by Furness et al
[ 1]  J. W. Furness, A. D. Kaplan, J. Ning, J. P. Perdew, and J. Sun, J. Phys. Chem. Lett. 11, 8208 (2020)
[ 2]  J. W. Furness, A. D. Kaplan, J. Ning, J. P. Perdew, and J. Sun, J. Phys. Chem. Lett. 11, 9248 (2020)
Using LibXC functional ID 498 : Re-regularized SCAN correlation by Furness et al
[ 1]  J. W. Furness, A. D. Kaplan, J. Ning, J. P. Perdew, and J. Sun, J. Phys. Chem. Lett. 11, 8208 (2020)
[ 2]  J. W. Furness, A. D. Kaplan, J. Ning, J. P. Perdew, and J. Sun, J. Phys. Chem. Lett. 11, 9248 (2020)
Using LibXC functional ID 497 : Re-regularized SCAN exchange by Furness et al
[ 1]  J. W. Furness, A. D. Kaplan, J. Ning, J. P. Perdew, and J. Sun, J. Phys. Chem. Lett. 11, 8208 (2020)
[ 2]  J. W. Furness, A. D. Kaplan, J. Ning, J. P. Perdew, and J. Sun, J. Phys. Chem. Lett. 11, 9248 (2020)
Using LibXC functional ID 498 : Re-regularized SCAN correlation by Furness et al
[ 1]  J. W. Furness, A. D. Kaplan, J. Ning, J. P. Perdew, and J. Sun, J. Phys. Chem. Lett. 11, 8208 (2020)
[ 2]  J. W. Furness, A. D. Kaplan, J. Ning, J. P. Perdew, and J. Sun, J. Phys. Chem. Lett. 11, 9248 (2020)

INFO   : the flag for use of the SHARK integral package has been found!

================================================================================
                                       INPUT FILE
================================================================================
NAME = /lustre/hpc/kemi/ree/PhD/git/ReactivityQM/calculations/R03/reac02prodN02/conf07/gfn1/orca_calc.inp
|  1> # ORCA input file 
|  2> ! SP r2SCAN-3c CPCM 
|  3> 
|  4> %maxcore 1875.0 
|  5> %pal nprocs 4 end 
|  6> %cpcm smd true SMDsolvent "DMSO" end 
|  7> 
|  8> *xyz 1 1
|  9> C      -5.677754   -1.888632    0.943796
| 10> O      -4.456463   -1.256754    0.537412
| 11> C      -4.378702    0.052137    0.713722
| 12> O      -5.277638    0.720093    1.192651
| 13> C      -3.092850    0.644412    0.276021
| 14> N      -2.142568   -0.198754   -0.227436
| 15> C      -1.005350    0.260758   -0.631869
| 16> C      -0.064744   -0.785090   -1.212364
| 17> C      -0.477917   -2.179895   -0.722474
| 18> C      -0.097288   -0.746103   -2.743301
| 19> N       1.326786   -0.564808   -0.776907
| 20> C       1.709915   -0.415335    0.468279
| 21> O       0.806095   -0.361989    1.399847
| 22> C       1.136885   -0.199638    2.790153
| 23> C       3.123573   -0.291181    0.715760
| 24> N       3.771815   -0.138106    1.838486
| 25> N       5.077252   -0.063107    1.530240
| 26> C       5.172860   -0.171384    0.230892
| 27> C       6.392254   -0.139364   -0.596168
| 28> O       3.969854   -0.318314   -0.335109
| 29> N      -0.704277    1.595696   -0.599267
| 30> C       0.552750    2.177219   -1.069896
| 31> C      -1.577332    2.542142   -0.049989
| 32> O      -1.250603    3.714097    0.026092
| 33> C      -2.858759    1.991498    0.389046
| 34> O      -3.731196    2.864713    0.887093
| 35> H      -6.514815   -1.482716    0.371341
| 36> H      -5.557365   -2.950889    0.742494
| 37> H      -5.847783   -1.717546    2.008992
| 38> H      -0.516605   -2.204280    0.364350
| 39> H      -1.464726   -2.419375   -1.114298
| 40> H       0.240912   -2.915927   -1.075777
| 41> H       0.538712   -1.533250   -3.143605
| 42> H       0.245148    0.212008   -3.126789
| 43> H      -1.119529   -0.913426   -3.079656
| 44> H       2.053162   -0.646970   -1.474667
| 45> H       1.749698   -1.037896    3.124121
| 46> H       1.679028    0.735584    2.936960
| 47> H       0.183912   -0.183486    3.315680
| 48> H       6.370204    0.738568   -1.243283
| 49> H       6.427048   -1.021415   -1.235180
| 50> H       7.272868   -0.103446    0.040890
| 51> H       0.323524    3.123605   -1.560796
| 52> H       1.203420    2.364918   -0.215797
| 53> H       1.045068    1.514834   -1.768787
| 54> H      -4.558479    2.402138    1.159098
| 55> **                         ****END OF INPUT****
================================================================================

                       ****************************
                       * Single Point Calculation *
                       ****************************

---------------------------------
CARTESIAN COORDINATES (ANGSTROEM)
---------------------------------
  C     -5.677754   -1.888632    0.943796
  O     -4.456463   -1.256754    0.537412
  C     -4.378702    0.052137    0.713722
  O     -5.277638    0.720093    1.192651
  C     -3.092850    0.644412    0.276021
  N     -2.142568   -0.198754   -0.227436
  C     -1.005350    0.260758   -0.631869
  C     -0.064744   -0.785090   -1.212364
  C     -0.477917   -2.179895   -0.722474
  C     -0.097288   -0.746103   -2.743301
  N      1.326786   -0.564808   -0.776907
  C      1.709915   -0.415335    0.468279
  O      0.806095   -0.361989    1.399847
  C      1.136885   -0.199638    2.790153
  C      3.123573   -0.291181    0.715760
  N      3.771815   -0.138106    1.838486
  N      5.077252   -0.063107    1.530240
  C      5.172860   -0.171384    0.230892
  C      6.392254   -0.139364   -0.596168
  O      3.969854   -0.318314   -0.335109
  N     -0.704277    1.595696   -0.599267
  C      0.552750    2.177219   -1.069896
  C     -1.577332    2.542142   -0.049989
  O     -1.250603    3.714097    0.026092
  C     -2.858759    1.991498    0.389046
  O     -3.731196    2.864713    0.887093
  H     -6.514815   -1.482716    0.371341
  H     -5.557365   -2.950889    0.742494
  H     -5.847783   -1.717546    2.008992
  H     -0.516605   -2.204280    0.364350
  H     -1.464726   -2.419375   -1.114298
  H      0.240912   -2.915927   -1.075777
  H      0.538712   -1.533250   -3.143605
  H      0.245148    0.212008   -3.126789
  H     -1.119529   -0.913426   -3.079656
  H      2.053162   -0.646970   -1.474667
  H      1.749698   -1.037896    3.124121
  H      1.679028    0.735584    2.936960
  H      0.183912   -0.183486    3.315680
  H      6.370204    0.738568   -1.243283
  H      6.427048   -1.021415   -1.235180
  H      7.272868   -0.103446    0.040890
  H      0.323524    3.123605   -1.560796
  H      1.203420    2.364918   -0.215797
  H      1.045068    1.514834   -1.768787
  H     -4.558479    2.402138    1.159098

----------------------------
CARTESIAN COORDINATES (A.U.)
----------------------------
  NO LB      ZA    FRAG     MASS         X           Y           Z
   0 C     6.0000    0    12.011  -10.729400   -3.568997    1.783516
   1 O     8.0000    0    15.999   -8.421495   -2.374921    1.015562
   2 C     6.0000    0    12.011   -8.274548    0.098525    1.348739
   3 O     8.0000    0    15.999   -9.973290    1.360779    2.253784
   4 C     6.0000    0    12.011   -5.844639    1.217762    0.521604
   5 N     7.0000    0    14.007   -4.048867   -0.375591   -0.429792
   6 C     6.0000    0    12.011   -1.899836    0.492761   -1.194059
   7 C     6.0000    0    12.011   -0.122348   -1.483605   -2.291036
   8 C     6.0000    0    12.011   -0.903132   -4.119405   -1.365278
   9 C     6.0000    0    12.011   -0.183848   -1.409930   -5.184088
  10 N     7.0000    0    14.007    2.507262   -1.067332   -1.468141
  11 C     6.0000    0    12.011    3.231271   -0.784869    0.884919
  12 O     8.0000    0    15.999    1.523299   -0.684060    2.645327
  13 C     6.0000    0    12.011    2.148401   -0.377261    5.272625
  14 C     6.0000    0    12.011    5.902698   -0.550252    1.352590
  15 N     7.0000    0    14.007    7.127697   -0.260983    3.474235
  16 N     7.0000    0    14.007    9.594616   -0.119255    2.891735
  17 C     6.0000    0    12.011    9.775289   -0.323869    0.436323
  18 C     6.0000    0    12.011   12.079609   -0.263360   -1.126594
  19 O     8.0000    0    15.999    7.501937   -0.601526   -0.633264
  20 N     7.0000    0    14.007   -1.330891    3.015428   -1.132451
  21 C     6.0000    0    12.011    1.044546    4.114348   -2.021810
  22 C     6.0000    0    12.011   -2.980726    4.803952   -0.094466
  23 O     8.0000    0    15.999   -2.363297    7.018626    0.049307
  24 C     6.0000    0    12.011   -5.402272    3.763386    0.735190
  25 O     8.0000    0    15.999   -7.050939    5.413523    1.676363
  26 H     1.0000    0     1.008  -12.311216   -2.801927    0.701733
  27 H     1.0000    0     1.008  -10.501898   -5.576372    1.403110
  28 H     1.0000    0     1.008  -11.050708   -3.245692    3.796445
  29 H     1.0000    0     1.008   -0.976242   -4.165486    0.688522
  30 H     1.0000    0     1.008   -2.767931   -4.571956   -2.105718
  31 H     1.0000    0     1.008    0.455258   -5.510303   -2.032924
  32 H     1.0000    0     1.008    1.018018   -2.897423   -5.940553
  33 H     1.0000    0     1.008    0.463263    0.400637   -5.908775
  34 H     1.0000    0     1.008   -2.115603   -1.726125   -5.819706
  35 H     1.0000    0     1.008    3.879914   -1.222596   -2.786717
  36 H     1.0000    0     1.008    3.306450   -1.961339    5.903733
  37 H     1.0000    0     1.008    3.172903    1.390052    5.550050
  38 H     1.0000    0     1.008    0.347543   -0.346738    6.265727
  39 H     1.0000    0     1.008   12.037941    1.395691   -2.349464
  40 H     1.0000    0     1.008   12.145361   -1.930195   -2.334152
  41 H     1.0000    0     1.008   13.743729   -0.195485    0.077271
  42 H     1.0000    0     1.008    0.611372    5.902758   -2.949477
  43 H     1.0000    0     1.008    2.274134    4.469047   -0.407797
  44 H     1.0000    0     1.008    1.974892    2.862621   -3.342523
  45 H     1.0000    0     1.008   -8.614277    4.539383    2.190378

--------------------------------
INTERNAL COORDINATES (ANGSTROEM)
--------------------------------
 C      0   0   0     0.000000000000     0.00000000     0.00000000
 O      1   0   0     1.433865219964     0.00000000     0.00000000
 C      2   1   0     1.322999485677   116.63305258     0.00000000
 O      3   2   1     1.218041106479   123.47402686   359.96058164
 C      3   2   1     1.481818884658   114.02100171   179.93035711
 N      5   3   2     1.366540791169   117.75146912   358.95878867
 C      6   5   3     1.291503816935   120.54133365   179.60747297
 C      7   6   5     1.521680692972   114.78506055   182.04400490
 C      8   7   6     1.534987012340   109.65750158   339.58630025
 C      8   7   6     1.531779095064   110.52689629   100.59483938
 N      8   7   6     1.474619510000   111.59134048   220.97702518
 C     11   8   7     1.311342130402   124.96905460    51.83049752
 O     12  11   8     1.299059400774   118.83826287   354.99004642
 C     13  12  11     1.438308257967   122.53398151   180.01043344
 C     12  11   8     1.440517268915   117.36613097   176.26885674
 N     15  12  11     1.305436064028   130.17868071   180.17559350
 N     16  15  12     1.343430760213   106.96218876   180.50851803
 C     17  16  15     1.307352295098   107.12643270     0.09797912
 C     18  17  16     1.473762277722   128.05829977   179.50945201
 O     18  17  16     1.337598218052   111.33877953   359.90550813
 N      7   6   5     1.368856203396   122.22135192   358.91149765
 C     21   7   6     1.462797844509   124.68288162   181.40897557
 C     21   7   6     1.399889776098   122.10739984     3.98046163
 O     23  21   7     1.219023658518   120.48502885   176.21114958
 C      5   3   2     1.371938022763   121.07653812   179.79116319
 O     25   5   3     1.331052804889   124.27305806     0.13322278
 H      1   2   3     1.092311147889   109.90223679    61.16508576
 H      1   2   3     1.087844630714   106.47576542   180.90211107
 H      1   2   3     1.092164272742   109.87619149   300.62274972
 H      9   8   7     1.087785730990   110.41456183   304.90794663
 H      9   8   7     1.088424880209   109.21295127    64.51888786
 H      9   8   7     1.087787316562   109.46980018   184.35994320
 H     10   8   7     1.088273721095   109.68239094   182.99099326
 H     10   8   7     1.087337182552   111.60636166    62.24206451
 H     10   8   7     1.089086008741   108.94759818   302.09601492
 H     11   8   7     1.010565042548   117.53179549   223.96309798
 H     14  13  12     1.090757018110   109.78101511   299.02283519
 H     14  13  12     1.090922323991   109.94632595    59.89414341
 H     14  13  12     1.088391957689   105.48804420   179.57222494
 H     19  18  17     1.090875163504   109.49124808   244.82452700
 H     19  18  17     1.089752689917   109.74920533   126.79418322
 H     19  18  17     1.087480581474   109.99729134     5.45917538
 H     22  21   7     1.090492471350   108.01129566   141.66888124
 H     22  21   7     1.089994250123   109.22811245   260.32461695
 H     22  21   7     1.081471003416   110.83152036    21.52969798
 H     26  25   5     0.986082913724   110.20383474     0.05879094

---------------------------
INTERNAL COORDINATES (A.U.)
---------------------------
 C      0   0   0     0.000000000000     0.00000000     0.00000000
 O      1   0   0     2.709612578686     0.00000000     0.00000000
 C      2   1   0     2.500106703248   116.63305258     0.00000000
 O      3   2   1     2.301764111104   123.47402686   359.96058164
 C      3   2   1     2.800231872077   114.02100171   179.93035711
 N      5   3   2     2.582387846142   117.75146912   358.95878867
 C      6   5   3     2.440588514921   120.54133365   179.60747297
 C      7   6   5     2.875559772993   114.78506055   182.04400490
 C      8   7   6     2.900705072450   109.65750158   339.58630025
 C      8   7   6     2.894642987336   110.52689629   100.59483938
 N      8   7   6     2.786627025637   111.59134048   220.97702518
 C     11   8   7     2.478077494332   124.96905460    51.83049752
 O     12  11   8     2.454866499159   118.83826287   354.99004642
 C     13  12  11     2.718008703716   122.53398151   180.01043344
 C     12  11   8     2.722183129433   117.36613097   176.26885674
 N     15  12  11     2.466916646357   130.17868071   180.17559350
 N     16  15  12     2.538716216688   106.96218876   180.50851803
 C     17  16  15     2.470537798288   107.12643270     0.09797912
 C     18  17  16     2.785007091398   128.05829977   179.50945201
 O     18  17  16     2.527694309340   111.33877953   359.90550813
 N      7   6   5     2.586763341139   122.22135192   358.91149765
 C     21   7   6     2.764287315412   124.68288162   181.40897557
 C     21   7   6     2.645408294502   122.10739984     3.98046163
 O     23  21   7     2.303620865370   120.48502885   176.21114958
 C      5   3   2     2.592587135735   121.07653812   179.79116319
 O     25   5   3     2.515325271028   124.27305806     0.13322278
 H      1   2   3     2.064168922539   109.90223679    61.16508576
 H      1   2   3     2.055728428307   106.47576542   180.90211107
 H      1   2   3     2.063891368735   109.87619149   300.62274972
 H      9   8   7     2.055617123958   110.41456183   304.90794663
 H      9   8   7     2.056824940940   109.21295127    64.51888786
 H      9   8   7     2.055620120256   109.46980018   184.35994320
 H     10   8   7     2.056539291612   109.68239094   182.99099326
 H     10   8   7     2.054769490254   111.60636166    62.24206451
 H     10   8   7     2.058074292806   108.94759818   302.09601492
 H     11   8   7     1.909691170930   117.53179549   223.96309798
 H     14  13  12     2.061232042881   109.78101511   299.02283519
 H     14  13  12     2.061544425724   109.94632595    59.89414341
 H     14  13  12     2.056762726395   105.48804420   179.57222494
 H     19  18  17     2.061455305318   109.49124808   244.82452700
 H     19  18  17     2.059334137647   109.74920533   126.79418322
 H     19  18  17     2.055040474944   109.99729134     5.45917538
 H     22  21   7     2.060732121955   108.01129566   141.66888124
 H     22  21   7     2.059790620282   109.22811245   260.32461695
 H     22  21   7     2.043684018234   110.83152036    21.52969798
 H     26  25   5     1.863426652278   110.20383474     0.05879094

---------------------
BASIS SET INFORMATION
---------------------
There are 4 groups of distinct atoms

 Group   1 Type C   : 11s6p1d contracted to 5s3p1d pattern {62111/411/1}
 Group   2 Type O   : 11s6p2d contracted to 5s3p2d pattern {62111/411/11}
 Group   3 Type N   : 11s6p2d contracted to 5s3p2d pattern {62111/411/11}
 Group   4 Type H   : 4s1p contracted to 2s1p pattern {31/1}

Atom   0C    basis set group =>   1
Atom   1O    basis set group =>   2
Atom   2C    basis set group =>   1
Atom   3O    basis set group =>   2
Atom   4C    basis set group =>   1
Atom   5N    basis set group =>   3
Atom   6C    basis set group =>   1
Atom   7C    basis set group =>   1
Atom   8C    basis set group =>   1
Atom   9C    basis set group =>   1
Atom  10N    basis set group =>   3
Atom  11C    basis set group =>   1
Atom  12O    basis set group =>   2
Atom  13C    basis set group =>   1
Atom  14C    basis set group =>   1
Atom  15N    basis set group =>   3
Atom  16N    basis set group =>   3
Atom  17C    basis set group =>   1
Atom  18C    basis set group =>   1
Atom  19O    basis set group =>   2
Atom  20N    basis set group =>   3
Atom  21C    basis set group =>   1
Atom  22C    basis set group =>   1
Atom  23O    basis set group =>   2
Atom  24C    basis set group =>   1
Atom  25O    basis set group =>   2
Atom  26H    basis set group =>   4
Atom  27H    basis set group =>   4
Atom  28H    basis set group =>   4
Atom  29H    basis set group =>   4
Atom  30H    basis set group =>   4
Atom  31H    basis set group =>   4
Atom  32H    basis set group =>   4
Atom  33H    basis set group =>   4
Atom  34H    basis set group =>   4
Atom  35H    basis set group =>   4
Atom  36H    basis set group =>   4
Atom  37H    basis set group =>   4
Atom  38H    basis set group =>   4
Atom  39H    basis set group =>   4
Atom  40H    basis set group =>   4
Atom  41H    basis set group =>   4
Atom  42H    basis set group =>   4
Atom  43H    basis set group =>   4
Atom  44H    basis set group =>   4
Atom  45H    basis set group =>   4
---------------------------------
AUXILIARY/J BASIS SET INFORMATION
---------------------------------
There are 4 groups of distinct atoms

 Group   1 Type C   : 8s3p3d contracted to 6s3p3d pattern {311111/111/111}
 Group   2 Type O   : 8s3p3d contracted to 6s3p3d pattern {311111/111/111}
 Group   3 Type N   : 8s3p3d contracted to 6s3p3d pattern {311111/111/111}
 Group   4 Type H   : 5s2p1d contracted to 3s1p1d pattern {311/2/1}

Atom   0C    basis set group =>   1
Atom   1O    basis set group =>   2
Atom   2C    basis set group =>   1
Atom   3O    basis set group =>   2
Atom   4C    basis set group =>   1
Atom   5N    basis set group =>   3
Atom   6C    basis set group =>   1
Atom   7C    basis set group =>   1
Atom   8C    basis set group =>   1
Atom   9C    basis set group =>   1
Atom  10N    basis set group =>   3
Atom  11C    basis set group =>   1
Atom  12O    basis set group =>   2
Atom  13C    basis set group =>   1
Atom  14C    basis set group =>   1
Atom  15N    basis set group =>   3
Atom  16N    basis set group =>   3
Atom  17C    basis set group =>   1
Atom  18C    basis set group =>   1
Atom  19O    basis set group =>   2
Atom  20N    basis set group =>   3
Atom  21C    basis set group =>   1
Atom  22C    basis set group =>   1
Atom  23O    basis set group =>   2
Atom  24C    basis set group =>   1
Atom  25O    basis set group =>   2
Atom  26H    basis set group =>   4
Atom  27H    basis set group =>   4
Atom  28H    basis set group =>   4
Atom  29H    basis set group =>   4
Atom  30H    basis set group =>   4
Atom  31H    basis set group =>   4
Atom  32H    basis set group =>   4
Atom  33H    basis set group =>   4
Atom  34H    basis set group =>   4
Atom  35H    basis set group =>   4
Atom  36H    basis set group =>   4
Atom  37H    basis set group =>   4
Atom  38H    basis set group =>   4
Atom  39H    basis set group =>   4
Atom  40H    basis set group =>   4
Atom  41H    basis set group =>   4
Atom  42H    basis set group =>   4
Atom  43H    basis set group =>   4
Atom  44H    basis set group =>   4
Atom  45H    basis set group =>   4


           ************************************************************
           *        Program running with 4 parallel MPI-processes     *
           *              working on a common directory               *
           ************************************************************
------------------------------------------------------------------------------
                           ORCA GTO INTEGRAL CALCULATION
                           -- RI-GTO INTEGRALS CHOSEN --
------------------------------------------------------------------------------
------------------------------------------------------------------------------
                   ___                                                        
                  /   \      - P O W E R E D   B Y -                         
                 /     \                                                     
                 |  |  |   _    _      __       _____    __    __             
                 |  |  |  | |  | |    /  \     |  _  \  |  |  /  |          
                  \  \/   | |  | |   /    \    | | | |  |  | /  /          
                 / \  \   | |__| |  /  /\  \   | |_| |  |  |/  /          
                |  |  |   |  __  | /  /__\  \  |    /   |      \           
                |  |  |   | |  | | |   __   |  |    \   |  |\   \          
                \     /   | |  | | |  |  |  |  | |\  \  |  | \   \       
                 \___/    |_|  |_| |__|  |__|  |_| \__\ |__|  \__/        
                                                                              
                      - O R C A' S   B I G   F R I E N D -                    
                                      &                                       
                       - I N T E G R A L  F E E D E R -                       
                                                                              
 v1 FN, 2020, v2 2021                                                         
------------------------------------------------------------------------------


Reading SHARK input file /lustre/hpc/kemi/ree/PhD/git/ReactivityQM/calculations/R03/reac02prodN02/conf07/gfn1/orca_calc.SHARKINP.tmp ... ok
----------------------
SHARK INTEGRAL PACKAGE
----------------------

Number of atoms                             ...     46
Number of basis functions                   ...    649
Number of shells                            ...    305
Maximum angular momentum                    ...      2
Integral batch strategy                     ... SHARK/LIBINT Hybrid
RI-J (if used) integral strategy            ... SPLIT-RIJ (Revised 2003 algorithm where possible)
Printlevel                                  ...      1
Contraction scheme used                     ... SEGMENTED contraction
Coulomb Range Separation                    ... NOT USED
Exchange Range Separation                   ... NOT USED
Finite Nucleus Model                        ... NOT USED
Auxiliary Coulomb fitting basis             ... AVAILABLE
   # of basis functions in Aux-J            ...   1000
   # of shells in Aux-J                     ...    412
   Maximum angular momentum in Aux-J        ...      2
Auxiliary J/K fitting basis                 ... NOT available
Auxiliary Correlation fitting basis         ... NOT available
Auxiliary 'external' fitting basis          ... NOT available
Integral threshold                          ...     1.000000e-10
Primitive cut-off                           ...     1.000000e-11
Primitive pair pre-selection threshold      ...     1.000000e-11

Calculating pre-screening integrals         ... done (  0.3 sec) Dimension = 305
Organizing shell pair data                  ... done (  0.2 sec)
Shell pair information
Total number of shell pairs                 ...     46665
Shell pairs after pre-screening             ...     30382
Total number of primitive shell pairs       ...    168542
Primitive shell pairs kept                  ...     67518
          la=0 lb=0:   8865 shell pairs
          la=1 lb=0:  11042 shell pairs
          la=1 lb=1:   3443 shell pairs
          la=2 lb=0:   4043 shell pairs
          la=2 lb=1:   2505 shell pairs
          la=2 lb=2:    484 shell pairs

Calculating one electron integrals          ... done (  0.1 sec)
Calculating RI/J V-Matrix + Cholesky decomp.... done (  0.1 sec)
Calculating Nuclear repulsion               ... done (  0.0 sec) ENN=   2521.921677202248 Eh

SHARK setup successfully completed in   0.7 seconds

Maximum memory used throughout the entire GTOINT-calculation: 44.2 MB


           ************************************************************
           *        Program running with 4 parallel MPI-processes     *
           *              working on a common directory               *
           ************************************************************
-------------------------------------------------------------------------------
                                 ORCA SCF
-------------------------------------------------------------------------------

------------
SCF SETTINGS
------------
Hamiltonian:
 Density Functional     Method          .... DFT(GTOs)
  Functional kind                       .... Exchange
  Functional name                       .... Re-regularized SCAN exchange by Furness et al
  Functional family                     .... MGGA
  Functional refs                              
    [ 0] J. W. Furness, A. D. Kaplan, J. Ning, J. P. Perdew, and J. Sun, J. Phys. Chem. Lett. 11, 8208 (2020)
    [ 1] J. W. Furness, A. D. Kaplan, J. Ning, J. P. Perdew, and J. Sun, J. Phys. Chem. Lett. 11, 9248 (2020)
  Functional external parameters         .... 8
 Parameter  0 :         c1 parameter
 Parameter  1 :         c2 parameter
 Parameter  2 :          d parameter
 Parameter  3 :         k1 parameter
 Parameter  4 :       taur parameter
 Parameter  5 :     alphar parameter
 Parameter  6 :        eta parameter
 Parameter  7 :        dp2 parameter
  Functional kind                       .... Correlation
  Functional name                       .... Re-regularized SCAN correlation by Furness et al
  Functional family                     .... MGGA
  Functional refs                              
    [ 0] J. W. Furness, A. D. Kaplan, J. Ning, J. P. Perdew, and J. Sun, J. Phys. Chem. Lett. 11, 8208 (2020)
    [ 1] J. W. Furness, A. D. Kaplan, J. Ning, J. P. Perdew, and J. Sun, J. Phys. Chem. Lett. 11, 9248 (2020)
  Functional external parameters         .... 0
 Gradients option       PostSCFGGA      .... off
   Density functional embedding theory  .... OFF
 RI-approximation to the Coulomb term is turned on
   Number of AuxJ basis functions       .... 1000


General Settings:
 Integral files         IntName         .... /lustre/hpc/kemi/ree/PhD/git/ReactivityQM/calculations/R03/reac02prodN02/conf07/gfn1/orca_calc
 Hartree-Fock type      HFTyp           .... RHF
 Total Charge           Charge          ....    1
 Multiplicity           Mult            ....    1
 Number of Electrons    NEL             ....  192
 Basis Dimension        Dim             ....  649
 Nuclear Repulsion      ENuc            ....   2521.9216772022 Eh

Convergence Acceleration:
 DIIS                   CNVDIIS         .... on
   Start iteration      DIISMaxIt       ....    12
   Startup error        DIISStart       ....  0.200000
   # of expansion vecs  DIISMaxEq       ....     5
   Bias factor          DIISBfac        ....   1.050
   Max. coefficient     DIISMaxC        ....  10.000
 Trust-Rad. Augm. Hess. CNVTRAH         .... auto
   Auto Start mean grad. ratio tolernc. ....  1.125000
   Auto Start start iteration           ....    20
   Auto Start num. interpolation iter.  ....    10
   Max. Number of Micro iterations      ....    16
   Max. Number of Macro iterations      .... Maxiter - #DIIS iter
   Number of Davidson start vectors     ....     2
   Converg. threshold I  (grad. norm)   ....   5.000e-05
   Converg. threshold II (energy diff.) ....   1.000e-06
   Grad. Scal. Fac. for Micro threshold ....   0.100
   Minimum threshold for Micro iter.    ....   0.010
   NR start threshold (gradient norm)   ....   0.001
   Initial trust radius                 ....   0.400
   Minimum AH scaling param. (alpha)    ....   1.000
   Maximum AH scaling param. (alpha)    .... 1000.000
   Orbital update algorithm             .... Taylor
   White noise on init. David. guess    .... on
   Maximum white noise                  ....   0.010
   Quad. conv. algorithm                .... NR
   COSX micro iterations for RIJONX calc.... off
 SOSCF                  CNVSOSCF        .... on
   Start iteration      SOSCFMaxIt      ....   150
   Startup grad/error   SOSCFStart      ....  0.003300
 Level Shifting         CNVShift        .... on
   Level shift para.    LevelShift      ....    0.2500
   Turn off err/grad.   ShiftErr        ....    0.0010
 Zerner damping         CNVZerner       .... off
 Static damping         CNVDamp         .... on
   Fraction old density DampFac         ....    0.7000
   Max. Damping (<1)    DampMax         ....    0.9800
   Min. Damping (>=0)   DampMin         ....    0.0000
   Turn off err/grad.   DampErr         ....    0.1000
 Fernandez-Rico         CNVRico         .... off

SCF Procedure:
 Maximum # iterations   MaxIter         ....   125
 SCF integral mode      SCFMode         .... Direct
   Integral package                     .... SHARK and LIBINT hybrid scheme
 Reset frequency        DirectResetFreq ....    20
 Integral Threshold     Thresh          ....  1.000e-10 Eh
 Primitive CutOff       TCut            ....  1.000e-11 Eh

Convergence Tolerance:
 Convergence Check Mode ConvCheckMode   .... Total+1el-Energy
 Convergence forced     ConvForced      .... 0
 Energy Change          TolE            ....  1.000e-06 Eh
 1-El. energy change                    ....  1.000e-03 Eh
 Orbital Gradient       TolG            ....  5.000e-05
 Orbital Rotation angle TolX            ....  5.000e-05
 DIIS Error             TolErr          ....  1.000e-06


Diagonalization of the overlap matrix:
Smallest eigenvalue                        ... 1.155e-05
Time for diagonalization                   ...    0.083 sec
Threshold for overlap eigenvalues          ... 1.000e-08
Number of eigenvalues below threshold      ... 0
Time for construction of square roots      ...    0.052 sec
Total time needed                          ...    0.137 sec

Time for model grid setup =    0.795 sec

------------------------------
INITIAL GUESS: MODEL POTENTIAL
------------------------------
Loading Hartree-Fock densities                     ... done
Calculating cut-offs                               ... done
Initializing the effective Hamiltonian             ... done
Setting up the integral package (SHARK)            ... done
Starting the Coulomb interaction                   ... done (   1.0 sec)
Reading the grid                                   ... done
Mapping shells                                     ... done
Starting the XC term evaluation                    ... done (   0.6 sec)
  promolecular density results
     # of electrons  =    193.002385561
     EX              =   -164.444253310
     EC              =     -6.567992095
     EX+EC           =   -171.012245405
Transforming the Hamiltonian                       ... done (   0.0 sec)
Diagonalizing the Hamiltonian                      ... done (   0.1 sec)
Back transforming the eigenvectors                 ... done (   0.0 sec)
Now organizing SCF variables                       ... done
                      ------------------
                      INITIAL GUESS DONE (   2.5 sec)
                      ------------------
-------------------
DFT GRID GENERATION
-------------------

General Integration Accuracy     IntAcc      ... 4.388
Radial Grid Type                 RadialGrid  ... OptM3 with GC (2021)
Angular Grid (max. ang.)         AngularGrid ... 4 (Lebedev-302)
Angular grid pruning method      GridPruning ... 4 (adaptive)
Weight generation scheme         WeightScheme... Becke
Basis function cutoff            BFCut       ... 1.0000e-10
Integration weight cutoff        WCut        ... 1.0000e-14
Angular grids for H and He will be reduced by one unit
Partially contracted basis set               ... off
Rotationally invariant grid construction     ... off

Total number of grid points                  ...   220762
Total number of batches                      ...     3476
Average number of points per batch           ...       63
Average number of grid points per atom       ...     4799
Time for grid setup =    2.562 sec


--------------------
CPCM SOLVATION MODEL
--------------------
CPCM parameters:
  Epsilon                                         ...      46.8260
  Refrac                                          ...       1.4170
  Rsolv                                           ...       1.3000
  Surface type                                    ... GAUSSIAN VDW
  Epsilon function type                           ...         CPCM
Solvent:                                     ... DMSO
SMD-CDS solvent descriptors:
  Soln                                       ...    1.4170
  Soln25                                     ...    1.4773
  Sola                                       ...    0.0000
  Solb                                       ...    0.8800
  Solg                                       ...   61.7800
  Solc                                       ...    0.0000
  Solh                                       ...    0.0000
Radii:
 Radius for C  used is    3.4960 Bohr (=   1.8500 Ang.)
 Radius for O  used is    4.3350 Bohr (=   2.2940 Ang.)
 Radius for N  used is    3.5716 Bohr (=   1.8900 Ang.)
 Radius for H  used is    2.2677 Bohr (=   1.2000 Ang.)
Calculating surface                               ...        done! (  0.0s)
GEPOL surface points                              ...         2262
GEPOL Volume                                      ...    2878.5113
GEPOL Surface-area                                ...    1420.7776
Calculating surface distance matrix               ...        done! (  0.0s)
Performing Cholesky decomposition & store         ...        done! (  0.2s)
Overall time for CPCM initialization              ...                 0.2s
--------------
SCF ITERATIONS
--------------
ITER       Energy         Delta-E        Max-DP      RMS-DP      [F,P]     Damp
               ***  Starting incremental Fock matrix formation  ***
  0  -1307.7668671211   0.000000000000 0.35137061  0.00163226  0.2822738 0.7000
  1  -1308.0709939983  -0.304126877173 0.26389919  0.00117160  0.0945541 0.7000
                               ***Turning on DIIS***
  2  -1308.1682703731  -0.097276374828 0.16429214  0.00161406  0.0342396 0.0000
  3  -1308.3475628364  -0.179292463285 0.25117751  0.00100980  0.0469013 0.0000
  4  -1308.3787781202  -0.031215283750 0.03977006  0.00031882  0.0274847 0.0000
  5  -1308.3829767171  -0.004198596916 0.03132643  0.00014275  0.0064403 0.0000
  6  -1308.3831182704  -0.000141553288 0.00552847  0.00003714  0.0043158 0.0000
                      *** Initiating the SOSCF procedure ***
                           *** Shutting down DIIS ***
                      *** Re-Reading the Fockian *** 
                      *** Removing any level shift *** 
ITER      Energy       Delta-E        Grad      Rot      Max-DP    RMS-DP
  7  -1308.38316219  -0.0000439235  0.000163  0.000163  0.003130  0.000019
               *** Restarting incremental Fock matrix formation ***
  8  -1308.38316616  -0.0000039660  0.000123  0.000534  0.001770  0.000013
  9  -1308.38316335   0.0000028058  0.000302  0.000428  0.000410  0.000006
 10  -1308.38316722  -0.0000038634  0.000043  0.000228  0.001153  0.000007
 11  -1308.38316686   0.0000003551  0.000080  0.000177  0.001158  0.000005
                  ***Gradient check signals convergence***
              ***Rediagonalizing the Fockian in SOSCF/NRSCF***

               *****************************************************
               *                     SUCCESS                       *
               *           SCF CONVERGED AFTER  12 CYCLES          *
               *****************************************************


SMD CDS free energy correction energy :                 0.97785     Kcal/mol
Total Energy after SMD CDS correction =             -1308.381609067 Eh

----------------
TOTAL SCF ENERGY
----------------

Total Energy       :        -1308.38160907 Eh          -35602.87360 eV

Components:
Nuclear Repulsion  :         2521.92167720 Eh           68624.97766 eV
Electronic Energy  :        -3830.30328627 Eh         -104227.85126 eV
One Electron Energy:        -6772.96541338 Eh         -184301.75862 eV
Two Electron Energy:         2942.66212711 Eh           80073.90736 eV
CPCM Dielectric    :           -0.11409753 Eh              -3.10475 eV
SMD CDS (Gcds)     :            0.00155830 Eh               0.04240 eV

Virial components:
Potential Energy   :        -2611.55901333 Eh          -71064.13358 eV
Kinetic Energy     :         1303.17740427 Eh           35461.25999 eV
Virial Ratio       :            2.00399347


DFT components:
N(Alpha)           :       96.000004130465 electrons
N(Beta)            :       96.000004130465 electrons
N(Total)           :      192.000008260931 electrons
E(X)               :     -168.002188946022 Eh       
E(C)               :       -6.372566954576 Eh       
E(XC)              :     -174.374755900598 Eh       
DFET-embed. en.    :        0.000000000000 Eh       
CPCM Solvation Model Properties:
Surface-charge          :           -1.03160396
Charge-correction       :            0.00328115 Eh               0.08928 eV
Free-energy (cav+disp)  :            0.00155830 Eh               0.04240 eV

---------------
SCF CONVERGENCE
---------------

  Last Energy change         ...   -5.0411e-07  Tolerance :   1.0000e-06
  Last MAX-Density change    ...    1.0253e-03  Tolerance :   1.0000e-05
  Last RMS-Density change    ...    5.8641e-06  Tolerance :   1.0000e-06
  Last Orbital Gradient      ...    1.1722e-05  Tolerance :   5.0000e-05
  Last Orbital Rotation      ...    6.4059e-05  Tolerance :   5.0000e-05

             **** THE GBW FILE WAS UPDATED (/lustre/hpc/kemi/ree/PhD/git/ReactivityQM/calculations/R03/reac02prodN02/conf07/gfn1/orca_calc.gbw) ****
             **** DENSITY /lustre/hpc/kemi/ree/PhD/git/ReactivityQM/calculations/R03/reac02prodN02/conf07/gfn1/orca_calc.scfp WAS UPDATED ****
             **** ENERGY FILE WAS UPDATED (/lustre/hpc/kemi/ree/PhD/git/ReactivityQM/calculations/R03/reac02prodN02/conf07/gfn1/orca_calc.en.tmp) ****
             **** THE GBW FILE WAS UPDATED (/lustre/hpc/kemi/ree/PhD/git/ReactivityQM/calculations/R03/reac02prodN02/conf07/gfn1/orca_calc.gbw) ****
             **** DENSITY /lustre/hpc/kemi/ree/PhD/git/ReactivityQM/calculations/R03/reac02prodN02/conf07/gfn1/orca_calc.scfp WAS UPDATED ****
----------------
ORBITAL ENERGIES
----------------

  NO   OCC          E(Eh)            E(eV) 
   0   2.0000     -19.092570      -519.5352 
   1   2.0000     -19.068752      -518.8871 
   2   2.0000     -19.013855      -517.3933 
   3   2.0000     -19.000489      -517.0296 
   4   2.0000     -18.959989      -515.9275 
   5   2.0000     -18.936746      -515.2951 
   6   2.0000     -14.263807      -388.1379 
   7   2.0000     -14.247304      -387.6888 
   8   2.0000     -14.236983      -387.4080 
   9   2.0000     -14.220248      -386.9526 
  10   2.0000     -14.170894      -385.6096 
  11   2.0000     -10.228905      -278.3427 
  12   2.0000     -10.179663      -277.0027 
  13   2.0000     -10.177596      -276.9465 
  14   2.0000     -10.173616      -276.8382 
  15   2.0000     -10.152739      -276.2701 
  16   2.0000     -10.136400      -275.8255 
  17   2.0000     -10.130345      -275.6607 
  18   2.0000     -10.128969      -275.6233 
  19   2.0000     -10.104091      -274.9463 
  20   2.0000     -10.095914      -274.7238 
  21   2.0000     -10.082655      -274.3630 
  22   2.0000     -10.071257      -274.0528 
  23   2.0000     -10.055268      -273.6178 
  24   2.0000     -10.039321      -273.1838 
  25   2.0000     -10.031617      -272.9742 
  26   2.0000      -1.185003       -32.2456 
  27   2.0000      -1.131177       -30.7809 
  28   2.0000      -1.093243       -29.7487 
  29   2.0000      -1.057662       -28.7805 
  30   2.0000      -1.028354       -27.9829 
  31   2.0000      -1.007901       -27.4264 
  32   2.0000      -1.001692       -27.2574 
  33   2.0000      -0.989850       -26.9352 
  34   2.0000      -0.969338       -26.3770 
  35   2.0000      -0.896500       -24.3950 
  36   2.0000      -0.861835       -23.4517 
  37   2.0000      -0.813423       -22.1344 
  38   2.0000      -0.764843       -20.8124 
  39   2.0000      -0.739794       -20.1308 
  40   2.0000      -0.733234       -19.9523 
  41   2.0000      -0.728575       -19.8255 
  42   2.0000      -0.702774       -19.1235 
  43   2.0000      -0.695491       -18.9253 
  44   2.0000      -0.677504       -18.4358 
  45   2.0000      -0.652269       -17.7491 
  46   2.0000      -0.640751       -17.4357 
  47   2.0000      -0.633864       -17.2483 
  48   2.0000      -0.618167       -16.8212 
  49   2.0000      -0.591065       -16.0837 
  50   2.0000      -0.577995       -15.7280 
  51   2.0000      -0.562387       -15.3033 
  52   2.0000      -0.559794       -15.2328 
  53   2.0000      -0.531321       -14.4580 
  54   2.0000      -0.527915       -14.3653 
  55   2.0000      -0.523770       -14.2525 
  56   2.0000      -0.502322       -13.6689 
  57   2.0000      -0.491084       -13.3631 
  58   2.0000      -0.488038       -13.2802 
  59   2.0000      -0.482736       -13.1359 
  60   2.0000      -0.470712       -12.8087 
  61   2.0000      -0.459646       -12.5076 
  62   2.0000      -0.457697       -12.4546 
  63   2.0000      -0.451176       -12.2771 
  64   2.0000      -0.443364       -12.0646 
  65   2.0000      -0.440163       -11.9775 
  66   2.0000      -0.424031       -11.5385 
  67   2.0000      -0.417216       -11.3530 
  68   2.0000      -0.413172       -11.2430 
  69   2.0000      -0.409216       -11.1353 
  70   2.0000      -0.403679       -10.9847 
  71   2.0000      -0.394359       -10.7311 
  72   2.0000      -0.392035       -10.6678 
  73   2.0000      -0.389546       -10.6001 
  74   2.0000      -0.383750       -10.4424 
  75   2.0000      -0.376575       -10.2471 
  76   2.0000      -0.376376       -10.2417 
  77   2.0000      -0.370764       -10.0890 
  78   2.0000      -0.369551       -10.0560 
  79   2.0000      -0.366209        -9.9650 
  80   2.0000      -0.362294        -9.8585 
  81   2.0000      -0.356047        -9.6885 
  82   2.0000      -0.349380        -9.5071 
  83   2.0000      -0.347141        -9.4462 
  84   2.0000      -0.338050        -9.1988 
  85   2.0000      -0.331662        -9.0250 
  86   2.0000      -0.330617        -8.9965 
  87   2.0000      -0.307285        -8.3617 
  88   2.0000      -0.291236        -7.9249 
  89   2.0000      -0.286229        -7.7887 
  90   2.0000      -0.282777        -7.6948 
  91   2.0000      -0.277842        -7.5605 
  92   2.0000      -0.276764        -7.5311 
  93   2.0000      -0.252090        -6.8597 
  94   2.0000      -0.246965        -6.7202 
  95   2.0000      -0.216198        -5.8830 
  96   0.0000      -0.140867        -3.8332 
  97   0.0000      -0.099159        -2.6983 
  98   0.0000      -0.049302        -1.3416 
  99   0.0000      -0.043244        -1.1767 
 100   0.0000       0.003018         0.0821 
 101   0.0000       0.003278         0.0892 
 102   0.0000       0.014386         0.3915 
 103   0.0000       0.038503         1.0477 
 104   0.0000       0.048954         1.3321 
 105   0.0000       0.063415         1.7256 
 106   0.0000       0.069755         1.8981 
 107   0.0000       0.077692         2.1141 
 108   0.0000       0.088308         2.4030 
 109   0.0000       0.097711         2.6588 
 110   0.0000       0.100382         2.7315 
 111   0.0000       0.101617         2.7651 
 112   0.0000       0.108469         2.9516 
 113   0.0000       0.109988         2.9929 
 114   0.0000       0.113917         3.0998 
 115   0.0000       0.114412         3.1133 
 116   0.0000       0.124070         3.3761 
 117   0.0000       0.126816         3.4508 
 118   0.0000       0.134060         3.6480 
 119   0.0000       0.137292         3.7359 
 120   0.0000       0.142221         3.8700 
 121   0.0000       0.143434         3.9030 
 122   0.0000       0.146302         3.9811 
 123   0.0000       0.154139         4.1943 
 124   0.0000       0.155430         4.2295 
 125   0.0000       0.159345         4.3360 
 126   0.0000       0.162298         4.4163 
 127   0.0000       0.167686         4.5630 
 128   0.0000       0.171907         4.6778 
 129   0.0000       0.172932         4.7057 
 130   0.0000       0.179033         4.8717 
 131   0.0000       0.184200         5.0123 
 132   0.0000       0.185986         5.0609 
 133   0.0000       0.186841         5.0842 
 134   0.0000       0.189810         5.1650 
 135   0.0000       0.192368         5.2346 
 136   0.0000       0.195375         5.3164 
 137   0.0000       0.195734         5.3262 
 138   0.0000       0.196734         5.3534 
 139   0.0000       0.200036         5.4433 
 140   0.0000       0.201409         5.4806 
 141   0.0000       0.207001         5.6328 
 142   0.0000       0.210299         5.7225 
 143   0.0000       0.215885         5.8745 
 144   0.0000       0.222328         6.0499 
 145   0.0000       0.226993         6.1768 
 146   0.0000       0.231411         6.2970 
 147   0.0000       0.234519         6.3816 
 148   0.0000       0.237669         6.4673 
 149   0.0000       0.242237         6.5916 
 150   0.0000       0.243427         6.6240 
 151   0.0000       0.246317         6.7026 
 152   0.0000       0.249925         6.8008 
 153   0.0000       0.252797         6.8790 
 154   0.0000       0.261088         7.1046 
 155   0.0000       0.265613         7.2277 
 156   0.0000       0.269122         7.3232 
 157   0.0000       0.270971         7.3735 
 158   0.0000       0.276567         7.5258 
 159   0.0000       0.278151         7.5689 
 160   0.0000       0.285710         7.7746 
 161   0.0000       0.289209         7.8698 
 162   0.0000       0.294405         8.0112 
 163   0.0000       0.298341         8.1183 
 164   0.0000       0.304123         8.2756 
 165   0.0000       0.307709         8.3732 
 166   0.0000       0.310937         8.4610 
 167   0.0000       0.320806         8.7296 
 168   0.0000       0.324274         8.8239 
 169   0.0000       0.328141         8.9292 
 170   0.0000       0.329537         8.9671 
 171   0.0000       0.333395         9.0721 
 172   0.0000       0.339517         9.2387 
 173   0.0000       0.340737         9.2719 
 174   0.0000       0.345935         9.4134 
 175   0.0000       0.349378         9.5071 
 176   0.0000       0.350665         9.5421 
 177   0.0000       0.357652         9.7322 
 178   0.0000       0.368763        10.0345 
 179   0.0000       0.373761        10.1706 
 180   0.0000       0.374912        10.2019 
 181   0.0000       0.378465        10.2986 
 182   0.0000       0.381601        10.3839 
 183   0.0000       0.387207        10.5364 
 184   0.0000       0.388816        10.5802 
 185   0.0000       0.394263        10.7284 
 186   0.0000       0.404222        10.9994 
 187   0.0000       0.407021        11.0756 
 188   0.0000       0.412830        11.2337 
 189   0.0000       0.419166        11.4061 
 190   0.0000       0.421726        11.4758 
 191   0.0000       0.425789        11.5863 
 192   0.0000       0.433159        11.7869 
 193   0.0000       0.439180        11.9507 
 194   0.0000       0.443239        12.0611 
 195   0.0000       0.443653        12.0724 
 196   0.0000       0.452702        12.3186 
 197   0.0000       0.457637        12.4529 
 198   0.0000       0.458903        12.4874 
 199   0.0000       0.467276        12.7152 
 200   0.0000       0.471024        12.8172 
 201   0.0000       0.482959        13.1420 
 202   0.0000       0.486583        13.2406 
 203   0.0000       0.493699        13.4342 
 204   0.0000       0.506069        13.7708 
 205   0.0000       0.507004        13.7963 
 206   0.0000       0.510122        13.8811 
 207   0.0000       0.517513        14.0822 
 208   0.0000       0.527278        14.3480 
 209   0.0000       0.533762        14.5244 
 210   0.0000       0.536926        14.6105 
 211   0.0000       0.541250        14.7282 
 212   0.0000       0.547012        14.8849 
 213   0.0000       0.554248        15.0819 
 214   0.0000       0.561397        15.2764 
 215   0.0000       0.567589        15.4449 
 216   0.0000       0.568762        15.4768 
 217   0.0000       0.575016        15.6470 
 218   0.0000       0.581857        15.8331 
 219   0.0000       0.583337        15.8734 
 220   0.0000       0.588404        16.0113 
 221   0.0000       0.592431        16.1209 
 222   0.0000       0.595626        16.2078 
 223   0.0000       0.598423        16.2839 
 224   0.0000       0.611319        16.6348 
 225   0.0000       0.615487        16.7483 
 226   0.0000       0.623696        16.9716 
 227   0.0000       0.626337        17.0435 
 228   0.0000       0.634609        17.2686 
 229   0.0000       0.635766        17.3001 
 230   0.0000       0.645032        17.5522 
 231   0.0000       0.649570        17.6757 
 232   0.0000       0.652689        17.7606 
 233   0.0000       0.657941        17.9035 
 234   0.0000       0.666582        18.1386 
 235   0.0000       0.669230        18.2107 
 236   0.0000       0.672712        18.3054 
 237   0.0000       0.678469        18.4621 
 238   0.0000       0.684382        18.6230 
 239   0.0000       0.693261        18.8646 
 240   0.0000       0.700034        19.0489 
 241   0.0000       0.705824        19.2064 
 242   0.0000       0.707205        19.2440 
 243   0.0000       0.708569        19.2811 
 244   0.0000       0.715245        19.4628 
 245   0.0000       0.730133        19.8679 
 246   0.0000       0.738324        20.0908 
 247   0.0000       0.740980        20.1631 
 248   0.0000       0.746486        20.3129 
 249   0.0000       0.749448        20.3935 
 250   0.0000       0.756132        20.5754 
 251   0.0000       0.758946        20.6520 
 252   0.0000       0.764888        20.8137 
 253   0.0000       0.769798        20.9473 
 254   0.0000       0.775707        21.1081 
 255   0.0000       0.777810        21.1653 
 256   0.0000       0.778985        21.1973 
 257   0.0000       0.783675        21.3249 
 258   0.0000       0.792112        21.5545 
 259   0.0000       0.800950        21.7950 
 260   0.0000       0.811612        22.0851 
 261   0.0000       0.815387        22.1878 
 262   0.0000       0.820296        22.3214 
 263   0.0000       0.826034        22.4775 
 264   0.0000       0.836640        22.7661 
 265   0.0000       0.841740        22.9049 
 266   0.0000       0.851676        23.1753 
 267   0.0000       0.855918        23.2907 
 268   0.0000       0.860184        23.4068 
 269   0.0000       0.868884        23.6435 
 270   0.0000       0.870530        23.6883 
 271   0.0000       0.876933        23.8626 
 272   0.0000       0.881510        23.9871 
 273   0.0000       0.890379        24.2284 
 274   0.0000       0.893956        24.3258 
 275   0.0000       0.903060        24.5735 
 276   0.0000       0.912911        24.8416 
 277   0.0000       0.919628        25.0243 
 278   0.0000       0.925198        25.1759 
 279   0.0000       0.934930        25.4407 
 280   0.0000       0.941139        25.6097 
 281   0.0000       0.945034        25.7157 
 282   0.0000       0.957587        26.0573 
 283   0.0000       0.963656        26.2224 
 284   0.0000       0.967264        26.3206 
 285   0.0000       0.978636        26.6300 
 286   0.0000       0.981866        26.7179 
 287   0.0000       0.991189        26.9716 
 288   0.0000       1.005309        27.3559 
 289   0.0000       1.009821        27.4786 
 290   0.0000       1.026433        27.9307 
 291   0.0000       1.031641        28.0724 
 292   0.0000       1.041063        28.3288 
 293   0.0000       1.044307        28.4170 
 294   0.0000       1.055326        28.7169 
 295   0.0000       1.059776        28.8380 
 296   0.0000       1.064253        28.9598 
 297   0.0000       1.067797        29.0562 
 298   0.0000       1.071685        29.1620 
 299   0.0000       1.075299        29.2604 
 300   0.0000       1.090487        29.6737 
 301   0.0000       1.098386        29.8886 
 302   0.0000       1.107747        30.1433 
 303   0.0000       1.117480        30.4082 
 304   0.0000       1.126435        30.6519 
 305   0.0000       1.132476        30.8162 
 306   0.0000       1.139249        31.0005 
 307   0.0000       1.148867        31.2623 
 308   0.0000       1.158473        31.5237 
 309   0.0000       1.171672        31.8828 
 310   0.0000       1.181108        32.1396 
 311   0.0000       1.183941        32.2167 
 312   0.0000       1.190700        32.4006 
 313   0.0000       1.195461        32.5301 
 314   0.0000       1.202459        32.7206 
 315   0.0000       1.211848        32.9761 
 316   0.0000       1.215030        33.0626 
 317   0.0000       1.223096        33.2821 
 318   0.0000       1.230985        33.4968 
 319   0.0000       1.233749        33.5720 
 320   0.0000       1.249627        34.0041 
 321   0.0000       1.263809        34.3900 
 322   0.0000       1.272860        34.6363 
 323   0.0000       1.281948        34.8836 
 324   0.0000       1.294509        35.2254 
 325   0.0000       1.299992        35.3746 
 326   0.0000       1.305780        35.5321 
 327   0.0000       1.308519        35.6066 
 328   0.0000       1.317345        35.8468 
 329   0.0000       1.318275        35.8721 
 330   0.0000       1.323586        36.0166 
 331   0.0000       1.330509        36.2050 
 332   0.0000       1.334805        36.3219 
 333   0.0000       1.338774        36.4299 
 334   0.0000       1.344589        36.5881 
 335   0.0000       1.356437        36.9105 
 336   0.0000       1.365915        37.1684 
 337   0.0000       1.368320        37.2339 
 338   0.0000       1.393258        37.9125 
 339   0.0000       1.400630        38.1131 
 340   0.0000       1.410882        38.3921 
 341   0.0000       1.420222        38.6462 
 342   0.0000       1.426369        38.8135 
 343   0.0000       1.435414        39.0596 
 344   0.0000       1.446278        39.3552 
 345   0.0000       1.452289        39.5188 
 346   0.0000       1.454546        39.5802 
 347   0.0000       1.465976        39.8912 
 348   0.0000       1.478122        40.2217 
 349   0.0000       1.483041        40.3556 
 350   0.0000       1.493050        40.6280 
 351   0.0000       1.499267        40.7971 
 352   0.0000       1.523326        41.4518 
 353   0.0000       1.526304        41.5329 
 354   0.0000       1.541471        41.9456 
 355   0.0000       1.543095        41.9897 
 356   0.0000       1.556946        42.3667 
 357   0.0000       1.569012        42.6950 
 358   0.0000       1.578561        42.9548 
 359   0.0000       1.584694        43.1217 
 360   0.0000       1.607624        43.7457 
 361   0.0000       1.616911        43.9984 
 362   0.0000       1.635423        44.5021 
 363   0.0000       1.650521        44.9130 
 364   0.0000       1.666746        45.3545 
 365   0.0000       1.673209        45.5303 
 366   0.0000       1.680901        45.7396 
 367   0.0000       1.689231        45.9663 
 368   0.0000       1.700507        46.2732 
 369   0.0000       1.705472        46.4082 
 370   0.0000       1.714887        46.6645 
 371   0.0000       1.723098        46.8879 
 372   0.0000       1.731866        47.1265 
 373   0.0000       1.745201        47.4893 
 374   0.0000       1.750115        47.6230 
 375   0.0000       1.759836        47.8876 
 376   0.0000       1.765528        48.0424 
 377   0.0000       1.770305        48.1724 
 378   0.0000       1.773255        48.2527 
 379   0.0000       1.782370        48.5008 
 380   0.0000       1.793580        48.8058 
 381   0.0000       1.804272        49.0967 
 382   0.0000       1.809024        49.2261 
 383   0.0000       1.818087        49.4727 
 384   0.0000       1.827641        49.7326 
 385   0.0000       1.831401        49.8350 
 386   0.0000       1.833128        49.8819 
 387   0.0000       1.842320        50.1321 
 388   0.0000       1.848307        50.2950 
 389   0.0000       1.853489        50.4360 
 390   0.0000       1.862996        50.6947 
 391   0.0000       1.866577        50.7921 
 392   0.0000       1.870551        50.9003 
 393   0.0000       1.880310        51.1658 
 394   0.0000       1.881501        51.1983 
 395   0.0000       1.892392        51.4946 
 396   0.0000       1.899158        51.6787 
 397   0.0000       1.904624        51.8275 
 398   0.0000       1.917220        52.1702 
 399   0.0000       1.923593        52.3436 
 400   0.0000       1.936572        52.6968 
 401   0.0000       1.944483        52.9121 
 402   0.0000       1.962379        53.3991 
 403   0.0000       1.963531        53.4304 
 404   0.0000       1.978130        53.8276 
 405   0.0000       1.989028        54.1242 
 406   0.0000       2.000342        54.4321 
 407   0.0000       2.014184        54.8087 
 408   0.0000       2.031696        55.2853 
 409   0.0000       2.032201        55.2990 
 410   0.0000       2.040757        55.5318 
 411   0.0000       2.054721        55.9118 
 412   0.0000       2.063570        56.1526 
 413   0.0000       2.068154        56.2773 
 414   0.0000       2.081378        56.6372 
 415   0.0000       2.083420        56.6927 
 416   0.0000       2.099729        57.1365 
 417   0.0000       2.107714        57.3538 
 418   0.0000       2.112738        57.4905 
 419   0.0000       2.120383        57.6986 
 420   0.0000       2.132521        58.0288 
 421   0.0000       2.134125        58.0725 
 422   0.0000       2.146606        58.4121 
 423   0.0000       2.156893        58.6921 
 424   0.0000       2.163852        58.8814 
 425   0.0000       2.165762        58.9334 
 426   0.0000       2.181728        59.3678 
 427   0.0000       2.191966        59.6464 
 428   0.0000       2.198756        59.8312 
 429   0.0000       2.204129        59.9774 
 430   0.0000       2.216284        60.3082 
 431   0.0000       2.226299        60.5807 
 432   0.0000       2.230519        60.6955 
 433   0.0000       2.238634        60.9163 
 434   0.0000       2.251152        61.2570 
 435   0.0000       2.260643        61.5152 
 436   0.0000       2.268422        61.7269 
 437   0.0000       2.272031        61.8251 
 438   0.0000       2.275820        61.9282 
 439   0.0000       2.282139        62.1001 
 440   0.0000       2.288405        62.2707 
 441   0.0000       2.297474        62.5174 
 442   0.0000       2.299583        62.5748 
 443   0.0000       2.305899        62.7467 
 444   0.0000       2.311724        62.9052 
 445   0.0000       2.322536        63.1994 
 446   0.0000       2.334152        63.5155 
 447   0.0000       2.338853        63.6434 
 448   0.0000       2.353176        64.0332 
 449   0.0000       2.362714        64.2927 
 450   0.0000       2.373051        64.5740 
 451   0.0000       2.381907        64.8150 
 452   0.0000       2.389068        65.0098 
 453   0.0000       2.392277        65.0972 
 454   0.0000       2.401409        65.3457 
 455   0.0000       2.412320        65.6426 
 456   0.0000       2.416560        65.7579 
 457   0.0000       2.420770        65.8725 
 458   0.0000       2.423644        65.9507 
 459   0.0000       2.428132        66.0728 
 460   0.0000       2.430199        66.1291 
 461   0.0000       2.434557        66.2477 
 462   0.0000       2.440767        66.4166 
 463   0.0000       2.453707        66.7688 
 464   0.0000       2.466649        67.1209 
 465   0.0000       2.475742        67.3684 
 466   0.0000       2.486318        67.6562 
 467   0.0000       2.493756        67.8585 
 468   0.0000       2.503335        68.1192 
 469   0.0000       2.509938        68.2989 
 470   0.0000       2.516160        68.4682 
 471   0.0000       2.532114        68.9023 
 472   0.0000       2.537397        69.0461 
 473   0.0000       2.547451        69.3197 
 474   0.0000       2.551296        69.4243 
 475   0.0000       2.561618        69.7052 
 476   0.0000       2.571971        69.9869 
 477   0.0000       2.576048        70.0978 
 478   0.0000       2.590210        70.4832 
 479   0.0000       2.593905        70.5838 
 480   0.0000       2.600954        70.7756 
 481   0.0000       2.603282        70.8389 
 482   0.0000       2.611008        71.0491 
 483   0.0000       2.623943        71.4011 
 484   0.0000       2.627588        71.5003 
 485   0.0000       2.643569        71.9352 
 486   0.0000       2.652844        72.1876 
 487   0.0000       2.661831        72.4321 
 488   0.0000       2.665010        72.5186 
 489   0.0000       2.670088        72.6568 
 490   0.0000       2.678607        72.8886 
 491   0.0000       2.683590        73.0242 
 492   0.0000       2.688719        73.1638 
 493   0.0000       2.693154        73.2844 
 494   0.0000       2.697959        73.4152 
 495   0.0000       2.699285        73.4513 
 496   0.0000       2.703053        73.5538 
 497   0.0000       2.706287        73.6418 
 498   0.0000       2.716009        73.9064 
 499   0.0000       2.717916        73.9583 
 500   0.0000       2.723828        74.1191 
 501   0.0000       2.724505        74.1376 
 502   0.0000       2.735661        74.4411 
 503   0.0000       2.751305        74.8668 
 504   0.0000       2.756779        75.0158 
 505   0.0000       2.761778        75.1518 
 506   0.0000       2.768905        75.3457 
 507   0.0000       2.774553        75.4994 
 508   0.0000       2.780209        75.6533 
 509   0.0000       2.788137        75.8691 
 510   0.0000       2.794198        76.0340 
 511   0.0000       2.801418        76.2305 
 512   0.0000       2.802925        76.2715 
 513   0.0000       2.808727        76.4293 
 514   0.0000       2.811949        76.5170 
 515   0.0000       2.820092        76.7386 
 516   0.0000       2.829921        77.0061 
 517   0.0000       2.844031        77.3900 
 518   0.0000       2.852063        77.6086 
 519   0.0000       2.855140        77.6923 
 520   0.0000       2.870560        78.1119 
 521   0.0000       2.874185        78.2105 
 522   0.0000       2.886592        78.5482 
 523   0.0000       2.895456        78.7894 
 524   0.0000       2.901774        78.9613 
 525   0.0000       2.911446        79.2245 
 526   0.0000       2.928904        79.6995 
 527   0.0000       2.932071        79.7857 
 528   0.0000       2.935332        79.8744 
 529   0.0000       2.949760        80.2671 
 530   0.0000       2.959692        80.5373 
 531   0.0000       2.966221        80.7150 
 532   0.0000       2.969684        80.8092 
 533   0.0000       2.974568        80.9421 
 534   0.0000       2.978616        81.0523 
 535   0.0000       2.988166        81.3121 
 536   0.0000       2.995331        81.5071 
 537   0.0000       3.008990        81.8788 
 538   0.0000       3.011619        81.9503 
 539   0.0000       3.018091        82.1264 
 540   0.0000       3.021249        82.2124 
 541   0.0000       3.025553        82.3295 
 542   0.0000       3.030107        82.4534 
 543   0.0000       3.044207        82.8371 
 544   0.0000       3.049527        82.9818 
 545   0.0000       3.061688        83.3128 
 546   0.0000       3.070877        83.5628 
 547   0.0000       3.073647        83.6382 
 548   0.0000       3.088955        84.0547 
 549   0.0000       3.096610        84.2631 
 550   0.0000       3.103776        84.4580 
 551   0.0000       3.109861        84.6236 
 552   0.0000       3.117100        84.8206 
 553   0.0000       3.119335        84.8814 
 554   0.0000       3.124317        85.0170 
 555   0.0000       3.127099        85.0927 
 556   0.0000       3.140509        85.4576 
 557   0.0000       3.149001        85.6887 
 558   0.0000       3.154010        85.8250 
 559   0.0000       3.171450        86.2995 
 560   0.0000       3.188939        86.7754 
 561   0.0000       3.200518        87.0905 
 562   0.0000       3.213474        87.4431 
 563   0.0000       3.224992        87.7565 
 564   0.0000       3.242515        88.2333 
 565   0.0000       3.247506        88.3691 
 566   0.0000       3.284095        89.3648 
 567   0.0000       3.291884        89.5767 
 568   0.0000       3.293018        89.6076 
 569   0.0000       3.299705        89.7895 
 570   0.0000       3.316151        90.2371 
 571   0.0000       3.320358        90.3515 
 572   0.0000       3.327355        90.5419 
 573   0.0000       3.349866        91.1545 
 574   0.0000       3.356811        91.3435 
 575   0.0000       3.371309        91.7380 
 576   0.0000       3.384384        92.0938 
 577   0.0000       3.399311        92.5000 
 578   0.0000       3.426100        93.2289 
 579   0.0000       3.480753        94.7161 
 580   0.0000       3.491598        95.0112 
 581   0.0000       3.509820        95.5070 
 582   0.0000       3.520382        95.7945 
 583   0.0000       3.522301        95.8467 
 584   0.0000       3.531633        96.1006 
 585   0.0000       3.537679        96.2651 
 586   0.0000       3.546798        96.5133 
 587   0.0000       3.552805        96.6767 
 588   0.0000       3.561029        96.9005 
 589   0.0000       3.581601        97.4603 
 590   0.0000       3.587789        97.6287 
 591   0.0000       3.593185        97.7755 
 592   0.0000       3.601042        97.9893 
 593   0.0000       3.611932        98.2857 
 594   0.0000       3.621035        98.5334 
 595   0.0000       3.649406        99.3054 
 596   0.0000       3.657803        99.5339 
 597   0.0000       3.662644        99.6656 
 598   0.0000       3.677388       100.0668 
 599   0.0000       3.700465       100.6948 
 600   0.0000       3.732769       101.5738 
 601   0.0000       3.738785       101.7375 
 602   0.0000       3.782500       102.9271 
 603   0.0000       3.817501       103.8795 
 604   0.0000       3.854550       104.8876 
 605   0.0000       3.885329       105.7252 
 606   0.0000       3.938239       107.1649 
 607   0.0000       3.983080       108.3851 
 608   0.0000       3.988001       108.5190 
 609   0.0000       4.013393       109.2100 
 610   0.0000       4.039014       109.9072 
 611   0.0000       4.071715       110.7970 
 612   0.0000       4.140699       112.6741 
 613   0.0000       4.162641       113.2712 
 614   0.0000       4.198181       114.2383 
 615   0.0000       4.276065       116.3576 
 616   0.0000       4.333666       117.9250 
 617   0.0000       4.405652       119.8839 
 618   0.0000       4.416913       120.1903 
 619   0.0000       4.452005       121.1452 
 620   0.0000       4.488739       122.1448 
 621   0.0000       4.611686       125.4904 
 622   0.0000       4.618530       125.6766 
 623   0.0000      21.959772       597.5558 
 624   0.0000      21.975119       597.9734 
 625   0.0000      22.017440       599.1250 
 626   0.0000      22.024755       599.3241 
 627   0.0000      22.064282       600.3996 
 628   0.0000      22.077585       600.7616 
 629   0.0000      22.126366       602.0890 
 630   0.0000      22.161975       603.0580 
 631   0.0000      22.226004       604.8003 
 632   0.0000      22.271682       606.0433 
 633   0.0000      22.354141       608.2871 
 634   0.0000      22.382908       609.0699 
 635   0.0000      22.400264       609.5422 
 636   0.0000      22.463270       611.2567 
 637   0.0000      22.485652       611.8657 
 638   0.0000      31.948229       869.3555 
 639   0.0000      32.000970       870.7907 
 640   0.0000      32.179887       875.6593 
 641   0.0000      32.200468       876.2193 
 642   0.0000      32.243076       877.3787 
 643   0.0000      43.668590      1188.2827 
 644   0.0000      43.733843      1190.0584 
 645   0.0000      43.824638      1192.5290 
 646   0.0000      43.842810      1193.0235 
 647   0.0000      43.888869      1194.2768 
 648   0.0000      43.969619      1196.4742 

                    ********************************
                    * MULLIKEN POPULATION ANALYSIS *
                    ********************************

-----------------------
MULLIKEN ATOMIC CHARGES
-----------------------
   0 C :   -0.309885
   1 O :   -0.185099
   2 C :    0.211799
   3 O :   -0.478436
   4 C :    0.109488
   5 N :   -0.092569
   6 C :    0.051980
   7 C :   -0.017780
   8 C :   -0.586899
   9 C :   -0.478268
  10 N :   -0.107875
  11 C :    0.132871
  12 O :   -0.181091
  13 C :   -0.297225
  14 C :    0.188578
  15 N :    0.050212
  16 N :   -0.394985
  17 C :    0.480738
  18 C :   -0.628079
  19 O :   -0.036386
  20 N :    0.280281
  21 C :   -0.455890
  22 C :    0.138479
  23 O :   -0.428241
  24 C :    0.057181
  25 O :   -0.355421
  26 H :    0.180663
  27 H :    0.180964
  28 H :    0.180797
  29 H :    0.200159
  30 H :    0.202715
  31 H :    0.193688
  32 H :    0.200359
  33 H :    0.194192
  34 H :    0.209250
  35 H :    0.358568
  36 H :    0.201557
  37 H :    0.200890
  38 H :    0.198909
  39 H :    0.213667
  40 H :    0.209296
  41 H :    0.212737
  42 H :    0.200599
  43 H :    0.215268
  44 H :    0.203354
  45 H :    0.374888
Sum of atomic charges:    1.0000000

--------------------------------
MULLIKEN REDUCED ORBITAL CHARGES
--------------------------------
  0 C s       :     3.338029  s :     3.338029
      pz      :     1.085046  p :     2.928116
      px      :     0.798433
      py      :     1.044637
      dz2     :     0.009552  d :     0.043740
      dxz     :     0.009655
      dyz     :     0.003203
      dx2y2   :     0.011729
      dxy     :     0.009601
  1 O s       :     3.705183  s :     3.705183
      pz      :     1.705847  p :     4.431016
      px      :     1.498398
      py      :     1.226770
      dz2     :     0.005817  d :     0.048900
      dxz     :     0.010472
      dyz     :     0.004773
      dx2y2   :     0.021906
      dxy     :     0.005931
  2 C s       :     3.192142  s :     3.192142
      pz      :     0.788126  p :     2.468383
[...]
      dyz     :     0.030464
      dx2y2   :     0.070643
      dxy     :     0.065341
  4 C s       :     2.763979  s :     2.763979
      pz      :     0.957410  p :     2.908068
      px      :     0.953573
      py      :     0.997085
      dz2     :     0.011636  d :     0.130194
      dxz     :     0.014781
      dyz     :     0.020817
      dx2y2   :     0.045205
      dxy     :     0.037755
  5 N s       :     3.187222  s :     3.187222
      pz      :     1.202420  p :     3.858771
      px      :     1.169501
      py      :     1.486850
      dz2     :     0.078224  d :     0.515858
      dxz     :     0.108712
      dyz     :     0.062291
      dx2y2   :     0.126570
      dxy     :     0.140060
  6 C s       :     2.706624  s :     2.706624
      pz      :     0.852208  p :     2.755430
      px      :     0.969222
      py      :     0.934000
      dz2     :     0.016341  d :     0.176815
      dxz     :     0.022165
      dyz     :     0.027498
      dx2y2   :     0.052088
      dxy     :     0.058722
  7 C s       :     2.787492  s :     2.787492
      pz      :     1.049784  p :     2.960958
      px      :     0.883322
      py      :     1.027852
      dz2     :     0.029681  d :     0.131778
      dxz     :     0.021581
      dyz     :     0.019083
      dx2y2   :     0.030721
      dxy     :     0.030711
  8 C s       :     2.956502  s :     2.956502
      pz      :     1.145007  p :     3.299600
      px      :     1.137849
      py      :     1.016745
      dz2     :     0.018382  d :     0.061811
      dxz     :     0.006571
      dyz     :     0.008779
      dx2y2   :     0.013794
      dxy     :     0.014286
  9 C s       :     2.956208  s :     2.956208
      pz      :     0.992731  p :     3.312664
      px      :     1.160958
      py      :     1.158974
      dz2     :     0.020190  d :     0.060465
      dxz     :     0.007910
      dyz     :     0.011338
      dx2y2   :     0.010919
      dxy     :     0.010108
 10 N s       :     3.084905  s :     3.084905
      pz      :     1.201989  p :     3.861528
      px      :     1.224571
      py      :     1.434969
      dz2     :     0.124940  d :     0.555073
      dxz     :     0.175476
      dyz     :     0.065841
      dx2y2   :     0.093877
      dxy     :     0.094939
 11 C s       :     2.695364  s :     2.695364
      pz      :     0.930676  p :     2.619030
      px      :     0.921488
      py      :     0.766866
      dz2     :     0.063067  d :     0.213596
      dxz     :     0.061484
      dyz     :     0.042772
      dx2y2   :     0.025328
      dxy     :     0.020945
 12 O s       :     3.425337  s :     3.425337
      pz      :     1.325889  p :     4.602659
      px      :     1.607485
      py      :     1.669285
      dz2     :     0.150236  d :     0.491510
      dxz     :     0.153000
      dyz     :     0.109043
      dx2y2   :     0.037945
      dxy     :     0.041286
 13 C s       :     2.906164  s :     2.906164
      pz      :     0.754712  p :     2.985757
      px      :     1.113814
      py      :     1.117231
      dz2     :     0.034802  d :     0.099596
      dxz     :     0.024434
      dyz     :     0.017099
      dx2y2   :     0.008139
      dxy     :     0.015121
 14 C s       :     2.700864  s :     2.700864
      pz      :     0.906137  p :     2.702648
      px      :     0.907113
      py      :     0.889399
      dz2     :     0.052637  d :     0.181054
      dxz     :     0.067254
      dyz     :     0.028072
      dx2y2   :     0.019745
      dxy     :     0.013345
 15 N s       :     3.174707  s :     3.174707
      pz      :     1.395289  p :     3.574686
      px      :     1.128530
      py      :     1.050866
      dz2     :     0.107381  d :     0.563987
      dxz     :     0.164742
      dyz     :     0.043970
      dx2y2   :     0.112674
      dxy     :     0.135219
 16 N s       :     3.178750  s :     3.178750
      pz      :     1.263240  p :     3.625554
      px      :     1.239989
      py      :     1.122325
      dz2     :     0.118635  d :     0.516496
      dxz     :     0.175595
      dyz     :     0.061407
      dx2y2   :     0.081730
      dxy     :     0.079129
 17 C s       :     2.735786  s :     2.735786
      pz      :     0.994015  p :     2.665077
      px      :     0.907741
      py      :     0.763322
      dz2     :     0.050103  d :     0.188268
      dxz     :     0.065549
      dyz     :     0.025317
      dx2y2   :     0.026310
      dxy     :     0.020988
 18 C s       :     2.945037  s :     2.945037
      pz      :     1.108040  p :     3.304432
      px      :     1.040423
      py      :     1.155969
      dz2     :     0.001732  d :     0.058251
      dxz     :     0.020292
      dyz     :     0.015944
      dx2y2   :     0.017243
      dxy     :     0.003040
 19 O s       :     3.428106  s :     3.428106
      pz      :     1.562674  p :     4.488207
      px      :     1.317332
      py      :     1.608201
      dz2     :     0.091938  d :     0.454742
      dxz     :     0.132542
      dyz     :     0.045872
      dx2y2   :     0.087786
      dxy     :     0.096603
 20 N s       :     3.081550  s :     3.081550
      pz      :     1.399385  p :     3.837163
      px      :     1.253966
      py      :     1.183813
      dz2     :     0.084758  d :     0.713148
      dxz     :     0.113993
      dyz     :     0.127761
      dx2y2   :     0.194105
      dxy     :     0.192530
 21 C s       :     2.874795  s :     2.874795
      pz      :     1.090266  p :     3.102834
      px      :     0.938665
      py      :     1.073903
      dz2     :     0.007583  d :     0.085447
      dxz     :     0.025408
      dyz     :     0.016717
      dx2y2   :     0.018210
      dxy     :     0.017528
 22 C s       :     2.708522  s :     2.708522
      pz      :     0.802526  p :     2.667030
      px      :     0.913337
      py      :     0.951167
      dz2     :     0.017620  d :     0.239114
      dxz     :     0.013822
      dyz     :     0.057670
      dx2y2   :     0.056749
      dxy     :     0.093253
 23 O s       :     3.541237  s :     3.541237
      pz      :     1.511178  p :     4.675782
      px      :     1.688918
      py      :     1.475686
      dz2     :     0.025724  d :     0.229923
      dxz     :     0.019384
      dyz     :     0.051668
      dx2y2   :     0.066070
      dxy     :     0.067077
 24 C s       :     2.767886  s :     2.767886
      pz      :     0.884770  p :     2.781643
      px      :     0.922155
      py      :     0.974719
      dz2     :     0.017763  d :     0.161266
      dxz     :     0.019263
      dyz     :     0.029921
      dx2y2   :     0.047743
      dxy     :     0.046577
 25 O s       :     3.467873  s :     3.467873
      pz      :     1.675203  p :     4.689985
      px      :     1.393887
      py      :     1.620895
      dz2     :     0.038119  d :     0.278079
      dxz     :     0.039686
      dyz     :     0.046435
      dx2y2   :     0.066128
      dxy     :     0.087711
 26 H s       :     0.773591  s :     0.773591
      pz      :     0.013373  p :     0.041559
      px      :     0.018060
      py      :     0.010126
 27 H s       :     0.770448  s :     0.770448
      pz      :     0.008329  p :     0.040805
      px      :     0.005382
      py      :     0.027094
 28 H s       :     0.773185  s :     0.773185
      pz      :     0.027884  p :     0.041631
      px      :     0.006107
      py      :     0.007640
 29 H s       :     0.772020  s :     0.772020
      pz      :     0.029467  p :     0.044842
      px      :     0.008079
      py      :     0.007296
 30 H s       :     0.768393  s :     0.768393
      pz      :     0.010329  p :     0.044999
      px      :     0.026626
      py      :     0.008044
 31 H s       :     0.781172  s :     0.781172
      pz      :     0.010224  p :     0.044218
      px      :     0.017086
      py      :     0.016908
 32 H s       :     0.774493  s :     0.774493
      pz      :     0.010220  p :     0.044618
      px      :     0.015169
      py      :     0.019228
 33 H s       :     0.778295  s :     0.778295
      pz      :     0.010397  p :     0.045297
      px      :     0.010329
      py      :     0.024571
 34 H s       :     0.769036  s :     0.769036
      pz      :     0.009110  p :     0.044538
      px      :     0.026879
      py      :     0.008549
 35 H s       :     0.589362  s :     0.589362
      pz      :     0.032792  p :     0.088017
      px      :     0.035796
      py      :     0.019430
 36 H s       :     0.756445  s :     0.756445
      pz      :     0.006340  p :     0.042508
      px      :     0.015236
      py      :     0.020932
 37 H s       :     0.755583  s :     0.755583
      pz      :     0.004536  p :     0.042682
      px      :     0.013757
      py      :     0.024388
 38 H s       :     0.759336  s :     0.759336
      pz      :     0.008606  p :     0.041416
      px      :     0.025050
      py      :     0.007760
 39 H s       :     0.754149  s :     0.754149
      pz      :     0.015557  p :     0.044965
      px      :     0.007010
      py      :     0.022398
 40 H s       :     0.756579  s :     0.756579
      pz      :     0.015374  p :     0.044908
      px      :     0.006941
      py      :     0.022593
 41 H s       :     0.758940  s :     0.758940
      pz      :     0.014873  p :     0.044574
      px      :     0.021852
      py      :     0.007849
 42 H s       :     0.745340  s :     0.745340
      pz      :     0.011188  p :     0.043278
      px      :     0.007477
      py      :     0.024613
 43 H s       :     0.757097  s :     0.757097
      pz      :     0.020760  p :     0.041866
      px      :     0.012873
      py      :     0.008233
 44 H s       :     0.750716  s :     0.750716
      pz      :     0.017167  p :     0.044962
      px      :     0.010582
      py      :     0.017214
 45 H s       :     0.552504  s :     0.552504
      pz      :     0.028925  p :     0.131678
      px      :     0.062129
      py      :     0.040624


                      *****************************
                      * MAYER POPULATION ANALYSIS *
                      *****************************

  NA   - Mulliken gross atomic population
  ZA   - Total nuclear charge
  QA   - Mulliken gross atomic charge
  VA   - Mayer's total valence
  BVA  - Mayer's bonded valence
  FA   - Mayer's free valence

  ATOM       NA         ZA         QA         VA         BVA        FA
  0 C      6.3099     6.0000    -0.3099     3.7522     3.7522    -0.0000
  1 O      8.1851     8.0000    -0.1851     2.1087     2.1087    -0.0000
  2 C      5.7882     6.0000     0.2118     4.0238     4.0238    -0.0000
  3 O      8.4784     8.0000    -0.4784     1.9527     1.9527    -0.0000
  4 C      5.8905     6.0000     0.1095     3.4886     3.4886    -0.0000
  5 N      7.0926     7.0000    -0.0926     2.9176     2.9176    -0.0000
  6 C      5.9480     6.0000     0.0520     3.7477     3.7477    -0.0000
  7 C      6.0178     6.0000    -0.0178     3.7586     3.7586     0.0000
  8 C      6.5869     6.0000    -0.5869     3.8126     3.8126     0.0000
  9 C      6.4783     6.0000    -0.4783     3.7060     3.7060    -0.0000
 10 N      7.1079     7.0000    -0.1079     3.3174     3.3174    -0.0000
 11 C      5.8671     6.0000     0.1329     3.7446     3.7446     0.0000
 12 O      8.1811     8.0000    -0.1811     2.2691     2.2691    -0.0000
 13 C      6.2972     6.0000    -0.2972     3.7135     3.7135    -0.0000
 14 C      5.8114     6.0000     0.1886     4.2231     4.2231     0.0000
 15 N      6.9498     7.0000     0.0502     3.0121     3.0121    -0.0000
 16 N      7.3950     7.0000    -0.3950     3.0506     3.0506    -0.0000
 17 C      5.5193     6.0000     0.4807     3.4425     3.4425    -0.0000
 18 C      6.6281     6.0000    -0.6281     3.7801     3.7801    -0.0000
 19 O      8.0364     8.0000    -0.0364     2.3371     2.3371     0.0000
 20 N      6.7197     7.0000     0.2803     3.4150     3.4150     0.0000
 21 C      6.4559     6.0000    -0.4559     3.7634     3.7634     0.0000
 22 C      5.8615     6.0000     0.1385     4.1327     4.1327     0.0000
 23 O      8.4282     8.0000    -0.4282     2.0758     2.0758     0.0000
 24 C      5.9428     6.0000     0.0572     3.6193     3.6193     0.0000
 25 O      8.3554     8.0000    -0.3554     2.0188     2.0188     0.0000
 26 H      0.8193     1.0000     0.1807     0.9482     0.9482     0.0000
 27 H      0.8190     1.0000     0.1810     0.9499     0.9499     0.0000
 28 H      0.8192     1.0000     0.1808     0.9483     0.9483     0.0000
 29 H      0.7998     1.0000     0.2002     0.9446     0.9446    -0.0000
 30 H      0.7973     1.0000     0.2027     0.9463     0.9463    -0.0000
 31 H      0.8063     1.0000     0.1937     0.9484     0.9484     0.0000
 32 H      0.7996     1.0000     0.2004     0.9485     0.9485     0.0000
 33 H      0.8058     1.0000     0.1942     0.9513     0.9513     0.0000
 34 H      0.7908     1.0000     0.2092     0.9462     0.9462     0.0000
 35 H      0.6414     1.0000     0.3586     0.8660     0.8660    -0.0000
 36 H      0.7984     1.0000     0.2016     0.9384     0.9384    -0.0000
 37 H      0.7991     1.0000     0.2009     0.9394     0.9394     0.0000
 38 H      0.8011     1.0000     0.1989     0.9440     0.9440    -0.0000
 39 H      0.7863     1.0000     0.2137     0.9399     0.9399     0.0000
 40 H      0.7907     1.0000     0.2093     0.9421     0.9421     0.0000
 41 H      0.7873     1.0000     0.2127     0.9449     0.9449    -0.0000
 42 H      0.7994     1.0000     0.2006     0.9469     0.9469     0.0000
 43 H      0.7847     1.0000     0.2153     0.9371     0.9371     0.0000
 44 H      0.7966     1.0000     0.2034     0.9396     0.9396     0.0000
 45 H      0.6251     1.0000     0.3749     0.8792     0.8792     0.0000

  Mayer bond orders larger than 0.100000
B(  0-C ,  1-O ) :   0.8213 B(  0-C , 26-H ) :   0.9536 B(  0-C , 27-H ) :   0.9605 
B(  0-C , 28-H ) :   0.9542 B(  1-O ,  2-C ) :   1.2056 B(  2-C ,  3-O ) :   1.7280 
B(  2-C ,  4-C ) :   1.0673 B(  4-C ,  5-N ) :   1.0272 B(  4-C , 24-C ) :   1.2844 
B(  5-N ,  6-C ) :   1.6651 B(  6-C ,  7-C ) :   0.7831 B(  6-C , 12-O ) :   0.1235 
B(  6-C , 20-N ) :   1.2183 B(  6-C , 24-C ) :   0.1204 B(  7-C ,  8-C ) :   0.9298 
B(  7-C ,  9-C ) :   1.0090 B(  7-C , 10-N ) :   0.7288 B(  8-C , 29-H ) :   0.9490 
B(  8-C , 30-H ) :   0.9516 B(  8-C , 31-H ) :   0.9682 B(  9-C , 32-H ) :   0.9592 
B(  9-C , 33-H ) :   0.9231 B(  9-C , 34-H ) :   0.9574 B( 10-N , 11-C ) :   1.4516 
B( 10-N , 14-C ) :   0.1022 B( 10-N , 35-H ) :   0.8743 B( 11-C , 12-O ) :   1.1663 
B( 11-C , 14-C ) :   1.0120 B( 12-O , 13-C ) :   0.8180 B( 13-C , 36-H ) :   0.9335 
B( 13-C , 37-H ) :   0.9307 B( 13-C , 38-H ) :   0.9476 B( 14-C , 15-N ) :   1.6695 
B( 14-C , 16-N ) :   0.1236 B( 14-C , 17-C ) :   0.1070 B( 14-C , 19-O ) :   1.0917 
B( 15-N , 16-N ) :   1.2096 B( 16-N , 17-C ) :   1.4656 B( 17-C , 18-C ) :   0.8326 
B( 17-C , 19-O ) :   1.0741 B( 18-C , 39-H ) :   0.9295 B( 18-C , 40-H ) :   0.9425 
B( 18-C , 41-H ) :   0.9815 B( 20-N , 21-C ) :   0.8421 B( 20-N , 22-C ) :   1.0531 
B( 21-C , 42-H ) :   0.9315 B( 21-C , 43-H ) :   0.9287 B( 21-C , 44-H ) :   0.9254 
B( 22-C , 23-O ) :   1.8930 B( 22-C , 24-C ) :   1.0083 B( 24-C , 25-O ) :   1.1495 
B( 25-O , 45-H ) :   0.7682 

-------
TIMINGS
-------

Total SCF time: 0 days 0 hours 1 min 36 sec 

Total time                  ....      96.713 sec
Sum of individual times     ....      95.503 sec  ( 98.7%)

Fock matrix formation       ....      88.053 sec  ( 91.0%)
  Split-RI-J                ....      14.001 sec  ( 15.9% of F)
  XC integration            ....      41.582 sec  ( 47.2% of F)
    Basis function eval.    ....       6.243 sec  ( 15.0% of XC)
    Density eval.           ....      16.297 sec  ( 39.2% of XC)
    XC-Functional eval.     ....       3.596 sec  (  8.6% of XC)
    XC-Potential eval.      ....      14.048 sec  ( 33.8% of XC)
Diagonalization             ....       1.113 sec  (  1.2%)
Density matrix formation    ....       0.078 sec  (  0.1%)
Population analysis         ....       0.119 sec  (  0.1%)
Initial guess               ....       1.754 sec  (  1.8%)
Orbital Transformation      ....       0.000 sec  (  0.0%)
Orbital Orthonormalization  ....       0.000 sec  (  0.0%)
DIIS solution               ....       0.472 sec  (  0.5%)
SOSCF solution              ....       0.556 sec  (  0.6%)
Grid generation             ....       3.357 sec  (  3.5%)

Maximum memory used throughout the entire SCF-calculation: 161.4 MB


-------------------------------------------------------------------------------
                          DFT DISPERSION CORRECTION                            
                                                                               
                                 DFTD4 V2.5                                    
-------------------------------------------------------------------------------
The R2SCAN3C composite method is recognized
Using three-body term ABC
Active option DFTDOPT                   ...         5   

Starting D4
-------------------------   ----------------
Dispersion correction           -0.021402001
-------------------------   ----------------

------------------   -----------------
gCP correction             0.045674012
------------------   -----------------

-------------------------   --------------------
FINAL SINGLE POINT ENERGY     -1308.357337055820
-------------------------   --------------------


                            ***************************************
                            *     ORCA property calculations      *
                            ***************************************

                                    ---------------------
                                    Active property flags
                                    ---------------------
   (+) Dipole Moment


------------------------------------------------------------------------------
                       ORCA ELECTRIC PROPERTIES CALCULATION
------------------------------------------------------------------------------

Dipole Moment Calculation                       ... on
Quadrupole Moment Calculation                   ... off
Polarizability Calculation                      ... off
GBWName                                         ... /lustre/hpc/kemi/ree/PhD/git/ReactivityQM/calculations/R03/reac02prodN02/conf07/gfn1/orca_calc.gbw
Electron density                                ... /lustre/hpc/kemi/ree/PhD/git/ReactivityQM/calculations/R03/reac02prodN02/conf07/gfn1/orca_calc.scfp
The origin for moment calculation is the CENTER OF MASS  = (-0.342043,  0.499035  0.376793)

-------------
DIPOLE MOMENT
-------------
                                X             Y             Z
Electronic contribution:     -2.03258       8.91928       6.08068
Nuclear contribution   :      6.83197     -12.44494      -8.36704
                        -----------------------------------------
Total Dipole Moment    :      4.79940      -3.52566      -2.28636
                        -----------------------------------------
Magnitude (a.u.)       :      6.37902
Magnitude (Debye)      :     16.21418



--------------------
Rotational spectrum 
--------------------
 
Rotational constants in cm-1:     0.013552     0.003688     0.003486 
Rotational constants in MHz :   406.287943   110.574751   104.502117 

 Dipole components along the rotational axes: 
x,y,z [a.u.] :     5.111130    -3.177426     2.114763 
x,y,z [Debye]:    12.991460    -8.076376     5.375301 

 

Timings for individual modules:

Sum of individual times         ...       98.001 sec (=   1.633 min)
GTO integral calculation        ...        1.021 sec (=   0.017 min)   1.0 %
SCF iterations                  ...       96.980 sec (=   1.616 min)  99.0 %
                             ****ORCA TERMINATED NORMALLY****
TOTAL RUN TIME: 0 days 0 hours 1 minutes 38 seconds 736 msec
