      -----------------------------------------------------------      
     |                   =====================                   |     
     |                           x T B                           |     
     |                   =====================                   |     
     |                         S. Grimme                         |     
     |          Mulliken Center for Theoretical Chemistry        |     
     |                    University of Bonn                     |     
      -----------------------------------------------------------      

   * xtb version 6.5.1 (579679a) compiled by 'ehlert@majestix' on 2022-07-11

   xtb is free software: you can redistribute it and/or modify it under
   the terms of the GNU Lesser General Public License as published by
   the Free Software Foundation, either version 3 of the License, or
   (at your option) any later version.
   
   xtb is distributed in the hope that it will be useful,
   but WITHOUT ANY WARRANTY; without even the implied warranty of
   MERCHANTABILITY or FITNESS FOR A PARTICULAR PURPOSE.  See the
   GNU Lesser General Public License for more details.
   
   Cite this work as:
   * C. Bannwarth, E. Caldeweyher, S. Ehlert, A. Hansen, P. Pracht,
     J. Seibert, S. Spicher, S. Grimme, WIREs Comput. Mol. Sci., 2020, 11,
     e01493. DOI: 10.1002/wcms.1493
   
   for GFN2-xTB:
   * C. Bannwarth, S. Ehlert and S. Grimme., J. Chem. Theory Comput., 2019,
     15, 1652-1671. DOI: 10.1021/acs.jctc.8b01176
   for GFN1-xTB:
   * S. Grimme, C. Bannwarth, P. Shushkov, J. Chem. Theory Comput., 2017,
     13, 1989-2009. DOI: 10.1021/acs.jctc.7b00118
   for GFN0-xTB:
   * P. Pracht, E. Caldeweyher, S. Ehlert, S. Grimme, ChemRxiv, 2019, preprint.
     DOI: 10.26434/chemrxiv.8326202.v1
   for GFN-FF:
   * S. Spicher and S. Grimme, Angew. Chem. Int. Ed., 2020, 59, 15665-15673.
     DOI: 10.1002/anie.202004239
   
   for ALPB and GBSA implicit solvation:
   * S. Ehlert, M. Stahn, S. Spicher, S. Grimme, J. Chem. Theory Comput.,
     2021, 17, 4250-4261. DOI: 10.1021/acs.jctc.1c00471
   
   for DFT-D4:
   * E. Caldeweyher, C. Bannwarth and S. Grimme, J. Chem. Phys., 2017,
     147, 034112. DOI: 10.1063/1.4993215
   * E. Caldeweyher, S. Ehlert, A. Hansen, H. Neugebauer, S. Spicher,
     C. Bannwarth and S. Grimme, J. Chem. Phys., 2019, 150, 154122.
     DOI: 10.1063/1.5090222
   * E. Caldeweyher, J.-M. Mewes, S. Ehlert and S. Grimme, Phys. Chem. Chem. Phys.
     2020, 22, 8499-8512. DOI: 10.1039/D0CP00502A
   
   for sTDA-xTB:
   * S. Grimme and C. Bannwarth, J. Chem. Phys., 2016, 145, 054103.
     DOI: 10.1063/1.4959605
   
   in the mass-spec context:
   * V. Asgeirsson, C. Bauer and S. Grimme, Chem. Sci., 2017, 8, 4879.
     DOI: 10.1039/c7sc00601b
   * J. Koopman and S. Grimme, ACS Omega 2019, 4, 12, 15120-15133.
     DOI: 10.1021/acsomega.9b02011
   
   for metadynamics refer to:
   * S. Grimme, J. Chem. Theory Comput., 2019, 155, 2847-2862
     DOI: 10.1021/acs.jctc.9b00143
   
   for SPH calculations refer to:
   * S. Spicher and S. Grimme, J. Chem. Theory Comput., 2021, 17, 1701-1714
     DOI: 10.1021/acs.jctc.0c01306
   
   with help from (in alphabetical order)
   P. Atkinson, C. Bannwarth, F. Bohle, G. Brandenburg, E. Caldeweyher
   M. Checinski, S. Dohm, S. Ehlert, S. Ehrlich, I. Gerasimov, C. Hölzer
   A. Katbashev, J. Koopman, C. Lavigne, S. Lehtola, F. März, M. Müller,
   F. Musil, H. Neugebauer, J. Pisarek, C. Plett, P. Pracht, F. Pultar,
   J. Seibert, P. Shushkov, S. Spicher, M. Stahn, M. Steiner, T. Strunk,
   J. Stückrath, T. Rose, and J. Unsleber
   
 * started run on 2023/06/20 at 18:23:53.424     

           -------------------------------------------------
          |                Calculation Setup                |
           -------------------------------------------------

          program call               : /lustre/hpc/kemi/ree/PhD/git/ReactivityQM/dep/xtb-6.5.1/bin/xtb --gfn 1 /lustre/hpc/kemi/ree/PhD/git/ReactivityQM/calculations/R02deprot/reac01prodN14/conf03/R02deprot_reac01prodN14_conf03_gfn1.xyz --opt --vfukui --chrg 0 --uhf 0 --alpb DMSO
          hostname                   : node308
          coordinate file            : /lustre/hpc/kemi/ree/PhD/git/ReactivityQM/calculations/R02deprot/reac01prodN14/conf03/R02deprot_reac01prodN14_conf03_gfn1.xyz
          omp threads                :                     1

   ID    Z sym.   atoms
    1    6 C      1, 3, 5, 7-10, 12, 14, 17-19, 22, 24
    2    8 O      2, 4, 13, 20, 23, 25
    3    7 N      6, 11, 15, 16, 21
    4    1 H      26-42

           -------------------------------------------------
          |                 G F N 1 - x T B                 |
           -------------------------------------------------

        Reference                      10.1021/acs.jctc.7b00118
      * Hamiltonian:
        H0-scaling (s, p, d)           1.850000    2.250000    2.000000
        zeta-weighting                 0.000000
      * Dispersion:
        s8                             2.400000
        a1                             0.630000
        a2                             5.000000
        s9                             0.000000
      * Repulsion:
        kExp                           1.500000
        rExp                           1.000000
      * Coulomb:
        alpha                          2.000000
        third order                    atomic
        anisotropic                    false
      * Halogen bond correction:
        rad-scale                      1.300000
        damping                        0.440000

      * Solvation model:               ALPB
        Solvent                        DMSO
        Parameter file                 internal GFN1-xTB/ALPB
        Dielectric constant                4.6680E+01
        Reference state                gsolv [1 M gas/solution]
        Free energy shift                  7.6243E-03 Eh       4.7843E+00 kcal/mol
        Temperature                        2.9815E+02 K
        Density                            1.1000E+00 kg/L
        Solvent mass                       7.8130E+01 g/mol
        Interaction kernel             P16
        Born radius scaling (c1)           1.7672E+00
        Born radii integrator          GBOBC
        Born offset                        0.0000E+00 a0       0.0000E+00 AA
        H-bond correction              true
        Ion screening                  false
        Surface tension                    1.0000E-05 Eh       1.5569E+01 dyn/cm
        Grid points                               230 per atom

          ...................................................
          :                      SETUP                      :
          :.................................................:
          :  # basis functions                 134          :
          :  # atomic orbitals                 134          :
          :  # shells                           84          :
          :  # electrons                       134          :
          :  # halogen bonds                     0          :
          :  max. iterations                   250          :
          :  Hamiltonian                  GFN1-xTB          :
          :  restarted?                      false          :
          :  GBSA solvation                   true          :
          :  PC potential                    false          :
          :  electronic temp.          300.0000000     K    :
          :  accuracy                    1.0000000          :
          :  -> integral cutoff          0.2500000E+02      :
          :  -> integral neglect         0.1000000E-07      :
          :  -> SCF convergence          0.1000000E-05 Eh   :
          :  -> wf. convergence          0.2000000E-04 e    :
          :  Broyden damping             0.4000000          :
          ...................................................

 iter      E             dE          RMSdq      gap      omega  full diag
   1    -83.3301137 -0.833301E+02  0.842E+00    1.11       0.0  T
   2    -83.3890378 -0.589241E-01  0.526E+00    0.23       1.0  T
   3    -83.3588415  0.301963E-01  0.308E+00    0.14       1.0  T
   4    -83.5886831 -0.229842E+00  0.116E+00    1.63       1.0  T
   5    -83.6246724 -0.359893E-01  0.666E-01    0.51       1.0  T
   6    -83.4161144  0.208558E+00  0.155E+00    0.21       1.0  T
   7    -83.6254252 -0.209311E+00  0.630E-01    0.38       1.0  T
   8    -83.5374450  0.879803E-01  0.103E+00    0.08       1.0  T
   9    -83.6268049 -0.893599E-01  0.601E-01    0.30       1.0  T
  10    -83.6362617 -0.945679E-02  0.515E-01    0.18       1.0  T
  11    -83.6662045 -0.299429E-01  0.123E-01    0.07       1.0  T
  12    -83.6663685 -0.163970E-03  0.116E-01    0.04       1.0  T
  13    -83.6660976  0.270858E-03  0.126E-01    0.07       1.0  T
  14    -83.6677723 -0.167465E-02  0.467E-02    0.05       1.0  T
  15    -83.6679635 -0.191231E-03  0.253E-02    0.06       1.0  T
  16    -83.6680424 -0.788309E-04  0.107E-03    0.05      14.5  T
  17    -83.6680420  0.381938E-06  0.205E-03    0.05       7.5  T
  18    -83.6680406  0.135188E-05  0.389E-03    0.05       4.0  T
  19    -83.6680425 -0.183823E-05  0.533E-04    0.05      28.9  T
  20    -83.6680425 -0.346200E-07  0.634E-05    0.05     243.5  T
  21    -83.6680425 -0.430191E-09  0.236E-05    0.05     653.0  T

   *** convergence criteria satisfied after 21 iterations ***

         #    Occupation            Energy/Eh            Energy/eV
      -------------------------------------------------------------
         1        2.0000           -0.8764944             -23.8506
       ...           ...                  ...                  ...
        61        2.0000           -0.4775149             -12.9938
        62        2.0000           -0.4709875             -12.8162
        63        2.0000           -0.4666199             -12.6974
        64        2.0000           -0.4560523             -12.4098
        65        2.0000           -0.4498568             -12.2412
        66        1.9987           -0.4220747             -11.4852
        67        1.4705           -0.4161035             -11.3228 (HOMO)
        68        0.5308           -0.4141657             -11.2700 (LUMO)
        69                         -0.3290016              -8.9526
        70                         -0.3185782              -8.6690
        71                         -0.2746860              -7.4746
        72                         -0.2285563              -6.2193
       ...                                ...                  ...
       134                          0.7142739              19.4364
      -------------------------------------------------------------
                  HL-Gap            0.0019378 Eh            0.0527 eV
             Fermi-level           -0.4151330 Eh          -11.2963 eV

 SCC (total)                   0 d,  0 h,  0 min,  0.252 sec
 SCC setup                      ...        0 min,  0.002 sec (  0.596%)
 Dispersion                     ...        0 min,  0.000 sec (  0.113%)
 classical contributions        ...        0 min,  0.000 sec (  0.040%)
 integral evaluation            ...        0 min,  0.036 sec ( 14.241%)
 iterations                     ...        0 min,  0.128 sec ( 50.537%)
 molecular gradient             ...        0 min,  0.086 sec ( 34.074%)
 printout                       ...        0 min,  0.001 sec (  0.380%)

         :::::::::::::::::::::::::::::::::::::::::::::::::::::
         ::                     SUMMARY                     ::
         :::::::::::::::::::::::::::::::::::::::::::::::::::::
         :: total energy             -82.914379174689 Eh    ::
         :: total w/o Gsasa/hb       -82.889618743013 Eh    ::
         :: gradient norm              0.112703945036 Eh/a0 ::
         :: HOMO-LUMO gap              0.052728892787 eV    ::
         ::.................................................::
         :: SCC energy               -83.668042490990 Eh    ::
         :: -> electrostatic           0.352395937058 Eh    ::
         :: -> Gsolv                  -0.054991719719 Eh    ::
         ::    -> Gelec               -0.030231288044 Eh    ::
         ::    -> Gsasa               -0.024936956555 Eh    ::
         ::    -> Ghb                 -0.007447754125 Eh    ::
         ::    -> Gshift               0.007624279005 Eh    ::
         :: repulsion energy           0.778722366182 Eh    ::
         :: dispersion energy         -0.025059049881 Eh    ::
         :: halogen bond corr.         0.000000000000 Eh    ::
         :: add. restraining           0.000000000000 Eh    ::
         :: total charge               0.000000000006 e     ::
         :::::::::::::::::::::::::::::::::::::::::::::::::::::

      ----------------------------------------------------------- 
     |                   =====================                   |
     |                        A N C O P T                        |
     |                   =====================                   |
     |               Approximate Normal Coordinate               |
     |                Rational Function Optimizer                |
      ----------------------------------------------------------- 

          ...................................................
          :                      SETUP                      :
          :.................................................:
          :   optimization level            normal          :
          :   max. optcycles                   200          :
          :   ANC micro-cycles                  20          :
          :   degrees of freedom               120          :
          :.................................................:
          :   RF solver                   davidson          :
          :   write xtbopt.log                true          :
          :   linear?                        false          :
          :   energy convergence         0.5000000E-05 Eh   :
          :   grad. convergence          0.1000000E-02 Eh/α :
          :   maximium RF displ.         1.0000000          :
          :   Hlow (freq-cutoff)         0.1000000E-01      :
          :   Hmax (freq-cutoff)         5.0000000          :
          :   S6 in model hess.         20.0000000          :
          ...................................................

generating ANC from model Hessian ...
Using Lindh-Hessian (1995)
 Shifting diagonal of input Hessian by   9.829178484203178E-003
 Lowest  eigenvalues of input Hessian
    0.000000    0.000000    0.000000    0.000000    0.000000    0.000000
    0.010000    0.010206    0.010333    0.010795    0.011832    0.012320
    0.013267    0.013722    0.014441    0.014766    0.016401    0.017457
 Highest eigenvalues
    2.023555    2.103202    2.194654    2.297521    2.322975    2.391495
 

........................................................................
.............................. CYCLE    1 ..............................
........................................................................
   1    -83.6680425 -0.836680E+02  0.431E-06    0.05       0.0  T
   2    -83.6680425  0.766164E-09  0.790E-05    0.05     195.4  T
   3    -83.6680425 -0.768509E-09  0.401E-07    0.05   38466.0  T
     SCC iter.                  ...        0 min,  0.011 sec
     gradient                   ...        0 min,  0.080 sec
 * total energy  :   -82.9143792 Eh     change       -0.6916423E-10 Eh
   gradient norm :     0.1127029 Eh/α   predicted     0.0000000E+00 (-100.00%)
   displ. norm   :     0.2825453 α      lambda       -0.1526995E-01
   maximum displ.:     0.1150096 α      in ANC's #27, #25, #24, ...

........................................................................
.............................. CYCLE    2 ..............................
........................................................................
   1    -83.6607512 -0.836608E+02  0.370E-01    0.12       0.0  T
   2    -83.4181167  0.242634E+00  0.158E+00    0.21       1.0  T
   3    -83.5245687 -0.106452E+00  0.112E+00    0.09       1.0  T
   4    -83.6785245 -0.153956E+00  0.498E-02    0.05       1.0  T
   5    -83.6772671  0.125741E-02  0.113E-01    0.04       1.0  T
   6    -83.6786276 -0.136051E-02  0.330E-02    0.05       1.0  T
   7    -83.6786872 -0.596135E-04  0.223E-02    0.06       1.0  T
   8    -83.6787235 -0.362394E-04  0.144E-02    0.06       1.1  T
   9    -83.6787490 -0.255001E-04  0.518E-04    0.05      29.8  T
  10    -83.6787486  0.431171E-06  0.194E-03    0.05       8.0  T
  11    -83.6787489 -0.378049E-06  0.818E-04    0.05      18.9  T
  12    -83.6787490 -0.837556E-07  0.128E-05    0.05    1202.2  T
  13    -83.6787490  0.318465E-10  0.165E-05    0.05     933.5  T
     SCC iter.                  ...        0 min,  0.044 sec
     gradient                   ...        0 min,  0.080 sec
 * total energy  :   -82.9253026 Eh     change       -0.1092342E-01 Eh
   gradient norm :     0.0573829 Eh/α   predicted    -0.8249857E-02 ( -24.48%)
   displ. norm   :     0.2850264 α      lambda       -0.6271725E-02
   maximum displ.:     0.1174618 α      in ANC's #24, #25, #27, ...

........................................................................
.............................. CYCLE    3 ..............................
........................................................................
   1    -83.6679092 -0.836679E+02  0.381E-01    0.13       0.0  T
   2    -83.4165041  0.251405E+00  0.160E+00    0.19       1.0  T
   3    -83.5472141 -0.130710E+00  0.106E+00    0.08       1.0  T
   4    -83.6776538 -0.130440E+00  0.266E-01    0.10       1.0  T
   5    -83.6860742 -0.842041E-02  0.253E-02    0.06       1.0  T
   6    -83.6861295 -0.552881E-04  0.111E-02    0.05       1.4  T
   7    -83.6861367 -0.725671E-05  0.565E-03    0.06       2.7  T
   8    -83.6861398 -0.305886E-05  0.259E-03    0.06       6.0  T
   9    -83.6861397  0.131421E-06  0.277E-03    0.06       5.6  T
  10    -83.6861406 -0.940830E-06  0.327E-04    0.06      47.1  T
  11    -83.6861406 -0.715183E-08  0.214E-04    0.06      72.1  T
  12    -83.6861406 -0.571599E-08  0.703E-06    0.06    2195.5  T
  13    -83.6861406 -0.186162E-11  0.535E-06    0.06    2882.2  T
     SCC iter.                  ...        0 min,  0.045 sec
     gradient                   ...        0 min,  0.080 sec
 * total energy  :   -82.9289099 Eh     change       -0.3607303E-02 Eh
   gradient norm :     0.0158003 Eh/α   predicted    -0.3391923E-02 (  -5.97%)
   displ. norm   :     0.1606235 α      lambda       -0.6949133E-03
   maximum displ.:     0.0726495 α      in ANC's #2, #11, #24, ...

........................................................................
.............................. CYCLE    4 ..............................
........................................................................
   1    -83.6852566 -0.836853E+02  0.127E-01    0.07       0.0  T
   2    -83.4411809  0.244076E+00  0.144E+00    0.16       1.0  T
   3    -83.6870258 -0.245845E+00  0.364E-02    0.05       1.0  T
   4    -83.6870364 -0.106092E-04  0.367E-02    0.06       1.0  T
   5    -83.6871944 -0.158032E-03  0.385E-03    0.06       4.0  T
   6    -83.6871960 -0.160450E-05  0.839E-04    0.06      18.4  T
   7    -83.6871961 -0.509110E-07  0.478E-04    0.06      32.3  T
   8    -83.6871961 -0.204029E-07  0.226E-04    0.06      68.2  T
   9    -83.6871961 -0.593029E-08  0.450E-05    0.06     343.1  T
  10    -83.6871961  0.887042E-10  0.518E-05    0.06     298.0  T
     SCC iter.                  ...        0 min,  0.034 sec
     gradient                   ...        0 min,  0.080 sec
 * total energy  :   -82.9294217 Eh     change       -0.5117952E-03 Eh
   gradient norm :     0.0087766 Eh/α   predicted    -0.3564295E-03 ( -30.36%)
   displ. norm   :     0.2254543 α      lambda       -0.5233755E-03
   maximum displ.:     0.1284251 α      in ANC's #2, #11, #4, ...

........................................................................
.............................. CYCLE    5 ..............................
........................................................................
   1    -83.6876507 -0.836877E+02  0.744E-02    0.07       0.0  T
   2    -83.4948024  0.192848E+00  0.126E+00    0.12       1.0  T
   3    -83.6880159 -0.193214E+00  0.479E-02    0.06       1.0  T
   4    -83.6882097 -0.193744E-03  0.247E-02    0.06       1.0  T
   5    -83.6882558 -0.460918E-04  0.143E-02    0.06       1.1  T
   6    -83.6882790 -0.232747E-04  0.502E-04    0.06      30.7  T
   7    -83.6882791 -0.196584E-07  0.119E-04    0.06     130.1  T
   8    -83.6882791 -0.836806E-09  0.512E-05    0.06     301.3  T
     SCC iter.                  ...        0 min,  0.027 sec
     gradient                   ...        0 min,  0.080 sec
 * total energy  :   -82.9297744 Eh     change       -0.3526897E-03 Eh
   gradient norm :     0.0058472 Eh/α   predicted    -0.2750371E-03 ( -22.02%)
   displ. norm   :     0.2046134 α      lambda       -0.2353907E-03
   maximum displ.:     0.1312948 α      in ANC's #2, #4, #8, ...

........................................................................
.............................. CYCLE    6 ..............................
........................................................................
   1    -83.6889002 -0.836889E+02  0.126E-02    0.06       0.0  T
   2    -83.6851171  0.378307E-02  0.175E-01    0.04       1.0  T
   3    -83.6888159 -0.369879E-02  0.288E-02    0.06       1.0  T
   4    -83.6888907 -0.747691E-04  0.141E-02    0.06       1.1  T
   5    -83.6889100 -0.192879E-04  0.537E-03    0.06       2.9  T
   6    -83.6889133 -0.329850E-05  0.173E-04    0.06      89.4  T
   7    -83.6889133 -0.146119E-08  0.554E-05    0.06     278.3  T
   8    -83.6889133 -0.194234E-09  0.311E-05    0.06     496.5  T
     SCC iter.                  ...        0 min,  0.027 sec
     gradient                   ...        0 min,  0.080 sec
 * total energy  :   -82.9299588 Eh     change       -0.1844536E-03 Eh
   gradient norm :     0.0062235 Eh/α   predicted    -0.1226651E-03 ( -33.50%)
   displ. norm   :     0.2766951 α      lambda       -0.2614964E-03
   maximum displ.:     0.1769633 α      in ANC's #2, #4, #8, ...

........................................................................
.............................. CYCLE    7 ..............................
........................................................................
   1    -83.6891617 -0.836892E+02  0.283E-02    0.06       0.0  T
   2    -83.6736878  0.154740E-01  0.359E-01    0.12       1.0  T
   3    -83.6891901 -0.155023E-01  0.245E-02    0.06       1.0  T
   4    -83.6892607 -0.706326E-04  0.369E-03    0.06       4.2  T
   5    -83.6892559  0.476850E-05  0.727E-03    0.06       2.1  T
   6    -83.6892620 -0.603296E-05  0.152E-03    0.06      10.2  T
   7    -83.6892622 -0.281482E-06  0.481E-05    0.06     321.0  T
   8    -83.6892622 -0.148702E-09  0.122E-05    0.06    1265.8  T
     SCC iter.                  ...        0 min,  0.027 sec
     gradient                   ...        0 min,  0.080 sec
 * total energy  :   -82.9301698 Eh     change       -0.2109868E-03 Eh
   gradient norm :     0.0062289 Eh/α   predicted    -0.1407590E-03 ( -33.29%)
   displ. norm   :     0.3269375 α      lambda       -0.2720792E-03
   maximum displ.:     0.2079816 α      in ANC's #2, #4, #3, ...

........................................................................
.............................. CYCLE    8 ..............................
........................................................................
   1    -83.6889177 -0.836889E+02  0.516E-02    0.06       0.0  T
   2    -83.6610789  0.278387E-01  0.487E-01    0.18       1.0  T
   3    -83.6889027 -0.278238E-01  0.530E-02    0.07       1.0  T
   4    -83.6889890 -0.862584E-04  0.460E-02    0.06       1.0  T
   5    -83.6892475 -0.258498E-03  0.501E-03    0.06       3.1  T
   6    -83.6892476 -0.143674E-06  0.476E-03    0.06       3.2  T
   7    -83.6892500 -0.236264E-05  0.185E-03    0.06       8.3  T
   8    -83.6892504 -0.412671E-06  0.305E-04    0.06      50.6  T
   9    -83.6892504 -0.953099E-08  0.125E-04    0.06     123.8  T
  10    -83.6892504 -0.192021E-08  0.797E-06    0.06    1934.8  T
     SCC iter.                  ...        0 min,  0.034 sec
     gradient                   ...        0 min,  0.080 sec
 * total energy  :   -82.9303904 Eh     change       -0.2205693E-03 Eh
   gradient norm :     0.0059402 Eh/α   predicted    -0.1505819E-03 ( -31.73%)
   displ. norm   :     0.3605261 α      lambda       -0.2589965E-03
   maximum displ.:     0.2293396 α      in ANC's #2, #4, #3, ...

........................................................................
.............................. CYCLE    9 ..............................
........................................................................
   1    -83.6888563 -0.836889E+02  0.525E-02    0.06       0.0  T
   2    -83.6606994  0.281568E-01  0.490E-01    0.18       1.0  T
   3    -83.6888224 -0.281230E-01  0.553E-02    0.07       1.0  T
   4    -83.6889175 -0.950471E-04  0.479E-02    0.06       1.0  T
   5    -83.6891966 -0.279096E-03  0.638E-03    0.06       2.4  T
   6    -83.6891976 -0.105598E-05  0.557E-03    0.06       2.8  T
   7    -83.6892011 -0.345341E-05  0.168E-03    0.06       9.2  T
   8    -83.6892014 -0.349671E-06  0.313E-05    0.06     493.1  T
   9    -83.6892014  0.852012E-09  0.864E-05    0.06     178.6  T
     SCC iter.                  ...        0 min,  0.030 sec
     gradient                   ...        0 min,  0.080 sec
 * total energy  :   -82.9305975 Eh     change       -0.2070598E-03 Eh
   gradient norm :     0.0056086 Eh/α   predicted    -0.1463310E-03 ( -29.33%)
   displ. norm   :     0.3610278 α      lambda       -0.2104406E-03
   maximum displ.:     0.2306339 α      in ANC's #2, #4, #3, ...

........................................................................
.............................. CYCLE   10 ..............................
........................................................................
   1    -83.6892176 -0.836892E+02  0.271E-02    0.06       0.0  T
   2    -83.6747028  0.145147E-01  0.347E-01    0.12       1.0  T
   3    -83.6892602 -0.145573E-01  0.201E-02    0.06       1.0  T
   4    -83.6893063 -0.461812E-04  0.514E-03    0.06       3.0  T
   5    -83.6893046  0.174893E-05  0.638E-03    0.06       2.4  T
   6    -83.6893091 -0.450249E-05  0.186E-03    0.06       8.3  T
   7    -83.6893095 -0.419894E-06  0.174E-04    0.06      88.7  T
   8    -83.6893095 -0.186405E-08  0.123E-04    0.06     125.4  T
     SCC iter.                  ...        0 min,  0.027 sec
     gradient                   ...        0 min,  0.080 sec
 * total energy  :   -82.9307617 Eh     change       -0.1642780E-03 Eh
   gradient norm :     0.0053653 Eh/α   predicted    -0.1189353E-03 ( -27.60%)
   displ. norm   :     0.2944099 α      lambda       -0.1414469E-03
   maximum displ.:     0.1923802 α      in ANC's #2, #4, #3, ...

........................................................................
.............................. CYCLE   11 ..............................
........................................................................
   1    -83.6898394 -0.836898E+02  0.509E-03    0.06       0.0  T
   2    -83.6897779  0.614818E-04  0.228E-02    0.07       1.0  T
   3    -83.6898336 -0.557206E-04  0.760E-03    0.06       2.0  T
   4    -83.6898387 -0.505958E-05  0.411E-03    0.06       3.8  T
   5    -83.6898405 -0.180388E-05  0.399E-04    0.06      38.7  T
   6    -83.6898405 -0.136737E-08  0.173E-04    0.06      89.3  T
   7    -83.6898405 -0.312687E-08  0.549E-05    0.06     281.2  T
     SCC iter.                  ...        0 min,  0.024 sec
     gradient                   ...        0 min,  0.080 sec
 * total energy  :   -82.9308719 Eh     change       -0.1101629E-03 Eh
   gradient norm :     0.0045488 Eh/α   predicted    -0.7685766E-04 ( -30.23%)
   displ. norm   :     0.2560061 α      lambda       -0.1194537E-03
   maximum displ.:     0.1695301 α      in ANC's #2, #4, #3, ...

........................................................................
.............................. CYCLE   12 ..............................
........................................................................
   1    -83.6906398 -0.836906E+02  0.208E-02    0.06       0.0  T
   2    -83.6706699  0.199700E-01  0.403E-01    0.03       1.0  T
   3    -83.6906725 -0.200027E-01  0.120E-02    0.06       1.3  T
   4    -83.6906825 -0.998029E-05  0.742E-03    0.06       2.1  T
   5    -83.6906883 -0.574101E-05  0.244E-03    0.06       6.3  T
   6    -83.6906889 -0.650309E-06  0.339E-04    0.06      45.6  T
   7    -83.6906889 -0.120234E-07  0.713E-05    0.06     216.3  T
   8    -83.6906889 -0.454989E-09  0.281E-05    0.06     548.8  T
     SCC iter.                  ...        0 min,  0.027 sec
     gradient                   ...        0 min,  0.080 sec
 * total energy  :   -82.9309695 Eh     change       -0.9764848E-04 Eh
   gradient norm :     0.0034911 Eh/α   predicted    -0.6364516E-04 ( -34.82%)
   displ. norm   :     0.2986219 α      lambda       -0.1329706E-03
   maximum displ.:     0.1957488 α      in ANC's #2, #4, #3, ...

........................................................................
.............................. CYCLE   13 ..............................
........................................................................
   1    -83.6906743 -0.836907E+02  0.422E-02    0.07       0.0  T
   2    -83.5994768  0.911975E-01  0.863E-01    0.06       1.0  T
   3    -83.6908829 -0.914061E-01  0.858E-03    0.06       1.8  T
   4    -83.6908869 -0.399787E-05  0.586E-03    0.06       2.6  T
   5    -83.6908902 -0.332008E-05  0.247E-03    0.06       6.3  T
   6    -83.6908909 -0.666664E-06  0.231E-04    0.06      66.7  T
   7    -83.6908909 -0.386471E-08  0.737E-05    0.06     209.4  T
   8    -83.6908909 -0.350965E-09  0.380E-05    0.06     406.4  T
     SCC iter.                  ...        0 min,  0.027 sec
     gradient                   ...        0 min,  0.080 sec
 * total energy  :   -82.9310768 Eh     change       -0.1072909E-03 Eh
   gradient norm :     0.0031632 Eh/α   predicted    -0.7243056E-04 ( -32.49%)
   displ. norm   :     0.3179867 α      lambda       -0.1220001E-03
   maximum displ.:     0.2063691 α      in ANC's #2, #4, #5, ...

........................................................................
.............................. CYCLE   14 ..............................
........................................................................
   1    -83.6904999 -0.836905E+02  0.436E-02    0.07       0.0  T
   2    -83.5928586  0.976413E-01  0.894E-01    0.06       1.0  T
   3    -83.6907285 -0.978699E-01  0.633E-03    0.06       2.4  T
   4    -83.6907308 -0.226619E-05  0.390E-03    0.06       4.0  T
   5    -83.6907323 -0.154017E-05  0.138E-03    0.06      11.2  T
   6    -83.6907325 -0.176118E-06  0.182E-04    0.06      84.7  T
   7    -83.6907325 -0.311414E-08  0.346E-05    0.06     446.1  T
     SCC iter.                  ...        0 min,  0.024 sec
     gradient                   ...        0 min,  0.081 sec
 * total energy  :   -82.9311753 Eh     change       -0.9842884E-04 Eh
   gradient norm :     0.0036316 Eh/α   predicted    -0.6717496E-04 ( -31.75%)
   displ. norm   :     0.3321854 α      lambda       -0.1101259E-03
   maximum displ.:     0.2144863 α      in ANC's #2, #4, #5, ...

........................................................................
.............................. CYCLE   15 ..............................
........................................................................
   1    -83.6899346 -0.836899E+02  0.337E-02    0.07       0.0  T
   2    -83.6286616  0.612730E-01  0.708E-01    0.04       1.0  T
   3    -83.6900734 -0.614118E-01  0.366E-03    0.06       4.2  T
   4    -83.6900744 -0.958657E-06  0.124E-03    0.06      12.4  T
   5    -83.6900744 -0.642785E-07  0.719E-04    0.06      21.5  T
   6    -83.6900745 -0.117957E-07  0.258E-04    0.06      59.9  T
   7    -83.6900745 -0.754389E-08  0.340E-05    0.06     454.4  T
   8    -83.6900745 -0.507185E-10  0.166E-05    0.06     929.2  T
     SCC iter.                  ...        0 min,  0.027 sec
     gradient                   ...        0 min,  0.081 sec
 * total energy  :   -82.9312649 Eh     change       -0.8966253E-04 Eh
   gradient norm :     0.0043015 Eh/α   predicted    -0.6114168E-04 ( -31.81%)
   displ. norm   :     0.4017295 α      lambda       -0.1287647E-03
   maximum displ.:     0.2574302 α      in ANC's #2, #4, #5, ...

........................................................................
.............................. CYCLE   16 ..............................
........................................................................
   1    -83.6895835 -0.836896E+02  0.274E-02    0.07       0.0  T
   2    -83.6489220  0.406615E-01  0.577E-01    0.03       1.0  T
   3    -83.6896766 -0.407546E-01  0.245E-03    0.06       6.3  T
   4    -83.6896766  0.137046E-07  0.158E-03    0.06       9.7  T
   5    -83.6896766  0.465587E-07  0.149E-03    0.06      10.4  T
   6    -83.6896767 -0.198985E-06  0.426E-04    0.06      36.2  T
   7    -83.6896768 -0.207060E-07  0.891E-05    0.06     173.2  T
   8    -83.6896768 -0.908926E-09  0.849E-06    0.06    1817.4  T
     SCC iter.                  ...        0 min,  0.027 sec
     gradient                   ...        0 min,  0.081 sec
 * total energy  :   -82.9313623 Eh     change       -0.9733455E-04 Eh
   gradient norm :     0.0042466 Eh/α   predicted    -0.7477373E-04 ( -23.18%)
   displ. norm   :     0.3739939 α      lambda       -0.1073419E-03
   maximum displ.:     0.2399256 α      in ANC's #2, #4, #5, ...

........................................................................
.............................. CYCLE   17 ..............................
........................................................................
   1    -83.6888700 -0.836889E+02  0.854E-03    0.06       0.0  T
   2    -83.6866112  0.225875E-02  0.136E-01    0.05       1.0  T
   3    -83.6888768 -0.226561E-02  0.301E-03    0.06       5.1  T
   4    -83.6888774 -0.516382E-06  0.161E-03    0.06       9.6  T
   5    -83.6888775 -0.141353E-06  0.865E-04    0.06      17.8  T
   6    -83.6888776 -0.669056E-07  0.170E-04    0.06      90.9  T
   7    -83.6888776 -0.291458E-08  0.381E-05    0.06     405.4  T
     SCC iter.                  ...        0 min,  0.024 sec
     gradient                   ...        0 min,  0.081 sec
 * total energy  :   -82.9314389 Eh     change       -0.7662685E-04 Eh
   gradient norm :     0.0047565 Eh/α   predicted    -0.6117980E-04 ( -20.16%)
   displ. norm   :     0.2385042 α      lambda       -0.9036691E-04
   maximum displ.:     0.1452243 α      in ANC's #2, #4, #1, ...

........................................................................
.............................. CYCLE   18 ..............................
........................................................................
   1    -83.6909061 -0.836909E+02  0.212E-02    0.06       0.0  T
   2    -83.6809838  0.992235E-02  0.287E-01    0.11       1.0  T
   3    -83.6909392 -0.995547E-02  0.136E-02    0.06       1.1  T
   4    -83.6909604 -0.211272E-04  0.155E-03    0.06      10.0  T
   5    -83.6909599  0.445162E-06  0.214E-03    0.06       7.2  T
   6    -83.6909604 -0.490808E-06  0.258E-04    0.06      59.9  T
   7    -83.6909604  0.793335E-09  0.263E-04    0.06      58.6  T
   8    -83.6909604 -0.588525E-08  0.146E-04    0.06     105.4  T
   9    -83.6909604 -0.227811E-08  0.545E-05    0.06     283.2  T
     SCC iter.                  ...        0 min,  0.031 sec
     gradient                   ...        0 min,  0.081 sec
 * total energy  :   -82.9314910 Eh     change       -0.5206057E-04 Eh
   gradient norm :     0.0033261 Eh/α   predicted    -0.4775546E-04 (  -8.27%)
   displ. norm   :     0.2570126 α      lambda       -0.5444887E-04
   maximum displ.:     0.1654758 α      in ANC's #2, #4, #1, ...

........................................................................
.............................. CYCLE   19 ..............................
........................................................................
   1    -83.6891836 -0.836892E+02  0.108E-02    0.06       0.0  T
   2    -83.6845829  0.460066E-02  0.194E-01    0.04       1.0  T
   3    -83.6891873 -0.460442E-02  0.954E-03    0.06       1.6  T
   4    -83.6891921 -0.480110E-05  0.675E-03    0.06       2.3  T
   5    -83.6891966 -0.441499E-05  0.228E-03    0.06       6.8  T
   6    -83.6891971 -0.583446E-06  0.157E-04    0.06      98.3  T
   7    -83.6891971 -0.252817E-08  0.304E-05    0.06     507.7  T
     SCC iter.                  ...        0 min,  0.024 sec
     gradient                   ...        0 min,  0.081 sec
 * total energy  :   -82.9315209 Eh     change       -0.2995699E-04 Eh
   gradient norm :     0.0040322 Eh/α   predicted    -0.2903070E-04 (  -3.09%)
   displ. norm   :     0.0554512 α      lambda       -0.2808390E-04
   maximum displ.:     0.0345400 α      in ANC's #1, #8, #2, ...

........................................................................
.............................. CYCLE   20 ..............................
........................................................................
   1    -83.6905037 -0.836905E+02  0.142E-02    0.06       0.0  T
   2    -83.6848174  0.568628E-02  0.217E-01    0.09       1.0  T
   3    -83.6905073 -0.568991E-02  0.139E-02    0.06       1.1  T
   4    -83.6905293 -0.219266E-04  0.272E-03    0.06       5.7  T
   5    -83.6905296 -0.317005E-06  0.194E-03    0.06       8.0  T
   6    -83.6905300 -0.387898E-06  0.446E-04    0.06      34.6  T
   7    -83.6905300 -0.236012E-07  0.913E-05    0.06     169.0  T
   8    -83.6905300 -0.100593E-08  0.124E-05    0.06    1240.1  T
     SCC iter.                  ...        0 min,  0.028 sec
     gradient                   ...        0 min,  0.081 sec
 * total energy  :   -82.9315420 Eh     change       -0.2110757E-04 Eh
   gradient norm :     0.0023615 Eh/α   predicted    -0.1408868E-04 ( -33.25%)
   displ. norm   :     0.1475328 α      lambda       -0.4295549E-04
   maximum displ.:     0.0809585 α      in ANC's #1, #2, #8, ...
 * RMSD in coord.:     0.6966060 α      energy gain  -0.1716284E-01 Eh

generating ANC from model Hessian ...
Using Lindh-Hessian (1995)
 Shifting diagonal of input Hessian by   9.806139813974124E-003
 Lowest  eigenvalues of input Hessian
    0.000000    0.000000    0.000000    0.000000    0.000000    0.000000
    0.010000    0.010253    0.010347    0.010798    0.011600    0.012348
    0.012936    0.013887    0.014236    0.015064    0.017305    0.018259
 Highest eigenvalues
    1.982791    2.089863    2.161891    2.325627    2.404251    2.432053
 

........................................................................
.............................. CYCLE   21 ..............................
........................................................................
   1    -83.6909047 -0.836909E+02  0.478E-03    0.06       0.0  T
   2    -83.6905902  0.314464E-03  0.508E-02    0.06       1.0  T
   3    -83.6909031 -0.312864E-03  0.571E-03    0.06       2.7  T
   4    -83.6909063 -0.318279E-05  0.180E-03    0.06       8.6  T
   5    -83.6909065 -0.270272E-06  0.532E-04    0.06      29.0  T
   6    -83.6909065  0.205882E-07  0.488E-04    0.06      31.6  T
   7    -83.6909065 -0.288927E-07  0.583E-05    0.06     264.5  T
   8    -83.6909065 -0.372339E-09  0.171E-05    0.06     901.4  T
     SCC iter.                  ...        0 min,  0.028 sec
     gradient                   ...        0 min,  0.081 sec
 * total energy  :   -82.9315704 Eh     change       -0.2839411E-04 Eh
   gradient norm :     0.0029893 Eh/α   predicted     0.0000000E+00 (-100.00%)
   displ. norm   :     0.0271791 α      lambda       -0.1125617E-04
   maximum displ.:     0.0226523 α      in ANC's #1, #12, #6, ...

........................................................................
.............................. CYCLE   22 ..............................
........................................................................
   1    -83.6907865 -0.836908E+02  0.719E-03    0.06       0.0  T
   2    -83.6889536  0.183293E-02  0.123E-01    0.08       1.0  T
   3    -83.6907829 -0.182926E-02  0.954E-03    0.06       1.6  T
   4    -83.6907932 -0.103066E-04  0.216E-03    0.06       7.1  T
   5    -83.6907931  0.119653E-06  0.225E-03    0.06       6.9  T
   6    -83.6907937 -0.592726E-06  0.229E-04    0.06      67.4  T
   7    -83.6907937 -0.602206E-08  0.491E-05    0.06     314.1  T
   8    -83.6907937 -0.297121E-09  0.333E-06    0.06    4639.2  T
     SCC iter.                  ...        0 min,  0.028 sec
     gradient                   ...        0 min,  0.081 sec
 * total energy  :   -82.9315851 Eh     change       -0.1465814E-04 Eh
   gradient norm :     0.0013695 Eh/α   predicted    -0.9086675E-05 ( -38.01%)
   displ. norm   :     0.0886815 α      lambda       -0.2350473E-04
   maximum displ.:     0.0718258 α      in ANC's #1, #12, #6, ...

........................................................................
.............................. CYCLE   23 ..............................
........................................................................
   1    -83.6906801 -0.836907E+02  0.481E-03    0.06       0.0  T
   2    -83.6901069  0.573181E-03  0.689E-02    0.07       1.0  T
   3    -83.6906697 -0.562837E-03  0.106E-02    0.06       1.5  T
   4    -83.6906811 -0.114110E-04  0.379E-03    0.06       4.1  T
   5    -83.6906818 -0.705089E-06  0.257E-03    0.06       6.0  T
   6    -83.6906826 -0.751997E-06  0.416E-04    0.06      37.1  T
   7    -83.6906826 -0.207423E-07  0.296E-05    0.06     522.0  T
   8    -83.6906826 -0.950706E-10  0.476E-06    0.06    3239.0  T
     SCC iter.                  ...        0 min,  0.029 sec
     gradient                   ...        0 min,  0.081 sec
 * total energy  :   -82.9316064 Eh     change       -0.2129130E-04 Eh
   gradient norm :     0.0024225 Eh/α   predicted    -0.1179371E-04 ( -44.61%)
   displ. norm   :     0.0392569 α      lambda       -0.1086375E-04
   maximum displ.:     0.0330222 α      in ANC's #1, #12, #6, ...

........................................................................
.............................. CYCLE   24 ..............................
........................................................................
   1    -83.6907358 -0.836907E+02  0.469E-03    0.06       0.0  T
   2    -83.6897658  0.970068E-03  0.892E-02    0.05       1.0  T
   3    -83.6907374 -0.971622E-03  0.336E-03    0.06       4.6  T
   4    -83.6907385 -0.111018E-05  0.139E-03    0.06      11.1  T
   5    -83.6907386 -0.133669E-06  0.840E-04    0.06      18.4  T
   6    -83.6907387 -0.786334E-07  0.118E-04    0.06     131.3  T
   7    -83.6907387 -0.163342E-08  0.415E-06    0.06    3719.3  T
     SCC iter.                  ...        0 min,  0.025 sec
     gradient                   ...        0 min,  0.080 sec
 * total energy  :   -82.9316163 Eh     change       -0.9916713E-05 Eh
   gradient norm :     0.0021073 Eh/α   predicted    -0.5441231E-05 ( -45.13%)
   displ. norm   :     0.0574784 α      lambda       -0.1721454E-04
   maximum displ.:     0.0466495 α      in ANC's #1, #12, #6, ...

........................................................................
.............................. CYCLE   25 ..............................
........................................................................
   1    -83.6908367 -0.836908E+02  0.892E-03    0.06       0.0  T
   2    -83.6869362  0.390052E-02  0.179E-01    0.04       1.0  T
   3    -83.6908410 -0.390477E-02  0.741E-03    0.06       2.1  T
   4    -83.6908461 -0.511515E-05  0.343E-03    0.06       4.5  T
   5    -83.6908468 -0.715139E-06  0.229E-03    0.06       6.7  T
   6    -83.6908474 -0.595866E-06  0.319E-04    0.06      48.3  T
   7    -83.6908474 -0.121756E-07  0.907E-06    0.06    1700.8  T
   8    -83.6908474 -0.724754E-12  0.576E-06    0.06    2676.7  T
     SCC iter.                  ...        0 min,  0.028 sec
     gradient                   ...        0 min,  0.081 sec
 * total energy  :   -82.9316310 Eh     change       -0.1476776E-04 Eh
   gradient norm :     0.0011571 Eh/α   predicted    -0.8636707E-05 ( -41.52%)
   displ. norm   :     0.1096857 α      lambda       -0.1673236E-04
   maximum displ.:     0.0894374 α      in ANC's #1, #6, #12, ...

........................................................................
.............................. CYCLE   26 ..............................
........................................................................
   1    -83.6908914 -0.836909E+02  0.528E-03    0.06       0.0  T
   2    -83.6896657  0.122571E-02  0.100E-01    0.05       1.0  T
   3    -83.6908874 -0.122172E-02  0.818E-03    0.06       1.9  T
   4    -83.6908931 -0.572804E-05  0.424E-03    0.06       3.6  T
   5    -83.6908946 -0.144018E-05  0.222E-03    0.06       6.9  T
   6    -83.6908951 -0.548777E-06  0.407E-04    0.06      38.0  T
   7    -83.6908951 -0.198315E-07  0.908E-06    0.06    1698.5  T
   8    -83.6908951 -0.258638E-11  0.317E-06    0.06    4873.6  T
     SCC iter.                  ...        0 min,  0.030 sec
     gradient                   ...        0 min,  0.081 sec
 * total energy  :   -82.9316507 Eh     change       -0.1962775E-04 Eh
   gradient norm :     0.0014668 Eh/α   predicted    -0.8413652E-05 ( -57.13%)
   displ. norm   :     0.0794598 α      lambda       -0.9921991E-05
   maximum displ.:     0.0656706 α      in ANC's #1, #6, #12, ...

........................................................................
.............................. CYCLE   27 ..............................
........................................................................
   1    -83.6908954 -0.836909E+02  0.673E-03    0.06       0.0  T
   2    -83.6894042  0.149123E-02  0.111E-01    0.08       1.0  T
   3    -83.6909007 -0.149652E-02  0.161E-03    0.06       9.6  T
   4    -83.6909010 -0.295173E-06  0.253E-04    0.06      61.1  T
   5    -83.6909010 -0.225647E-08  0.130E-04    0.06     118.9  T
   6    -83.6909010  0.516891E-09  0.935E-05    0.06     165.1  T
     SCC iter.                  ...        0 min,  0.022 sec
     gradient                   ...        0 min,  0.081 sec
 * total energy  :   -82.9316647 Eh     change       -0.1402940E-04 Eh
   gradient norm :     0.0014305 Eh/α   predicted    -0.4975676E-05 ( -64.53%)
   displ. norm   :     0.0773532 α      lambda       -0.1138308E-04
   maximum displ.:     0.0634579 α      in ANC's #1, #5, #8, ...

........................................................................
.............................. CYCLE   28 ..............................
........................................................................
   1    -83.6908884 -0.836909E+02  0.118E-02    0.06       0.0  T
   2    -83.6866941  0.419428E-02  0.186E-01    0.09       1.0  T
   3    -83.6909014 -0.420730E-02  0.634E-03    0.06       2.4  T
   4    -83.6909062 -0.483227E-05  0.244E-04    0.06      63.3  T
   5    -83.6909061  0.110876E-06  0.993E-04    0.06      15.5  T
   6    -83.6909062 -0.105857E-06  0.221E-04    0.06      69.8  T
   7    -83.6909062 -0.546369E-08  0.570E-05    0.06     270.9  T
   8    -83.6909062 -0.374357E-09  0.160E-05    0.06     963.3  T
     SCC iter.                  ...        0 min,  0.028 sec
     gradient                   ...        0 min,  0.081 sec
 * total energy  :   -82.9316809 Eh     change       -0.1618318E-04 Eh
   gradient norm :     0.0008907 Eh/α   predicted    -0.5706962E-05 ( -64.74%)
   displ. norm   :     0.1044487 α      lambda       -0.1567052E-04
   maximum displ.:     0.0825505 α      in ANC's #1, #5, #3, ...

........................................................................
.............................. CYCLE   29 ..............................
........................................................................
   1    -83.6908300 -0.836908E+02  0.143E-02    0.06       0.0  T
   2    -83.6851135  0.571654E-02  0.217E-01    0.09       1.0  T
   3    -83.6908491 -0.573567E-02  0.747E-03    0.06       2.1  T
   4    -83.6908558 -0.670378E-05  0.523E-04    0.06      29.5  T
   5    -83.6908557  0.121369E-06  0.117E-03    0.06      13.2  T
   6    -83.6908559 -0.148839E-06  0.245E-04    0.06      62.9  T
   7    -83.6908559 -0.677026E-08  0.495E-05    0.06     311.5  T
   8    -83.6908559 -0.186020E-09  0.323E-05    0.06     477.6  T
     SCC iter.                  ...        0 min,  0.029 sec
     gradient                   ...        0 min,  0.081 sec
 * total energy  :   -82.9317028 Eh     change       -0.2195560E-04 Eh
   gradient norm :     0.0008483 Eh/α   predicted    -0.7874369E-05 ( -64.14%)
   displ. norm   :     0.1472249 α      lambda       -0.2104748E-04
   maximum displ.:     0.1136083 α      in ANC's #1, #5, #3, ...

........................................................................
.............................. CYCLE   30 ..............................
........................................................................
   1    -83.6906203 -0.836906E+02  0.119E-02    0.06       0.0  T
   2    -83.6864180  0.420237E-02  0.186E-01    0.09       1.0  T
   3    -83.6906354 -0.421745E-02  0.481E-03    0.06       3.2  T
   4    -83.6906382 -0.275428E-05  0.697E-04    0.06      22.1  T
   5    -83.6906382 -0.114703E-07  0.620E-04    0.06      24.9  T
   6    -83.6906382 -0.361593E-07  0.224E-04    0.06      69.0  T
   7    -83.6906382 -0.571910E-08  0.507E-05    0.06     304.1  T
   8    -83.6906382 -0.268969E-09  0.206E-05    0.06     747.3  T
     SCC iter.                  ...        0 min,  0.031 sec
     gradient                   ...        0 min,  0.080 sec
 * total energy  :   -82.9317328 Eh     change       -0.2999920E-04 Eh
   gradient norm :     0.0016440 Eh/α   predicted    -0.1063097E-04 ( -64.56%)
   displ. norm   :     0.1939588 α      lambda       -0.2714806E-04
   maximum displ.:     0.1465516 α      in ANC's #1, #5, #4, ...

........................................................................
.............................. CYCLE   31 ..............................
........................................................................
   1    -83.6903807 -0.836904E+02  0.834E-03    0.06       0.0  T
   2    -83.6881856  0.219512E-02  0.134E-01    0.08       1.0  T
   3    -83.6903888 -0.220320E-02  0.196E-03    0.06       7.9  T
   4    -83.6903892 -0.385098E-06  0.754E-04    0.06      20.5  T
   5    -83.6903893 -0.557030E-07  0.187E-04    0.06      82.7  T
   6    -83.6903893  0.647816E-09  0.144E-04    0.06     107.0  T
     SCC iter.                  ...        0 min,  0.022 sec
     gradient                   ...        0 min,  0.080 sec
 * total energy  :   -82.9317709 Eh     change       -0.3809994E-04 Eh
   gradient norm :     0.0024780 Eh/α   predicted    -0.1380463E-04 ( -63.77%)
   displ. norm   :     0.1508323 α      lambda       -0.3156448E-04
   maximum displ.:     0.1138197 α      in ANC's #1, #5, #4, ...

........................................................................
.............................. CYCLE   32 ..............................
........................................................................
   1    -83.6903149 -0.836903E+02  0.772E-04    0.06       0.0  T
   2    -83.6903141  0.784226E-06  0.263E-03    0.06       5.9  T
   3    -83.6903144 -0.313898E-06  0.200E-03    0.06       7.7  T
   4    -83.6903148 -0.435590E-06  0.709E-04    0.06      21.8  T
   5    -83.6903149 -0.523839E-07  0.114E-04    0.06     135.1  T
   6    -83.6903149 -0.138621E-08  0.134E-05    0.06    1154.0  T
     SCC iter.                  ...        0 min,  0.021 sec
     gradient                   ...        0 min,  0.081 sec
 * total energy  :   -82.9318005 Eh     change       -0.2951720E-04 Eh
   gradient norm :     0.0027382 Eh/α   predicted    -0.1614249E-04 ( -45.31%)
   displ. norm   :     0.1796433 α      lambda       -0.3791443E-04
   maximum displ.:     0.1362386 α      in ANC's #1, #5, #4, ...

........................................................................
.............................. CYCLE   33 ..............................
........................................................................
   1    -83.6902883 -0.836903E+02  0.181E-03    0.06       0.0  T
   2    -83.6901766  0.111729E-03  0.303E-02    0.06       1.0  T
   3    -83.6902885 -0.111880E-03  0.144E-03    0.06      10.7  T
   4    -83.6902886 -0.115762E-06  0.979E-04    0.06      15.8  T
   5    -83.6902887 -0.907438E-07  0.337E-04    0.06      45.8  T
   6    -83.6902887 -0.126374E-07  0.582E-05    0.06     265.0  T
   7    -83.6902887 -0.333458E-09  0.191E-05    0.06     807.0  T
     SCC iter.                  ...        0 min,  0.026 sec
     gradient                   ...        0 min,  0.081 sec
 * total energy  :   -82.9318353 Eh     change       -0.3481803E-04 Eh
   gradient norm :     0.0027395 Eh/α   predicted    -0.1957302E-04 ( -43.78%)
   displ. norm   :     0.2000366 α      lambda       -0.4151088E-04
   maximum displ.:     0.1543274 α      in ANC's #1, #5, #4, ...

........................................................................
.............................. CYCLE   34 ..............................
........................................................................
   1    -83.6903213 -0.836903E+02  0.441E-03    0.06       0.0  T
   2    -83.6894811  0.840226E-03  0.831E-02    0.05       1.0  T
   3    -83.6903225 -0.841423E-03  0.337E-03    0.06       4.6  T
   4    -83.6903235 -0.979951E-06  0.172E-03    0.06       9.0  T
   5    -83.6903237 -0.230661E-06  0.930E-04    0.06      16.6  T
   6    -83.6903238 -0.973260E-07  0.125E-04    0.06     123.1  T
   7    -83.6903238 -0.176959E-08  0.237E-05    0.06     650.3  T
     SCC iter.                  ...        0 min,  0.026 sec
     gradient                   ...        0 min,  0.081 sec
 * total energy  :   -82.9318729 Eh     change       -0.3762044E-04 Eh
   gradient norm :     0.0023986 Eh/α   predicted    -0.2158925E-04 ( -42.61%)
   displ. norm   :     0.2140401 α      lambda       -0.4302328E-04
   maximum displ.:     0.1687582 α      in ANC's #1, #5, #4, ...

........................................................................
.............................. CYCLE   35 ..............................
........................................................................
   1    -83.6904143 -0.836904E+02  0.664E-03    0.06       0.0  T
   2    -83.6884062  0.200813E-02  0.128E-01    0.05       1.0  T
   3    -83.6904178 -0.201165E-02  0.434E-03    0.06       3.6  T
   4    -83.6904195 -0.168595E-05  0.212E-03    0.06       7.3  T
   5    -83.6904198 -0.276846E-06  0.139E-03    0.06      11.1  T
   6    -83.6904200 -0.218942E-06  0.170E-04    0.06      90.6  T
   7    -83.6904200 -0.334980E-08  0.232E-05    0.06     666.1  T
     SCC iter.                  ...        0 min,  0.024 sec
     gradient                   ...        0 min,  0.081 sec
 * total energy  :   -82.9319114 Eh     change       -0.3847953E-04 Eh
   gradient norm :     0.0017859 Eh/α   predicted    -0.2249915E-04 ( -41.53%)
   displ. norm   :     0.3143345 α      lambda       -0.3958830E-04
   maximum displ.:     0.2543574 α      in ANC's #1, #5, #4, ...

........................................................................
.............................. CYCLE   36 ..............................
........................................................................
   1    -83.6905487 -0.836905E+02  0.108E-02    0.06       0.0  T
   2    -83.6849215  0.562719E-02  0.215E-01    0.04       1.0  T
   3    -83.6905589 -0.563745E-02  0.634E-03    0.06       2.4  T
   4    -83.6905624 -0.342673E-05  0.331E-03    0.06       4.7  T
   5    -83.6905629 -0.582010E-06  0.235E-03    0.06       6.6  T
   6    -83.6905636 -0.624632E-06  0.297E-04    0.06      51.9  T
   7    -83.6905636 -0.102531E-07  0.401E-05    0.06     384.5  T
   8    -83.6905636 -0.163610E-09  0.901E-06    0.06    1712.3  T
     SCC iter.                  ...        0 min,  0.028 sec
     gradient                   ...        0 min,  0.081 sec
 * total energy  :   -82.9319606 Eh     change       -0.4918238E-04 Eh
   gradient norm :     0.0010779 Eh/α   predicted    -0.2066538E-04 ( -57.98%)
   displ. norm   :     0.2284306 α      lambda       -0.2524702E-04
   maximum displ.:     0.1920553 α      in ANC's #1, #5, #4, ...

........................................................................
.............................. CYCLE   37 ..............................
........................................................................
   1    -83.6910113 -0.836910E+02  0.315E-03    0.06       0.0  T
   2    -83.6907282  0.283087E-03  0.482E-02    0.06       1.0  T
   3    -83.6910123 -0.284017E-03  0.758E-04    0.06      20.4  T
   4    -83.6910123 -0.262872E-07  0.352E-04    0.06      43.9  T
   5    -83.6910123  0.230210E-07  0.459E-04    0.06      33.6  T
   6    -83.6910123 -0.237960E-07  0.283E-05    0.06     544.9  T
   7    -83.6910123 -0.456168E-10  0.118E-05    0.06    1309.8  T
     SCC iter.                  ...        0 min,  0.025 sec
     gradient                   ...        0 min,  0.088 sec
 * total energy  :   -82.9319950 Eh     change       -0.3439702E-04 Eh
   gradient norm :     0.0009425 Eh/α   predicted    -0.1291668E-04 ( -62.45%)
   displ. norm   :     0.2404571 α      lambda       -0.2500319E-04
   maximum displ.:     0.2027932 α      in ANC's #1, #5, #4, ...

........................................................................
.............................. CYCLE   38 ..............................
........................................................................
   1    -83.6905164 -0.836905E+02  0.209E-03    0.06       0.0  T
   2    -83.6904862  0.302107E-04  0.159E-02    0.06       1.0  T
   3    -83.6905165 -0.303392E-04  0.102E-03    0.06      15.2  T
   4    -83.6905165  0.593520E-07  0.955E-04    0.06      16.2  T
   5    -83.6905165 -0.540450E-07  0.400E-04    0.06      38.6  T
   6    -83.6905166 -0.188629E-07  0.172E-05    0.06     899.5  T
   7    -83.6905166 -0.824230E-11  0.647E-06    0.06    2383.2  T
     SCC iter.                  ...        0 min,  0.025 sec
     gradient                   ...        0 min,  0.080 sec
 * total energy  :   -82.9320275 Eh     change       -0.3254826E-04 Eh
   gradient norm :     0.0017073 Eh/α   predicted    -0.1282405E-04 ( -60.60%)
   displ. norm   :     0.2050791 α      lambda       -0.2678234E-04
   maximum displ.:     0.1809483 α      in ANC's #1, #5, #4, ...

........................................................................
.............................. CYCLE   39 ..............................
........................................................................
   1    -83.6911907 -0.836912E+02  0.743E-03    0.06       0.0  T
   2    -83.6894657  0.172491E-02  0.119E-01    0.08       1.0  T
   3    -83.6911966 -0.173090E-02  0.218E-03    0.06       7.1  T
   4    -83.6911970 -0.383199E-06  0.792E-04    0.06      19.5  T
   5    -83.6911971 -0.284545E-07  0.393E-04    0.06      39.3  T
   6    -83.6911971 -0.178922E-07  0.321E-05    0.06     480.7  T
   7    -83.6911971 -0.209610E-10  0.247E-05    0.06     623.5  T
     SCC iter.                  ...        0 min,  0.024 sec
     gradient                   ...        0 min,  0.081 sec
 * total energy  :   -82.9320612 Eh     change       -0.3368566E-04 Eh
   gradient norm :     0.0011810 Eh/α   predicted    -0.1364614E-04 ( -59.49%)
   displ. norm   :     0.3321625 α      lambda       -0.3519515E-04
   maximum displ.:     0.2920911 α      in ANC's #1, #5, #8, ...

........................................................................
.............................. CYCLE   40 ..............................
........................................................................
   1    -83.6909626 -0.836910E+02  0.180E-02    0.06       0.0  T
   2    -83.6826140  0.834862E-02  0.263E-01    0.10       1.0  T
   3    -83.6909930 -0.837897E-02  0.925E-03    0.06       1.7  T
   4    -83.6910028 -0.981794E-05  0.209E-03    0.06       7.4  T
   5    -83.6910029 -0.728055E-07  0.197E-03    0.06       7.8  T
   6    -83.6910033 -0.402764E-06  0.701E-04    0.06      22.0  T
   7    -83.6910033 -0.575304E-07  0.154E-04    0.06     100.5  T
   8    -83.6910033 -0.276088E-08  0.360E-05    0.06     429.2  T
     SCC iter.                  ...        0 min,  0.028 sec
     gradient                   ...        0 min,  0.080 sec
 * total energy  :   -82.9321091 Eh     change       -0.4791859E-04 Eh
   gradient norm :     0.0010564 Eh/α   predicted    -0.1846226E-04 ( -61.47%)
   displ. norm   :     0.2275888 α      lambda       -0.2477438E-04
   maximum displ.:     0.2032830 α      in ANC's #1, #5, #8, ...

........................................................................
.............................. CYCLE   41 ..............................
........................................................................
   1    -83.6908207 -0.836908E+02  0.370E-03    0.06       0.0  T
   2    -83.6902761  0.544618E-03  0.669E-02    0.05       1.0  T
   3    -83.6908217 -0.545608E-03  0.248E-03    0.06       6.2  T
   4    -83.6908223 -0.592993E-06  0.960E-04    0.06      16.1  T
   5    -83.6908224 -0.884312E-07  0.208E-04    0.06      74.3  T
   6    -83.6908224 -0.101652E-08  0.133E-04    0.06     115.6  T
   7    -83.6908224 -0.204629E-08  0.240E-05    0.06     642.0  T
     SCC iter.                  ...        0 min,  0.028 sec
     gradient                   ...        0 min,  0.080 sec
 * total energy  :   -82.9321434 Eh     change       -0.3425168E-04 Eh
   gradient norm :     0.0013665 Eh/α   predicted    -0.1267581E-04 ( -62.99%)
   displ. norm   :     0.2120329 α      lambda       -0.2676106E-04
   maximum displ.:     0.1925030 α      in ANC's #1, #3, #5, ...

........................................................................
.............................. CYCLE   42 ..............................
........................................................................
   1    -83.6910318 -0.836910E+02  0.282E-03    0.06       0.0  T
   2    -83.6907406  0.291208E-03  0.489E-02    0.06       1.0  T
   3    -83.6910326 -0.292085E-03  0.559E-04    0.06      27.6  T
   4    -83.6910327 -0.126241E-07  0.272E-04    0.06      56.8  T
   5    -83.6910327 -0.974552E-09  0.873E-05    0.06     176.8  T
   6    -83.6910327  0.167816E-09  0.551E-05    0.06     280.2  T
     SCC iter.                  ...        0 min,  0.023 sec
     gradient                   ...        0 min,  0.081 sec
 * total energy  :   -82.9321820 Eh     change       -0.3865843E-04 Eh
   gradient norm :     0.0012195 Eh/α   predicted    -0.1365256E-04 ( -64.68%)
   displ. norm   :     0.3107266 α      lambda       -0.4345413E-04
   maximum displ.:     0.2834829 α      in ANC's #1, #3, #2, ...
 * RMSD in coord.:     0.5499685 α      energy gain  -0.6400003E-03 Eh

generating ANC from model Hessian ...
Using Lindh-Hessian (1995)
 Shifting diagonal of input Hessian by   9.795326159413888E-003
 Lowest  eigenvalues of input Hessian
    0.000000    0.000000    0.000000    0.000000    0.000000    0.000000
    0.010000    0.010258    0.010298    0.010786    0.011548    0.012397
    0.012824    0.013862    0.014215    0.015125    0.017489    0.018272
 Highest eigenvalues
    1.983897    2.088614    2.161414    2.324707    2.405054    2.428903
 

........................................................................
.............................. CYCLE   43 ..............................
........................................................................
   1    -83.6913742 -0.836914E+02  0.623E-03    0.06       0.0  T
   2    -83.6898654  0.150881E-02  0.111E-01    0.05       1.0  T
   3    -83.6913784 -0.151301E-02  0.145E-03    0.06      10.6  T
   4    -83.6913785 -0.116529E-06  0.748E-04    0.06      20.6  T
   5    -83.6913785 -0.306892E-07  0.218E-04    0.06      70.7  T
   6    -83.6913785 -0.278746E-09  0.158E-04    0.06      97.7  T
   7    -83.6913785 -0.304304E-08  0.120E-05    0.06    1289.0  T
     SCC iter.                  ...        0 min,  0.025 sec
     gradient                   ...        0 min,  0.080 sec
 * total energy  :   -82.9322434 Eh     change       -0.6135400E-04 Eh
   gradient norm :     0.0018337 Eh/α   predicted     0.0000000E+00 (-100.00%)
   displ. norm   :     0.0407908 α      lambda       -0.1010127E-04
   maximum displ.:     0.0334665 α      in ANC's #1, #7, #15, ...

........................................................................
.............................. CYCLE   44 ..............................
........................................................................
   1    -83.6911534 -0.836912E+02  0.182E-03    0.06       0.0  T
   2    -83.6911536 -0.119179E-06  0.106E-03    0.06      14.6  T
   3    -83.6911498  0.379076E-05  0.563E-03    0.06       2.7  T
   4    -83.6911534 -0.362874E-05  0.134E-03    0.06      11.5  T
   5    -83.6911536 -0.184146E-06  0.256E-04    0.06      60.3  T
   6    -83.6911536  0.107676E-09  0.208E-04    0.06      74.3  T
   7    -83.6911536 -0.516388E-08  0.216E-05    0.06     714.0  T
   8    -83.6911536 -0.524665E-10  0.548E-06    0.06    2817.1  T
     SCC iter.                  ...        0 min,  0.028 sec
     gradient                   ...        0 min,  0.081 sec
 * total energy  :   -82.9322583 Eh     change       -0.1489181E-04 Eh
   gradient norm :     0.0006815 Eh/α   predicted    -0.6219521E-05 ( -58.24%)
   displ. norm   :     0.0861063 α      lambda       -0.1787270E-04
   maximum displ.:     0.0653784 α      in ANC's #1, #15, #7, ...

........................................................................
.............................. CYCLE   45 ..............................
........................................................................
   1    -83.6910801 -0.836911E+02  0.418E-03    0.06       0.0  T
   2    -83.6904008  0.679331E-03  0.747E-02    0.05       1.0  T
   3    -83.6910820 -0.681278E-03  0.906E-04    0.06      17.0  T
   4    -83.6910821 -0.657454E-07  0.306E-04    0.06      50.3  T
   5    -83.6910821  0.151340E-08  0.164E-04    0.06      93.9  T
   6    -83.6910821 -0.589850E-09  0.110E-04    0.06     139.9  T
     SCC iter.                  ...        0 min,  0.022 sec
     gradient                   ...        0 min,  0.081 sec
 * total energy  :   -82.9322815 Eh     change       -0.2323260E-04 Eh
   gradient norm :     0.0016860 Eh/α   predicted    -0.8967054E-05 ( -61.40%)
   displ. norm   :     0.1394500 α      lambda       -0.2451328E-04
   maximum displ.:     0.1040667 α      in ANC's #1, #7, #15, ...

........................................................................
.............................. CYCLE   46 ..............................
........................................................................
   1    -83.6910172 -0.836910E+02  0.780E-03    0.06       0.0  T
   2    -83.6882397  0.277744E-02  0.151E-01    0.05       1.0  T
   3    -83.6910246 -0.278492E-02  0.855E-04    0.06      18.0  T
   4    -83.6910247 -0.769831E-07  0.197E-04    0.06      78.2  T
   5    -83.6910247  0.884195E-08  0.296E-04    0.06      52.1  T
   6    -83.6910247 -0.101943E-07  0.257E-05    0.06     600.5  T
     SCC iter.                  ...        0 min,  0.022 sec
     gradient                   ...        0 min,  0.081 sec
 * total energy  :   -82.9323118 Eh     change       -0.3032670E-04 Eh
   gradient norm :     0.0018036 Eh/α   predicted    -0.1239850E-04 ( -59.12%)
   displ. norm   :     0.1302997 α      lambda       -0.1999488E-04
   maximum displ.:     0.1007081 α      in ANC's #1, #4, #15, ...

........................................................................
.............................. CYCLE   47 ..............................
........................................................................
   1    -83.6910868 -0.836911E+02  0.396E-03    0.06       0.0  T
   2    -83.6904214  0.665385E-03  0.739E-02    0.05       1.0  T
   3    -83.6910886 -0.667238E-03  0.898E-04    0.06      17.2  T
   4    -83.6910887 -0.783065E-07  0.335E-04    0.06      46.0  T
   5    -83.6910887 -0.318207E-08  0.245E-04    0.06      63.1  T
   6    -83.6910887 -0.726398E-08  0.146E-05    0.06    1057.5  T
   7    -83.6910887  0.818545E-11  0.133E-05    0.06    1162.0  T
     SCC iter.                  ...        0 min,  0.025 sec
     gradient                   ...        0 min,  0.081 sec
 * total energy  :   -82.9323354 Eh     change       -0.2361473E-04 Eh
   gradient norm :     0.0015113 Eh/α   predicted    -0.1009585E-04 ( -57.25%)
   displ. norm   :     0.1010109 α      lambda       -0.1545020E-04
   maximum displ.:     0.0797597 α      in ANC's #1, #4, #5, ...

........................................................................
.............................. CYCLE   48 ..............................
........................................................................
   1    -83.6913396 -0.836913E+02  0.950E-04    0.06       0.0  T
   2    -83.6913334  0.619304E-05  0.715E-03    0.06       2.2  T
   3    -83.6913396 -0.623621E-05  0.445E-04    0.06      34.7  T
   4    -83.6913396  0.512999E-08  0.340E-04    0.06      45.4  T
   5    -83.6913396  0.500222E-09  0.252E-04    0.06      61.1  T
   6    -83.6913396 -0.699410E-08  0.638E-05    0.06     241.9  T
   7    -83.6913396 -0.476192E-09  0.462E-06    0.06    3338.4  T
     SCC iter.                  ...        0 min,  0.024 sec
     gradient                   ...        0 min,  0.081 sec
 * total energy  :   -82.9323559 Eh     change       -0.2048061E-04 Eh
   gradient norm :     0.0006454 Eh/α   predicted    -0.7761097E-05 ( -62.11%)
   displ. norm   :     0.1059031 α      lambda       -0.1706479E-04
   maximum displ.:     0.0822366 α      in ANC's #1, #4, #5, ...

........................................................................
.............................. CYCLE   49 ..............................
........................................................................
   1    -83.6914523 -0.836915E+02  0.979E-04    0.06       0.0  T
   2    -83.6914426  0.978544E-05  0.900E-03    0.06       1.7  T
   3    -83.6914523 -0.978451E-05  0.784E-04    0.06      19.7  T
   4    -83.6914524 -0.388755E-07  0.438E-04    0.06      35.2  T
   5    -83.6914524 -0.153045E-07  0.760E-05    0.06     203.1  T
   6    -83.6914524 -0.182325E-10  0.473E-05    0.06     326.2  T
     SCC iter.                  ...        0 min,  0.021 sec
     gradient                   ...        0 min,  0.081 sec
 * total energy  :   -82.9323789 Eh     change       -0.2297058E-04 Eh
   gradient norm :     0.0006618 Eh/α   predicted    -0.8578717E-05 ( -62.65%)
   displ. norm   :     0.1369166 α      lambda       -0.2058975E-04
   maximum displ.:     0.1046226 α      in ANC's #1, #4, #9, ...

........................................................................
.............................. CYCLE   50 ..............................
........................................................................
   1    -83.6913903 -0.836914E+02  0.357E-03    0.06       0.0  T
   2    -83.6909598  0.430527E-03  0.595E-02    0.07       1.0  T
   3    -83.6913918 -0.432012E-03  0.357E-04    0.06      43.3  T
   4    -83.6913918 -0.128476E-08  0.224E-04    0.06      68.8  T
   5    -83.6913918 -0.177543E-08  0.107E-04    0.06     144.3  T
   6    -83.6913918 -0.592280E-09  0.245E-05    0.06     629.0  T
     SCC iter.                  ...        0 min,  0.021 sec
     gradient                   ...        0 min,  0.081 sec
 * total energy  :   -82.9324048 Eh     change       -0.2589296E-04 Eh
   gradient norm :     0.0009402 Eh/α   predicted    -0.1038180E-04 ( -59.90%)
   displ. norm   :     0.1370389 α      lambda       -0.1746792E-04
   maximum displ.:     0.1057212 α      in ANC's #1, #4, #9, ...

........................................................................
.............................. CYCLE   51 ..............................
........................................................................
   1    -83.6913112 -0.836913E+02  0.241E-03    0.06       0.0  T
   2    -83.6910911  0.220158E-03  0.425E-02    0.06       1.0  T
   3    -83.6913119 -0.220778E-03  0.795E-04    0.06      19.4  T
   4    -83.6913119 -0.342668E-07  0.509E-04    0.06      30.3  T
   5    -83.6913119 -0.269015E-07  0.965E-05    0.06     159.9  T
   6    -83.6913119 -0.555545E-09  0.299E-05    0.06     516.8  T
     SCC iter.                  ...        0 min,  0.029 sec
     gradient                   ...        0 min,  0.080 sec
 * total energy  :   -82.9324257 Eh     change       -0.2095840E-04 Eh
   gradient norm :     0.0008511 Eh/α   predicted    -0.8807476E-05 ( -57.98%)
   displ. norm   :     0.0979895 α      lambda       -0.1051448E-04
   maximum displ.:     0.0788351 α      in ANC's #1, #4, #3, ...

........................................................................
.............................. CYCLE   52 ..............................
........................................................................
   1    -83.6913952 -0.836914E+02  0.132E-03    0.06       0.0  T
   2    -83.6913316  0.636338E-04  0.229E-02    0.06       1.0  T
   3    -83.6913953 -0.637109E-04  0.107E-03    0.06      14.4  T
   4    -83.6913954 -0.978888E-07  0.502E-04    0.06      30.8  T
   5    -83.6913954 -0.241804E-07  0.158E-04    0.06      97.7  T
   6    -83.6913954 -0.263603E-08  0.294E-05    0.06     525.1  T
     SCC iter.                  ...        0 min,  0.021 sec
     gradient                   ...        0 min,  0.081 sec
 * total energy  :   -82.9324396 Eh     change       -0.1381316E-04 Eh
   gradient norm :     0.0005997 Eh/α   predicted    -0.5284058E-05 ( -61.75%)
   displ. norm   :     0.0680809 α      lambda       -0.7721464E-05
   maximum displ.:     0.0572768 α      in ANC's #1, #4, #3, ...

........................................................................
.............................. CYCLE   53 ..............................
........................................................................
   1    -83.6914776 -0.836915E+02  0.249E-03    0.06       0.0  T
   2    -83.6912278  0.249790E-03  0.453E-02    0.06       1.0  T
   3    -83.6914783 -0.250511E-03  0.595E-04    0.06      25.9  T
   4    -83.6914783 -0.243178E-07  0.332E-04    0.06      46.5  T
   5    -83.6914783 -0.952915E-08  0.117E-04    0.06     132.2  T
   6    -83.6914783 -0.135942E-08  0.150E-05    0.06    1026.1  T
     SCC iter.                  ...        0 min,  0.021 sec
     gradient                   ...        0 min,  0.081 sec
 * total energy  :   -82.9324504 Eh     change       -0.1085804E-04 Eh
   gradient norm :     0.0004713 Eh/α   predicted    -0.3870778E-05 ( -64.35%)
   displ. norm   :     0.0654101 α      lambda       -0.8455439E-05
   maximum displ.:     0.0551308 α      in ANC's #1, #9, #15, ...

........................................................................
.............................. CYCLE   54 ..............................
........................................................................
   1    -83.6915154 -0.836915E+02  0.240E-03    0.06       0.0  T
   2    -83.6912872  0.228181E-03  0.433E-02    0.06       1.0  T
   3    -83.6915161 -0.228872E-03  0.247E-04    0.06      62.4  T
   4    -83.6915161 -0.305725E-08  0.103E-04    0.06     150.3  T
   5    -83.6915161 -0.416520E-10  0.487E-05    0.06     316.9  T
     SCC iter.                  ...        0 min,  0.017 sec
     gradient                   ...        0 min,  0.081 sec
 * total energy  :   -82.9324623 Eh     change       -0.1187144E-04 Eh
   gradient norm :     0.0004376 Eh/α   predicted    -0.4236698E-05 ( -64.31%)
   displ. norm   :     0.0832341 α      lambda       -0.1072358E-04
   maximum displ.:     0.0681823 α      in ANC's #1, #9, #15, ...

........................................................................
.............................. CYCLE   55 ..............................
........................................................................
   1    -83.6915038 -0.836915E+02  0.138E-03    0.06       0.0  T
   2    -83.6914406  0.632091E-04  0.228E-02    0.06       1.0  T
   3    -83.6915040 -0.633640E-04  0.665E-04    0.06      23.2  T
   4    -83.6915040 -0.357553E-07  0.326E-04    0.06      47.3  T
   5    -83.6915040 -0.970280E-08  0.114E-04    0.06     135.0  T
   6    -83.6915040 -0.128688E-08  0.233E-05    0.06     663.1  T
     SCC iter.                  ...        0 min,  0.020 sec
     gradient                   ...        0 min,  0.081 sec
 * total energy  :   -82.9324771 Eh     change       -0.1477391E-04 Eh
   gradient norm :     0.0004458 Eh/α   predicted    -0.5381078E-05 ( -63.58%)
   displ. norm   :     0.1023863 α      lambda       -0.1202566E-04
   maximum displ.:     0.0822281 α      in ANC's #1, #9, #13, ...

........................................................................
.............................. CYCLE   56 ..............................
........................................................................
   1    -83.6914615 -0.836915E+02  0.534E-04    0.06       0.0  T
   2    -83.6914608  0.673559E-06  0.240E-03    0.06       6.4  T
   3    -83.6914614 -0.652458E-06  0.507E-04    0.06      30.4  T
   4    -83.6914614 -0.253459E-08  0.486E-04    0.06      31.7  T
   5    -83.6914615 -0.233212E-07  0.151E-04    0.06     102.2  T
   6    -83.6914615 -0.243013E-08  0.285E-05    0.06     540.5  T
     SCC iter.                  ...        0 min,  0.021 sec
     gradient                   ...        0 min,  0.081 sec
 * total energy  :   -82.9324933 Eh     change       -0.1623830E-04 Eh
   gradient norm :     0.0005024 Eh/α   predicted    -0.6043311E-05 ( -62.78%)
   displ. norm   :     0.1049753 α      lambda       -0.1109199E-04
   maximum displ.:     0.0839796 α      in ANC's #1, #9, #13, ...

........................................................................
.............................. CYCLE   57 ..............................
........................................................................
   1    -83.6914444 -0.836914E+02  0.180E-03    0.06       0.0  T
   2    -83.6913263  0.118155E-03  0.312E-02    0.07       1.0  T
   3    -83.6914447 -0.118450E-03  0.940E-04    0.06      16.4  T
   4    -83.6914448 -0.838392E-07  0.345E-04    0.06      44.7  T
   5    -83.6914448 -0.112663E-07  0.718E-05    0.06     215.0  T
   6    -83.6914448 -0.172662E-10  0.584E-05    0.06     264.3  T
     SCC iter.                  ...        0 min,  0.020 sec
     gradient                   ...        0 min,  0.081 sec
 * total energy  :   -82.9325081 Eh     change       -0.1482809E-04 Eh
   gradient norm :     0.0004501 Eh/α   predicted    -0.5574401E-05 ( -62.41%)
   displ. norm   :     0.0907106 α      lambda       -0.9037271E-05
   maximum displ.:     0.0732764 α      in ANC's #1, #9, #7, ...

........................................................................
.............................. CYCLE   58 ..............................
........................................................................
   1    -83.6914759 -0.836915E+02  0.325E-03    0.06       0.0  T
   2    -83.6910845  0.391429E-03  0.568E-02    0.07       1.0  T
   3    -83.6914770 -0.392510E-03  0.147E-03    0.06      10.5  T
   4    -83.6914772 -0.227623E-06  0.420E-04    0.06      36.8  T
   5    -83.6914772 -0.138241E-07  0.192E-04    0.06      80.5  T
   6    -83.6914772 -0.343182E-08  0.717E-05    0.06     215.3  T
     SCC iter.                  ...        0 min,  0.021 sec
[...]
N11-C8-C7=107.30               N11-C8-C9=110.12               N11-C8-C10=110.05              H29-C9-C8=108.82               
H30-C9-C8=109.89               H30-C9-H29=109.12              H31-C9-C8=110.43               H31-C9-H29=109.34              
H31-C9-H30=109.23              H32-C10-C8=108.87              H33-C10-C8=110.36              H33-C10-H32=109.34             
H34-C10-C8=109.86              H34-C10-H32=109.11             H34-C10-H33=109.28             
 
 selected dihedral angles (degree)
 ---------------------------------
C3-O2-C1-H26= 61.48           C3-O2-C1-H27=181.23           C3-O2-C1-H28=300.90           O4-C3-O2-C1=359.23            
C5-C3-O2-C1=178.68            N6-C5-C3-O2=184.56            N6-C5-C3-O4=  4.01            C24-C5-C3-O2=  4.13           
C24-C5-C3-O4=183.57           C7-N6-C5-C3=178.83            C7-N6-C5-C24=359.23           C8-C7-N6-C5=179.84            
N21-C7-N6-C5=  0.07           C9-C8-C7-N6= 56.78            C9-C8-C7-N21=236.58           C10-C8-C7-N6=295.35           
C10-C8-C7-N21=115.14          N11-C8-C7-N6=176.31           N11-C8-C7-N21=356.11          H29-C9-C8-C7=304.88           
H29-C9-C8-C10= 65.01          H29-C9-C8-N11=187.10          H30-C9-C8-C7= 64.30           H30-C9-C8-C10=184.43          
H30-C9-C8-N11=306.52          H31-C9-C8-C7=184.86           H31-C9-C8-C10=304.99          H31-C9-C8-N11= 67.09          
H32-C10-C8-C7= 57.59          H32-C10-C8-C9=297.01          H32-C10-C8-N11=174.88         H33-C10-C8-C7=177.59          
H33-C10-C8-C9= 57.02          H33-C10-C8-N11=294.89         H34-C10-C8-C7=298.15          H34-C10-C8-C9=177.58          
H34-C10-C8-N11= 55.45         
           -------------------------------------------------
          |                Final Singlepoint                |
           -------------------------------------------------

          ...................................................
          :                      SETUP                      :
          :.................................................:
          :  # basis functions                 134          :
          :  # atomic orbitals                 134          :
          :  # shells                           84          :
          :  # electrons                       134          :
          :  # halogen bonds                     0          :
          :  max. iterations                   250          :
          :  Hamiltonian                  GFN1-xTB          :
          :  restarted?                      false          :
          :  GBSA solvation                   true          :
          :  PC potential                    false          :
          :  electronic temp.          300.0000000     K    :
          :  accuracy                    1.0000000          :
          :  -> integral cutoff          0.2500000E+02      :
          :  -> integral neglect         0.1000000E-07      :
          :  -> SCF convergence          0.1000000E-05 Eh   :
          :  -> wf. convergence          0.2000000E-04 e    :
          :  Broyden damping             0.4000000          :
          ...................................................

 iter      E             dE          RMSdq      gap      omega  full diag
   1    -83.6917465 -0.836917E+02  0.423E-06    0.06       0.0  T
   2    -83.6917465  0.245848E-09  0.450E-05    0.06     342.9  T
   3    -83.6917465 -0.246573E-09  0.187E-06    0.06    8262.6  T

   *** convergence criteria satisfied after 3 iterations ***

         #    Occupation            Energy/Eh            Energy/eV
      -------------------------------------------------------------
         1        2.0000           -0.8880931             -24.1662
       ...           ...                  ...                  ...
        61        2.0000           -0.4747546             -12.9187
        62        2.0000           -0.4677373             -12.7278
        63        2.0000           -0.4664625             -12.6931
        64        2.0000           -0.4568850             -12.4325
        65        2.0000           -0.4461247             -12.1397
        66        1.9992           -0.4167179             -11.3395
        67        1.5315           -0.4104253             -11.1682 (HOMO)
        68        0.4693           -0.4081769             -11.1071 (LUMO)
        69                         -0.3227562              -8.7826
        70                         -0.3083090              -8.3895
        71                         -0.2715458              -7.3891
        72                         -0.2245135              -6.1093
       ...                                ...                  ...
       134                          0.7295668              19.8525
      -------------------------------------------------------------
                  HL-Gap            0.0022484 Eh            0.0612 eV
             Fermi-level           -0.4093000 Eh          -11.1376 eV

 SCC (total)                   0 d,  0 h,  0 min,  0.127 sec
 SCC setup                      ...        0 min,  0.002 sec (  1.404%)
 Dispersion                     ...        0 min,  0.000 sec (  0.257%)
 classical contributions        ...        0 min,  0.000 sec (  0.083%)
 integral evaluation            ...        0 min,  0.034 sec ( 26.922%)
 iterations                     ...        0 min,  0.011 sec (  8.465%)
 molecular gradient             ...        0 min,  0.079 sec ( 62.233%)
 printout                       ...        0 min,  0.001 sec (  0.607%)

         :::::::::::::::::::::::::::::::::::::::::::::::::::::
         ::                     SUMMARY                     ::
         :::::::::::::::::::::::::::::::::::::::::::::::::::::
         :: total energy             -82.932771522540 Eh    ::
         :: total w/o Gsasa/hb       -82.908209896433 Eh    ::
         :: gradient norm              0.000187933739 Eh/a0 ::
         :: HOMO-LUMO gap              0.061182238456 eV    ::
         ::.................................................::
         :: SCC energy               -83.691746483474 Eh    ::
         :: -> electrostatic           0.354332811447 Eh    ::
         :: -> Gsolv                  -0.055390734174 Eh    ::
         ::    -> Gelec               -0.030829108067 Eh    ::
         ::    -> Gsasa               -0.025215091208 Eh    ::
         ::    -> Ghb                 -0.006970813903 Eh    ::
         ::    -> Gshift               0.007624279005 Eh    ::
         :: repulsion energy           0.784218380246 Eh    ::
         :: dispersion energy         -0.025243419311 Eh    ::
         :: halogen bond corr.         0.000000000000 Eh    ::
         :: add. restraining           0.000000000000 Eh    ::
         :: total charge               0.000000000534 e     ::
         :::::::::::::::::::::::::::::::::::::::::::::::::::::

           -------------------------------------------------
          |                Property Printout                |
           -------------------------------------------------

    * Orbital Energies and Occupations

         #    Occupation            Energy/Eh            Energy/eV
      -------------------------------------------------------------
         1        2.0000           -0.8880931             -24.1662
       ...           ...                  ...                  ...
        55        2.0000           -0.5103751             -13.8880
        56        2.0000           -0.5018022             -13.6547
        57        2.0000           -0.5005723             -13.6213
        58        2.0000           -0.4944047             -13.4534
        59        2.0000           -0.4864465             -13.2369
        60        2.0000           -0.4801531             -13.0656
        61        2.0000           -0.4747546             -12.9187
        62        2.0000           -0.4677373             -12.7278
        63        2.0000           -0.4664625             -12.6931
        64        2.0000           -0.4568850             -12.4325
        65        2.0000           -0.4461247             -12.1397
        66        1.9992           -0.4167179             -11.3395
        67        1.5315           -0.4104253             -11.1682 (HOMO)
        68        0.4693           -0.4081769             -11.1071 (LUMO)
        69                         -0.3227562              -8.7826
        70                         -0.3083090              -8.3895
        71                         -0.2715458              -7.3891
        72                         -0.2245135              -6.1093
        73                         -0.2213195              -6.0224
        74                         -0.1475172              -4.0141
        75                         -0.1456558              -3.9635
        76                         -0.1402392              -3.8161
        77                         -0.1359702              -3.6999
        78                         -0.1211333              -3.2962
       ...                                ...                  ...
       134                          0.7295668              19.8525
      -------------------------------------------------------------
                  HL-Gap            0.0022484 Eh            0.0612 eV
             Fermi-level           -0.4093000 Eh          -11.1376 eV

  Mulliken/CM5 charges         n(s)   n(p)   n(d)
     1C     0.16379  0.04315   0.980  2.856  0.000
     2O    -0.41099 -0.49501   1.685  4.726  0.000
     3C     0.57466  0.64191   0.970  2.455  0.000
     4O    -0.56227 -0.60635   1.725  4.837  0.000
     5C     0.09546  0.17694   1.044  2.861  0.000
     6N    -0.36355 -0.54634   1.545  3.819  0.000
     7C     0.29266  0.44800   1.022  2.685  0.000
     8C     0.15367  0.19614   1.064  2.782  0.000
     9C    -0.09895 -0.23757   1.019  3.080  0.000
    10C    -0.09846 -0.23726   1.019  3.079  0.000
    11N    -0.30795 -0.65756   1.437  3.871  0.000
    12C     0.46633  0.57707   0.965  2.569  0.000
    13O    -0.57283 -0.61668   1.725  4.848  0.000
    14C     0.39750  0.51600   1.045  2.557  0.000
    15N    -0.15513 -0.24926   1.548  3.607  0.000
    16N    -0.15008 -0.24621   1.589  3.561  0.000
    17C     0.34493  0.41263   1.047  2.608  0.000
    18C    -0.09579 -0.23430   1.025  3.070  0.000
    19C    -0.09587 -0.23442   1.025  3.071  0.000
    20O    -0.35204 -0.41522   1.696  4.656  0.000
    21N    -0.42469 -0.60675   1.540  3.885  0.000
    22C     0.44980  0.55626   0.990  2.560  0.000
    23O    -0.58186 -0.62595   1.737  4.845  0.000
    24C     0.24227  0.27695   1.045  2.713  0.000
    25O    -0.48572 -0.67634   1.700  4.786  0.000
    26H     0.05161  0.11314   0.948  0.000  0.000
    27H     0.05391  0.11431   0.946  0.000  0.000
    28H     0.05162  0.11340   0.948  0.000  0.000
    29H     0.04878  0.10705   0.951  0.000  0.000
    30H     0.04451  0.10152   0.955  0.000  0.000
    31H     0.05578  0.11514   0.944  0.000  0.000
    32H     0.04934  0.10677   0.951  0.000  0.000
    33H     0.05635  0.11558   0.944  0.000  0.000
    34H     0.04523  0.10215   0.955  0.000  0.000
    35H     0.26594  0.48090   0.734  0.000  0.000
    36H     0.07233  0.13068   0.928  0.000  0.000
    37H     0.07072  0.12654   0.929  0.000  0.000
    38H     0.07603  0.13134   0.924  0.000  0.000
    39H     0.07605  0.13138   0.924  0.000  0.000
    40H     0.07074  0.12654   0.929  0.000  0.000
    41H     0.07229  0.13061   0.928  0.000  0.000
    42H     0.41387  0.59313   0.586  0.000  0.000

Wiberg/Mayer (AO) data.
largest (>0.10) Wiberg bond orders for each atom

 ---------------------------------------------------------------------------
     #   Z sym  total        # sym  WBO       # sym  WBO       # sym  WBO
 ---------------------------------------------------------------------------
     1   6 C    3.872 --    27 H    0.986    28 H    0.979    26 H    0.979
                             2 O    0.897
     2   8 O    2.202 --     3 C    1.116     1 C    0.897     4 O    0.135
     3   6 C    3.845 --     4 O    1.660     2 O    1.116     5 C    0.990
     4   8 O    1.917 --     3 C    1.660     2 O    0.135
     5   6 C    3.917 --    24 C    1.376     6 N    1.314     3 C    0.990
     6   7 N    2.854 --     7 C    1.334     5 C    1.314
     7   6 C    3.911 --    21 N    1.454     6 N    1.334     8 C    0.982
     8   6 C    3.923 --     7 C    0.982     9 C    0.975    10 C    0.971
                            11 N    0.925
     9   6 C    3.982 --    30 H    0.986    29 H    0.983    31 H    0.982
                             8 C    0.975
    10   6 C    3.981 --    34 H    0.986    32 H    0.983    33 H    0.981
                             8 C    0.971
    11   7 N    3.382 --    12 C    1.293     8 C    0.925    35 H    0.866
                            13 O    0.202
    12   6 C    3.921 --    13 O    1.566    11 N    1.293    14 C    0.980
    13   8 O    1.885 --    12 C    1.566    11 N    0.202
    14   6 C    3.637 --    15 N    1.291    20 O    1.204    12 C    0.980
    15   7 N    2.993 --    16 N    1.565    14 C    1.291
    16   7 N    2.721 --    15 N    1.565    17 C    1.027
    17   6 C    3.833 --    16 N    1.027    18 C    0.935    19 C    0.935
                            20 O    0.869
    18   6 C    3.940 --    36 H    0.982    37 H    0.981    38 H    0.980
                            17 C    0.935
    19   6 C    3.940 --    41 H    0.982    40 H    0.981    39 H    0.980
                            17 C    0.935
    20   8 O    2.231 --    14 C    1.204    17 C    0.869
    21   7 N    2.967 --     7 C    1.454    22 C    1.179
    22   6 C    3.874 --    23 O    1.554    21 N    1.179    24 C    1.031
    23   8 O    1.781 --    22 C    1.554
    24   6 C    3.732 --     5 C    1.376    25 O    1.147    22 C    1.031
    25   8 O    2.057 --    24 C    1.147    42 H    0.795
    26   1 H    1.007 --     1 C    0.979
    27   1 H    1.011 --     1 C    0.986
    28   1 H    1.007 --     1 C    0.979
    29   1 H    1.010 --     9 C    0.983
    30   1 H    1.001 --     9 C    0.986
    31   1 H    1.008 --     9 C    0.982
    32   1 H    1.007 --    10 C    0.983
    33   1 H    1.007 --    10 C    0.981
    34   1 H    1.002 --    10 C    0.986
    35   1 H    0.956 --    11 N    0.866
    36   1 H    0.996 --    18 C    0.982
    37   1 H    0.996 --    18 C    0.981
    38   1 H    0.995 --    18 C    0.980
    39   1 H    0.995 --    19 C    0.980
    40   1 H    0.996 --    19 C    0.981
    41   1 H    0.996 --    19 C    0.982
    42   1 H    0.847 --    25 O    0.795
 ---------------------------------------------------------------------------

Topologies differ in total number of bonds
Writing topology from bond orders to xtbtopo.mol

 dipole moment from electron density (au)
     X       Y       Z   
  -2.7961   2.6877   0.3000  total (Debye):    9.887

           -------------------------------------------------
          |                Geometry Summary                 |
           -------------------------------------------------

      molecular mass/u    :      351.3152409
   center of mass at/Å    :        0.1751883       0.0211422      -0.0750922
  moments of inertia/u·Å² :        0.1043199E+04   0.5083595E+04   0.5897071E+04
rotational constants/cm⁻¹ :        0.1615956E-01   0.3316085E-02   0.2858645E-02

 * 39 selected distances

     #   Z          #   Z                                           value/Å
     1   6 C        2   8 O                                       1.4301432
     2   8 O        3   6 C                                       1.3313264
     3   6 C        4   8 O                                       1.2101124
     5   6 C        6   7 N                                       1.3458860
     6   7 N        7   6 C                                       1.3345043
     8   6 C        9   6 C                                       1.5348664
     8   6 C       10   6 C                                       1.5361384 (max)
     8   6 C       11   7 N                                       1.4599680
    11   7 N       12   6 C                                       1.3378428
    12   6 C       13   8 O                                       1.2208596
    14   6 C       15   7 N                                       1.3488531
    15   7 N       16   7 N                                       1.2782847
    16   7 N       17   6 C                                       1.4371122
    17   6 C       18   6 C                                       1.5304128
    17   6 C       19   6 C                                       1.5305362
    14   6 C       20   8 O                                       1.3051691
    17   6 C       20   8 O                                       1.4302523
     7   6 C       21   7 N                                       1.3160108
    21   7 N       22   6 C                                       1.3663329
    22   6 C       23   8 O                                       1.2315929
     5   6 C       24   6 C                                       1.3851099
    24   6 C       25   8 O                                       1.3272649
     1   6 C       26   1 H                                       1.0927606
     1   6 C       27   1 H                                       1.0879410
     1   6 C       28   1 H                                       1.0927604
     9   6 C       29   1 H                                       1.0892211
     9   6 C       30   1 H                                       1.0887479
     9   6 C       31   1 H                                       1.0883131
    10   6 C       32   1 H                                       1.0891447
    10   6 C       33   1 H                                       1.0883610
    10   6 C       34   1 H                                       1.0888389
    11   7 N       35   1 H                                       1.0160650
    18   6 C       36   1 H                                       1.0878345
    18   6 C       37   1 H                                       1.0869692
    18   6 C       38   1 H                                       1.0872230
    19   6 C       39   1 H                                       1.0871477
    19   6 C       40   1 H                                       1.0869301
    19   6 C       41   1 H                                       1.0877912
    25   8 O       42   1 H                                       0.9800985 (min)

 * 7 distinct bonds (by element types)

   Z      Z             #   av. dist./Å        max./Å        min./Å
   1 H    6 C          15     1.0886656     1.0927606     1.0869301
   6 C    6 C           5     1.5034127     1.5361384     1.3851099
   1 H    7 N           1     1.0160650     1.0160650     1.0160650
   6 C    7 N           8     1.3683138     1.4599680     1.3160108
   7 N    7 N           1     1.2782847     1.2782847     1.2782847
   1 H    8 O           1     0.9800985     0.9800985     0.9800985
   6 C    8 O           8     1.3108401     1.4302523     1.2101124


optimized geometry written to: xtbopt.xyz


           -------------------------------------------------
          | TOTAL ENERGY              -82.932771522540 Eh   |
          | GRADIENT NORM               0.000187933739 Eh/α |
          | HOMO-LUMO GAP               0.061182238456 eV   |
           -------------------------------------------------

------------------------------------------------------------------------
 * finished run on 2023/06/20 at 18:24:05.208     
------------------------------------------------------------------------
 total:
 * wall-time:     0 d,  0 h,  0 min, 11.784 sec
 *  cpu-time:     0 d,  0 h,  0 min, 11.608 sec
 * ratio c/w:     0.985 speedup
 SCF:
 * wall-time:     0 d,  0 h,  0 min,  0.253 sec
 *  cpu-time:     0 d,  0 h,  0 min,  0.185 sec
 * ratio c/w:     0.732 speedup
 ANC optimizer:
 * wall-time:     0 d,  0 h,  0 min, 11.430 sec
 *  cpu-time:     0 d,  0 h,  0 min, 11.375 sec
 * ratio c/w:     0.995 speedup

