42
 energy: -83.012303617128 gnorm: 0.000573660695 xtb: 6.5.1 (579679a)
C           -5.79071383880728       -1.99816799034752       -1.79308258254346
O           -4.84668637618751       -1.48107013826550       -0.85122475389767
C           -3.74753711900112       -0.92570386613151       -1.35628478338720
O           -3.53048803006468       -0.84473998902338       -2.54410375121934
C           -2.81285338169515       -0.41237378683601       -0.31177616168901
N           -1.67250862775085        0.14856250121682       -0.81717553881654
C           -0.75498392600424        0.64290579520857       -0.05281772910829
C            0.43671892930872        1.27407846722826       -0.76268243252515
C            0.40465325909784        2.79619450773513       -0.56101755888359
C            0.36909296856914        0.94855818462668       -2.26180097545250
N            1.66563247295522        0.68110289345878       -0.21858245098655
C            2.90440389696738        1.08677289316002       -0.58138768850716
O            3.16076135805190        2.05432633831603       -1.27595991970627
C            3.96909602523505        0.22481131849205       -0.00994146016321
N            5.24963251580083        0.32871218466745       -0.18377733757889
N            5.82662913407855       -0.68161922620851        0.52491323516182
C            4.86298579320752       -1.34071149034408        1.08881036201562
C            4.96957078822946       -2.53035976366389        1.96060390564275
O            3.66077676900514       -0.82002105217341        0.79032750399893
N           -0.87676273920235        0.64291617472873        1.31549093032706
C            0.08973899076503        1.21049050050484        2.25845995993933
C           -1.99680614922898        0.11338179100468        1.92854071752427
O           -2.14046877009809        0.11858014721087        3.14722199716319
C           -3.00337096254703       -0.45121560541782        1.04093653395904
O           -4.07607585366521       -0.96739345781085        1.65020660756575
H           -6.10698901678164       -1.20976335122079       -2.48052387507128
H           -5.34215227789926       -2.81584638011548       -2.36256008373182
H           -6.63938316557998       -2.36091291665756       -1.21664811300656
H            1.13054233170604        3.27716885791626       -1.21384278716771
H           -0.58986946509532        3.16365027885244       -0.81068654414431
H            0.63049532814206        3.06424097475751        0.46762719923122
H            0.37819532754227       -0.12968067352672       -2.41052384943380
H           -0.54600345481488        1.35607634040705       -2.68733225641485
H            1.22664472784135        1.38833668616840       -2.76785725233527
H            1.58337924595063       -0.22126178000621        0.22047171544336
H            6.01727543694156       -2.76939727036346        2.12684649135593
H            4.48035488452480       -2.33892842403758        2.91498673659892
H            4.47155690334041       -3.37932304761419        1.49206814831381
H            0.17140834678971        0.52691853390184        3.10321207903207
H           -0.28460151560363        2.17057114147221        2.61403223660929
H            1.06001585881772        1.33332587559751        1.79290602961474
H           -3.96130662279686       -0.87319317685050        2.61470749624525
