42
 energy: -82.981687709333 gnorm: 0.000528983638 xtb: 6.5.1 (579679a)
C            5.99204892620750        0.99121183774237        1.93308758289008
O            4.80328239310399        0.69919592081431        1.20875605444395
C            4.80012009207782        1.07598196107836       -0.10293266207075
O            5.76960819272317        1.63044687274070       -0.59162742216928
C            3.55421761368919        0.73104036045018       -0.77599110550466
N            2.61234902681665        0.10627533472325        0.01423857393964
C            1.48398354787576       -0.25088958221766       -0.47445381874027
C            0.48042848650892       -0.98939396181813        0.38257437113336
C            0.82361840967304       -0.81313342796351        1.86333952739091
C            0.47059042959843       -2.47102368846888       -0.01986506473016
N           -0.85276023552580       -0.40297993908952        0.11923101728370
C           -1.97658262209322       -0.88480608721047        0.64894446667892
O           -2.10092055687325       -1.82330631586688        1.41627527691938
C           -3.19461094972733       -0.14061132615291        0.19413002793618
O           -3.17560396194317        0.90411914662571       -0.62405781477696
C           -4.46058401973839        1.25994976666856       -0.80297057930196
C           -4.81536890921096        2.39947599401482       -1.66571184536933
N           -5.25989957217735        0.48125183183658       -0.13432795736740
N           -4.45276003753588       -0.39863070392519        0.48698190716100
C           -5.02254796705648       -1.42230569674732        1.33685348712488
N            1.16404896978857       -0.05475160818365       -1.80342827499710
C            2.00094100748583        0.56379623607357       -2.70459782006428
O            1.63990749053241        0.70763231316437       -3.86667465513382
C            3.33750771223769        1.01421913995309       -2.15339273580092
O            4.13566793630907        1.58006462248793       -2.91607824288559
H            6.19918288958029        2.06606550412208        1.91999932438164
H            5.82796767554964        0.65945153839405        2.95734036883397
H            6.84716786967887        0.45898236119469        1.50374873919897
H            0.75757183791448        0.23926210963089        2.13544217818426
H            1.84316606359411       -1.15768077702716        2.03366126100352
H            0.13957212016586       -1.38829279676359        2.48314195133387
H           -0.18871079710116       -3.04294840666673        0.62896656384545
H            0.13217882125064       -2.57380891351827       -1.04914792229803
H            1.48154781089593       -2.86781397081678        0.06474714685867
H           -0.91341415443375        0.41029782572770       -0.47278483278673
H           -4.32761660006803        3.30364971331378       -1.29954059033476
H           -5.89401568948171        2.53552913020886       -1.67030359098032
H           -4.46017683690817        2.21633769306027       -2.68069420218486
H           -4.41702200617488       -2.32267533850084        1.25646064861155
H           -5.01578088566422       -1.06622731073097        2.36694634363675
H           -6.04284973193171       -1.60166455451473        1.00808938025932
H            0.27455421039861       -0.36129380783833       -2.15438006155554
