42
 energy: -83.599768169738 gnorm: 0.000494749538 xtb: 6.5.1 (579679a)
C           -6.47397508873395        1.82363221516748        0.92400925747397
O           -5.33757516075233        1.74248787504375        0.07343658388196
C           -4.33942545358234        0.93456325522595        0.49505687161781
O           -4.42910506714229        0.31367282515423        1.54113763524169
C           -3.17747390213506        0.89444626259423       -0.41221989806121
N           -2.14237452406540        0.11227502062292        0.02427603632245
C           -1.06282395304853        0.03146185960021       -0.73062774533435
C            0.06155879861128       -0.83842251646789       -0.17135861620313
C           -0.51889341837331       -2.20765138093561        0.21251065726375
C            0.62238441820568       -0.13263682574111        1.07995943002924
N            1.08918581656247       -1.01804317023036       -1.20893715305781
C            2.33595457328903       -1.57945492303275       -0.76545945169626
O            2.41355031343918       -2.99461363454198       -0.90661642219741
C            2.96889055207537       -3.66422604998530        0.20671245613681
C            3.47178995210608       -0.83877435348124       -0.60325045687623
N            4.74269575831717       -1.27480860677529       -0.37734525272840
N            5.50046145300528       -0.13782731019828       -0.17408863770483
C            4.72797331485356        0.88409897904236       -0.27620933680116
C            5.10178890776648        2.31723751273907       -0.13156102466731
O            3.41888107881658        0.55163509461067       -0.54833942991891
N           -0.85869342072430        0.64127366234456       -1.89883910814381
C           -1.83890101953516        1.42251951493449       -2.40230195089876
O           -1.76491745461335        2.03239916684861       -3.49459743850058
C           -3.06132515539472        1.55280553218909       -1.61177241878921
O           -4.01289671280216        2.34937256181451       -2.16420814148296
H           -7.17547891065713        2.51116458313757        0.45454607695007
H           -6.93889131264778        0.84013994659439        1.04071687316950
H           -6.18965299921809        2.19952113503585        1.91141330668141
H           -0.83853624777933       -2.73920363120608       -0.68508674674071
H            0.22649811069370       -2.81205575426647        0.72789280921373
H           -1.37807984544098       -2.07596843396671        0.87072232146047
H           -0.18356067116664        0.04644551703319        1.79149626877970
H            1.06928395999028        0.82229737262523        0.80219903471584
H            1.38508181475798       -0.75178241371584        1.55363170482700
H            1.26393070336251       -0.10155693034255       -1.62960222640375
H            2.44516661960880       -3.40823114368419        1.14018441422691
H            4.03554225035627       -3.42030265862111        0.33167601953619
H            2.86944517520634       -4.73870341613818        0.02955313893130
H            6.16648852740338        2.38868123452407        0.08199341338353
H            4.88546739137503        2.87215562422034       -1.04656062984294
H            4.54542641284592        2.78357170659454        0.68346479692372
H           -3.62486158483545        2.66640669564168       -3.00847802071178
