9
 energy: -15.748335344359 gnorm: 0.000481180552 xtb: 6.5.1 (579679a)
C            1.24387815895446       -0.06228869540738       -0.12948661010387
B           -0.31930692324548        0.01605439208510        0.04553663439934
O           -0.89186668592050        1.21191913116199        0.38933324684216
O           -1.06667601637369       -1.11247209583242       -0.16305625577842
H            1.75029504885458        0.72024480365869        0.43328681908911
H            1.63052310966287       -1.02972459957251        0.18816432987053
H            1.50878590885784        0.06351860529859       -1.18030412171621
H           -1.84097968772333        1.25505666372333        0.48069433937553
H           -2.01465191306674       -1.06230720511542       -0.06416838197820
