      -----------------------------------------------------------      
     |                   =====================                   |     
     |                           x T B                           |     
     |                   =====================                   |     
     |                         S. Grimme                         |     
     |          Mulliken Center for Theoretical Chemistry        |     
     |                    University of Bonn                     |     
      -----------------------------------------------------------      

   * xtb version 6.5.1 (579679a) compiled by 'ehlert@majestix' on 2022-07-11

   xtb is free software: you can redistribute it and/or modify it under
   the terms of the GNU Lesser General Public License as published by
   the Free Software Foundation, either version 3 of the License, or
   (at your option) any later version.
   
   xtb is distributed in the hope that it will be useful,
   but WITHOUT ANY WARRANTY; without even the implied warranty of
   MERCHANTABILITY or FITNESS FOR A PARTICULAR PURPOSE.  See the
   GNU Lesser General Public License for more details.
   
   Cite this work as:
   * C. Bannwarth, E. Caldeweyher, S. Ehlert, A. Hansen, P. Pracht,
     J. Seibert, S. Spicher, S. Grimme, WIREs Comput. Mol. Sci., 2020, 11,
     e01493. DOI: 10.1002/wcms.1493
   
   for GFN2-xTB:
   * C. Bannwarth, S. Ehlert and S. Grimme., J. Chem. Theory Comput., 2019,
     15, 1652-1671. DOI: 10.1021/acs.jctc.8b01176
   for GFN1-xTB:
   * S. Grimme, C. Bannwarth, P. Shushkov, J. Chem. Theory Comput., 2017,
     13, 1989-2009. DOI: 10.1021/acs.jctc.7b00118
   for GFN0-xTB:
   * P. Pracht, E. Caldeweyher, S. Ehlert, S. Grimme, ChemRxiv, 2019, preprint.
     DOI: 10.26434/chemrxiv.8326202.v1
   for GFN-FF:
   * S. Spicher and S. Grimme, Angew. Chem. Int. Ed., 2020, 59, 15665-15673.
     DOI: 10.1002/anie.202004239
   
   for ALPB and GBSA implicit solvation:
   * S. Ehlert, M. Stahn, S. Spicher, S. Grimme, J. Chem. Theory Comput.,
     2021, 17, 4250-4261. DOI: 10.1021/acs.jctc.1c00471
   
   for DFT-D4:
   * E. Caldeweyher, C. Bannwarth and S. Grimme, J. Chem. Phys., 2017,
     147, 034112. DOI: 10.1063/1.4993215
   * E. Caldeweyher, S. Ehlert, A. Hansen, H. Neugebauer, S. Spicher,
     C. Bannwarth and S. Grimme, J. Chem. Phys., 2019, 150, 154122.
     DOI: 10.1063/1.5090222
   * E. Caldeweyher, J.-M. Mewes, S. Ehlert and S. Grimme, Phys. Chem. Chem. Phys.
     2020, 22, 8499-8512. DOI: 10.1039/D0CP00502A
   
   for sTDA-xTB:
   * S. Grimme and C. Bannwarth, J. Chem. Phys., 2016, 145, 054103.
     DOI: 10.1063/1.4959605
   
   in the mass-spec context:
   * V. Asgeirsson, C. Bauer and S. Grimme, Chem. Sci., 2017, 8, 4879.
     DOI: 10.1039/c7sc00601b
   * J. Koopman and S. Grimme, ACS Omega 2019, 4, 12, 15120-15133.
     DOI: 10.1021/acsomega.9b02011
   
   for metadynamics refer to:
   * S. Grimme, J. Chem. Theory Comput., 2019, 155, 2847-2862
     DOI: 10.1021/acs.jctc.9b00143
   
   for SPH calculations refer to:
   * S. Spicher and S. Grimme, J. Chem. Theory Comput., 2021, 17, 1701-1714
     DOI: 10.1021/acs.jctc.0c01306
   
   with help from (in alphabetical order)
   P. Atkinson, C. Bannwarth, F. Bohle, G. Brandenburg, E. Caldeweyher
   M. Checinski, S. Dohm, S. Ehlert, S. Ehrlich, I. Gerasimov, C. Hölzer
   A. Katbashev, J. Koopman, C. Lavigne, S. Lehtola, F. März, M. Müller,
   F. Musil, H. Neugebauer, J. Pisarek, C. Plett, P. Pracht, F. Pultar,
   J. Seibert, P. Shushkov, S. Spicher, M. Stahn, M. Steiner, T. Strunk,
   J. Stückrath, T. Rose, and J. Unsleber
   
 * started run on 2023/06/21 at 17:16:07.203     

           -------------------------------------------------
          |                Calculation Setup                |
           -------------------------------------------------

          program call               : /lustre/hpc/kemi/ree/PhD/git/ReactivityQM/dep/xtb-6.5.1/bin/xtb --gfn 1 /lustre/hpc/kemi/ree/PhD/git/ReactivityQM/calculations/R02oxygendeprot/reac01prodE14/conf11/R02oxygendeprot_reac01prodE14_conf11_gfn1.xyz --opt --vfukui --chrg -2 --uhf 0 --alpb DMSO
          hostname                   : node070
          coordinate file            : /lustre/hpc/kemi/ree/PhD/git/ReactivityQM/calculations/R02oxygendeprot/reac01prodE14/conf11/R02oxygendeprot_reac01prodE14_conf11_gfn1.xyz
          omp threads                :                     1

   ID    Z sym.   atoms
    1    6 C      1, 3, 5, 7-10, 12, 14, 17, 18, 21, 23, 24
    2    8 O      2, 4, 13, 19, 22, 25
    3    7 N      6, 11, 15, 16, 20
    4    1 H      26-42

           -------------------------------------------------
          |                 G F N 1 - x T B                 |
           -------------------------------------------------

        Reference                      10.1021/acs.jctc.7b00118
      * Hamiltonian:
        H0-scaling (s, p, d)           1.850000    2.250000    2.000000
        zeta-weighting                 0.000000
      * Dispersion:
        s8                             2.400000
        a1                             0.630000
        a2                             5.000000
        s9                             0.000000
      * Repulsion:
        kExp                           1.500000
        rExp                           1.000000
      * Coulomb:
        alpha                          2.000000
        third order                    atomic
        anisotropic                    false
      * Halogen bond correction:
        rad-scale                      1.300000
        damping                        0.440000

      * Solvation model:               ALPB
        Solvent                        DMSO
        Parameter file                 internal GFN1-xTB/ALPB
        Dielectric constant                4.6680E+01
        Reference state                gsolv [1 M gas/solution]
        Free energy shift                  7.6243E-03 Eh       4.7843E+00 kcal/mol
        Temperature                        2.9815E+02 K
        Density                            1.1000E+00 kg/L
        Solvent mass                       7.8130E+01 g/mol
        Interaction kernel             P16
        Born radius scaling (c1)           1.7672E+00
        Born radii integrator          GBOBC
        Born offset                        0.0000E+00 a0       0.0000E+00 AA
        H-bond correction              true
        Ion screening                  false
        Surface tension                    1.0000E-05 Eh       1.5569E+01 dyn/cm
        Grid points                               230 per atom

          ...................................................
          :                      SETUP                      :
          :.................................................:
          :  # basis functions                 134          :
          :  # atomic orbitals                 134          :
          :  # shells                           84          :
          :  # electrons                       136          :
          :  # halogen bonds                     0          :
          :  max. iterations                   250          :
          :  Hamiltonian                  GFN1-xTB          :
          :  restarted?                      false          :
          :  GBSA solvation                   true          :
          :  PC potential                    false          :
          :  electronic temp.          300.0000000     K    :
          :  accuracy                    1.0000000          :
          :  -> integral cutoff          0.2500000E+02      :
          :  -> integral neglect         0.1000000E-07      :
          :  -> SCF convergence          0.1000000E-05 Eh   :
          :  -> wf. convergence          0.2000000E-04 e    :
          :  Broyden damping             0.4000000          :
          ...................................................

 iter      E             dE          RMSdq      gap      omega  full diag
   1    -83.9762890 -0.839763E+02  0.871E+00    1.92       0.0  T
   2    -84.2755146 -0.299226E+00  0.520E+00    0.35       1.0  T
   3    -83.6865886  0.588926E+00  0.305E+00    0.13       1.0  T
   4    -84.2288838 -0.542295E+00  0.134E+00    1.78       1.0  T
   5    -84.2856947 -0.568109E-01  0.643E-01    0.74       1.0  T
   6    -84.2940018 -0.830709E-02  0.444E-01    0.39       1.0  T
   7    -84.2647234  0.292784E-01  0.649E-01    0.10       1.0  T
   8    -84.2360893  0.286341E-01  0.816E-01    0.10       1.0  T
   9    -84.0653758  0.170714E+00  0.141E+00    0.16       1.0  T
  10    -84.2635175 -0.198142E+00  0.619E-01    0.09       1.0  T
  11    -84.2982425 -0.347250E-01  0.286E-01    0.10       1.0  T
  12    -84.2977903  0.452244E-03  0.278E-01    0.10       1.0  T
  13    -84.3067969 -0.900661E-02  0.648E-02    0.14       1.0  T
  14    -84.3057912  0.100564E-02  0.104E-01    0.12       1.0  T
  15    -84.3066067 -0.815463E-03  0.615E-02    0.12       1.0  T
  16    -84.3069493 -0.342631E-03  0.289E-02    0.13       1.0  T
  17    -84.3070182 -0.688552E-04  0.149E-02    0.13       1.0  T
  18    -84.3070371 -0.189068E-04  0.628E-03    0.13       2.5  T
  19    -84.3070407 -0.366002E-05  0.248E-03    0.14       6.2  T
  20    -84.3070414 -0.630331E-06  0.113E-03    0.14      13.7  T
  21    -84.3070415 -0.114083E-06  0.424E-04    0.14      36.4  T
  22    -84.3070415 -0.194874E-07  0.839E-05    0.14     183.9  T
  23    -84.3070415 -0.630919E-09  0.321E-05    0.14     480.8  T

   *** convergence criteria satisfied after 23 iterations ***

         #    Occupation            Energy/Eh            Energy/eV
      -------------------------------------------------------------
         1        2.0000           -0.8291756             -22.5630
       ...           ...                  ...                  ...
        62        2.0000           -0.4026305             -10.9561
        63        2.0000           -0.3954524             -10.7608
        64        2.0000           -0.3844754             -10.4621
        65        2.0000           -0.3729177             -10.1476
        66        2.0000           -0.3019600              -8.2167
        67        2.0000           -0.2988109              -8.1311
        68        1.8639           -0.2903117              -7.8998 (HOMO)
        69        0.1362           -0.2853398              -7.7645 (LUMO)
        70                         -0.2352327              -6.4010
        71                         -0.2170924              -5.9074
        72                         -0.1718179              -4.6754
        73                         -0.1666669              -4.5352
       ...                                ...                  ...
       134                          0.7520637              20.4647
      -------------------------------------------------------------
                  HL-Gap            0.0049719 Eh            0.1353 eV
             Fermi-level           -0.2878257 Eh           -7.8321 eV

 SCC (total)                   0 d,  0 h,  0 min,  0.266 sec
 SCC setup                      ...        0 min,  0.002 sec (  0.698%)
 Dispersion                     ...        0 min,  0.000 sec (  0.114%)
 classical contributions        ...        0 min,  0.000 sec (  0.039%)
 integral evaluation            ...        0 min,  0.078 sec ( 29.312%)
 iterations                     ...        0 min,  0.129 sec ( 48.395%)
 molecular gradient             ...        0 min,  0.056 sec ( 20.961%)
 printout                       ...        0 min,  0.001 sec (  0.470%)

         :::::::::::::::::::::::::::::::::::::::::::::::::::::
         ::                     SUMMARY                     ::
         :::::::::::::::::::::::::::::::::::::::::::::::::::::
         :: total energy             -83.582342494121 Eh    ::
         :: total w/o Gsasa/hb       -83.563462392597 Eh    ::
         :: gradient norm              0.146174613300 Eh/a0 ::
         :: HOMO-LUMO gap              0.135291627116 eV    ::
         ::.................................................::
         :: SCC energy               -84.307041505286 Eh    ::
         :: -> electrostatic           0.739125159852 Eh    ::
         :: -> Gsolv                  -0.294262323924 Eh    ::
         ::    -> Gelec               -0.275382222400 Eh    ::
         ::    -> Gsasa               -0.024062174855 Eh    ::
         ::    -> Ghb                 -0.002442205673 Eh    ::
         ::    -> Gshift               0.007624279005 Eh    ::
         :: repulsion energy           0.750683412158 Eh    ::
         :: dispersion energy         -0.025984400994 Eh    ::
         :: halogen bond corr.         0.000000000000 Eh    ::
         :: add. restraining           0.000000000000 Eh    ::
         :: total charge              -2.000000000000 e     ::
         :::::::::::::::::::::::::::::::::::::::::::::::::::::

      ----------------------------------------------------------- 
     |                   =====================                   |
     |                        A N C O P T                        |
     |                   =====================                   |
     |               Approximate Normal Coordinate               |
     |                Rational Function Optimizer                |
      ----------------------------------------------------------- 

          ...................................................
          :                      SETUP                      :
          :.................................................:
          :   optimization level            normal          :
          :   max. optcycles                   200          :
          :   ANC micro-cycles                  20          :
          :   degrees of freedom               120          :
          :.................................................:
          :   RF solver                   davidson          :
          :   write xtbopt.log                true          :
          :   linear?                        false          :
          :   energy convergence         0.5000000E-05 Eh   :
          :   grad. convergence          0.1000000E-02 Eh/α :
          :   maximium RF displ.         1.0000000          :
          :   Hlow (freq-cutoff)         0.1000000E-01      :
          :   Hmax (freq-cutoff)         5.0000000          :
          :   S6 in model hess.         20.0000000          :
          ...................................................

generating ANC from model Hessian ...
Using Lindh-Hessian (1995)
 Shifting diagonal of input Hessian by   9.855578486559970E-003
 Lowest  eigenvalues of input Hessian
    0.000000    0.000000    0.000000    0.000000    0.000000    0.000000
    0.010000    0.010160    0.011195    0.011448    0.012114    0.012306
    0.012739    0.013851    0.014156    0.015378    0.015944    0.017977
 Highest eigenvalues
    1.969295    2.047298    2.113154    2.211223    2.304969    2.357238
 

........................................................................
.............................. CYCLE    1 ..............................
........................................................................
   1    -84.3070415 -0.843070E+02  0.196E-05    0.14       0.0  T
   2    -84.3070415  0.233865E-08  0.138E-04    0.14     111.7  T
   3    -84.3070415 -0.237786E-08  0.618E-06    0.14    2498.2  T
     SCC iter.                  ...        0 min,  0.017 sec
     gradient                   ...        0 min,  0.058 sec
 * total energy  :   -83.5823425 Eh     change       -0.1222276E-09 Eh
   gradient norm :     0.1461731 Eh/α   predicted     0.0000000E+00 (-100.00%)
   displ. norm   :     0.3724357 α      lambda       -0.2193003E-01
   maximum displ.:     0.1322024 α      in ANC's #18, #23, #22, ...

........................................................................
.............................. CYCLE    2 ..............................
........................................................................
   1    -84.3115461 -0.843115E+02  0.237E-01    0.31       0.0  T
   2    -83.9820617  0.329484E+00  0.165E+00    0.20       1.0  T
   3    -84.3149992 -0.332937E+00  0.154E-01    0.23       1.0  T
   4    -84.3160999 -0.110071E-02  0.108E-01    0.20       1.0  T
   5    -84.3169349 -0.834979E-03  0.681E-02    0.18       1.0  T
   6    -84.3174527 -0.517773E-03  0.127E-02    0.16       1.2  T
   7    -84.3173772  0.754496E-04  0.283E-02    0.14       1.0  T
   8    -84.3174715 -0.942712E-04  0.168E-03    0.15       9.2  T
   9    -84.3174717 -0.177490E-06  0.439E-04    0.15      35.2  T
  10    -84.3174716  0.508782E-07  0.736E-04    0.15      21.0  T
  11    -84.3174717 -0.592137E-07  0.141E-04    0.15     109.7  T
  12    -84.3174717 -0.104005E-08  0.234E-05    0.15     660.1  T
     SCC iter.                  ...        0 min,  0.068 sec
     gradient                   ...        0 min,  0.056 sec
 * total energy  :   -83.5983199 Eh     change       -0.1597736E-01 Eh
   gradient norm :     0.0744953 Eh/α   predicted    -0.1252804E-01 ( -21.59%)
   displ. norm   :     0.3958062 α      lambda       -0.1127103E-01
   maximum displ.:     0.1517570 α      in ANC's #18, #21, #23, ...

........................................................................
.............................. CYCLE    3 ..............................
........................................................................
   1    -84.3267395 -0.843267E+02  0.216E-01    0.34       0.0  T
   2    -84.0166688  0.310071E+00  0.161E+00    0.11       1.0  T
   3    -84.3290946 -0.312426E+00  0.152E-01    0.29       1.0  T
   4    -84.3295021 -0.407504E-03  0.126E-01    0.26       1.0  T
   5    -84.3299650 -0.462900E-03  0.107E-01    0.24       1.0  T
   6    -84.3304863 -0.521343E-03  0.780E-02    0.21       1.0  T
   7    -84.3310612 -0.574866E-03  0.267E-02    0.18       1.0  T
   8    -84.3311369 -0.756836E-04  0.410E-03    0.17       3.8  T
   9    -84.3311387 -0.179585E-05  0.173E-03    0.17       8.9  T
  10    -84.3311363  0.238792E-05  0.482E-03    0.16       3.2  T
  11    -84.3311385 -0.218090E-05  0.179E-03    0.17       8.6  T
  12    -84.3311388 -0.348199E-06  0.184E-04    0.17      83.9  T
  13    -84.3311388 -0.172965E-08  0.134E-04    0.17     114.9  T
     SCC iter.                  ...        0 min,  0.072 sec
     gradient                   ...        0 min,  0.058 sec
 * total energy  :   -83.6052198 Eh     change       -0.6899986E-02 Eh
   gradient norm :     0.0243015 Eh/α   predicted    -0.6518389E-02 (  -5.53%)
   displ. norm   :     0.2873288 α      lambda       -0.2158965E-02
   maximum displ.:     0.1307841 α      in ANC's #18, #4, #21, ...

........................................................................
.............................. CYCLE    4 ..............................
........................................................................
   1    -84.3350418 -0.843350E+02  0.104E-01    0.24       0.0  T
   2    -84.2219342  0.113108E+00  0.962E-01    0.06       1.0  T
   3    -84.3358587 -0.113925E+00  0.641E-02    0.22       1.0  T
   4    -84.3359146 -0.558914E-04  0.547E-02    0.21       1.0  T
   5    -84.3360793 -0.164674E-03  0.388E-02    0.20       1.0  T
   6    -84.3362139 -0.134587E-03  0.155E-02    0.18       1.0  T
   7    -84.3362392 -0.253323E-04  0.341E-03    0.18       4.5  T
   8    -84.3362402 -0.105371E-05  0.146E-03    0.18      10.6  T
   9    -84.3362404 -0.187259E-06  0.464E-04    0.18      33.2  T
  10    -84.3362405 -0.216585E-07  0.625E-05    0.18     246.9  T
  11    -84.3362405 -0.126391E-09  0.474E-05    0.18     325.6  T
     SCC iter.                  ...        0 min,  0.060 sec
     gradient                   ...        0 min,  0.057 sec
 * total energy  :   -83.6067309 Eh     change       -0.1511055E-02 Eh
   gradient norm :     0.0154603 Eh/α   predicted    -0.1168602E-02 ( -22.66%)
   displ. norm   :     0.3029386 α      lambda       -0.1178827E-02
   maximum displ.:     0.1387761 α      in ANC's #4, #18, #15, ...

........................................................................
.............................. CYCLE    5 ..............................
........................................................................
   1    -84.3383862 -0.843384E+02  0.688E-02    0.23       0.0  T
   2    -84.3151284  0.232578E-01  0.439E-01    0.08       1.0  T
   3    -84.3387789 -0.236504E-01  0.381E-02    0.21       1.0  T
   4    -84.3388297 -0.508689E-04  0.286E-02    0.21       1.0  T
   5    -84.3389056 -0.759057E-04  0.108E-02    0.19       1.4  T
   6    -84.3389171 -0.114394E-04  0.744E-04    0.19      20.7  T
   7    -84.3389169  0.202883E-06  0.140E-03    0.19      11.0  T
   8    -84.3389171 -0.209936E-06  0.352E-04    0.19      43.8  T
   9    -84.3389171 -0.141621E-07  0.291E-05    0.19     530.5  T
  10    -84.3389171  0.229903E-09  0.500E-05    0.19     308.6  T
     SCC iter.                  ...        0 min,  0.055 sec
     gradient                   ...        0 min,  0.062 sec
 * total energy  :   -83.6075080 Eh     change       -0.7771192E-03 Eh
   gradient norm :     0.0099135 Eh/α   predicted    -0.6435300E-03 ( -17.19%)
   displ. norm   :     0.2237695 α      lambda       -0.4732822E-03
   maximum displ.:     0.0995816 α      in ANC's #4, #18, #5, ...

........................................................................
.............................. CYCLE    6 ..............................
........................................................................
   1    -84.3401178 -0.843401E+02  0.210E-02    0.20       0.0  T
   2    -84.3395343  0.583505E-03  0.731E-02    0.16       1.0  T
   3    -84.3401631 -0.628845E-03  0.599E-03    0.20       2.6  T
   4    -84.3401656 -0.241740E-05  0.223E-03    0.19       6.9  T
   5    -84.3401656 -0.640840E-07  0.959E-04    0.19      16.1  T
   6    -84.3401656  0.198575E-08  0.426E-04    0.19      36.3  T
   7    -84.3401656 -0.169843E-07  0.712E-05    0.19     216.7  T
   8    -84.3401656 -0.970886E-10  0.342E-05    0.19     451.3  T
     SCC iter.                  ...        0 min,  0.044 sec
     gradient                   ...        0 min,  0.056 sec
 * total energy  :   -83.6078423 Eh     change       -0.3342512E-03 Eh
   gradient norm :     0.0078106 Eh/α   predicted    -0.2485925E-03 ( -25.63%)
   displ. norm   :     0.2393664 α      lambda       -0.3563184E-03
   maximum displ.:     0.1016073 α      in ANC's #4, #5, #6, ...

........................................................................
.............................. CYCLE    7 ..............................
........................................................................
   1    -84.3408899 -0.843409E+02  0.103E-02    0.20       0.0  T
   2    -84.3408498  0.401222E-04  0.208E-02    0.18       1.0  T
   3    -84.3408953 -0.455480E-04  0.600E-03    0.20       2.6  T
   4    -84.3408981 -0.277891E-05  0.187E-03    0.20       8.3  T
   5    -84.3408981  0.239283E-07  0.794E-04    0.20      19.4  T
   6    -84.3408981 -0.328911E-07  0.166E-04    0.20      93.0  T
   7    -84.3408981 -0.882395E-09  0.556E-05    0.20     277.7  T
     SCC iter.                  ...        0 min,  0.039 sec
     gradient                   ...        0 min,  0.058 sec
 * total energy  :   -83.6080992 Eh     change       -0.2569827E-03 Eh
   gradient norm :     0.0076244 Eh/α   predicted    -0.1883677E-03 ( -26.70%)
   displ. norm   :     0.2439080 α      lambda       -0.2875021E-03
   maximum displ.:     0.0889935 α      in ANC's #14, #5, #6, ...

........................................................................
.............................. CYCLE    8 ..............................
........................................................................
   1    -84.3411125 -0.843411E+02  0.938E-03    0.20       0.0  T
   2    -84.3411066  0.588470E-05  0.111E-02    0.20       1.4  T
   3    -84.3411122 -0.562036E-05  0.774E-03    0.19       2.0  T
   4    -84.3411178 -0.559781E-05  0.225E-03    0.20       6.9  T
   5    -84.3411179 -0.527222E-07  0.573E-04    0.20      26.9  T
   6    -84.3411179 -0.419918E-08  0.167E-04    0.20      92.5  T
   7    -84.3411179 -0.177978E-08  0.500E-05    0.20     308.5  T
     SCC iter.                  ...        0 min,  0.039 sec
     gradient                   ...        0 min,  0.059 sec
 * total energy  :   -83.6083083 Eh     change       -0.2090404E-03 Eh
   gradient norm :     0.0075326 Eh/α   predicted    -0.1523101E-03 ( -27.14%)
   displ. norm   :     0.2433082 α      lambda       -0.2339191E-03
   maximum displ.:     0.0942179 α      in ANC's #6, #14, #10, ...

........................................................................
.............................. CYCLE    9 ..............................
........................................................................
   1    -84.3409950 -0.843410E+02  0.832E-03    0.20       0.0  T
   2    -84.3409981 -0.306341E-05  0.479E-03    0.20       3.2  T
   3    -84.3409982 -0.138601E-06  0.276E-03    0.20       5.6  T
   4    -84.3409963  0.193198E-05  0.481E-03    0.20       3.2  T
   5    -84.3409986 -0.232192E-05  0.557E-04    0.20      27.7  T
   6    -84.3409986 -0.522063E-08  0.130E-04    0.20     118.6  T
   7    -84.3409986 -0.202277E-09  0.509E-05    0.20     303.0  T
     SCC iter.                  ...        0 min,  0.038 sec
     gradient                   ...        0 min,  0.059 sec
 * total energy  :   -83.6084755 Eh     change       -0.1672006E-03 Eh
   gradient norm :     0.0065653 Eh/α   predicted    -0.1238861E-03 ( -25.91%)
   displ. norm   :     0.2019115 α      lambda       -0.1680356E-03
   maximum displ.:     0.0885012 α      in ANC's #2, #6, #10, ...

........................................................................
.............................. CYCLE   10 ..............................
........................................................................
   1    -84.3412019 -0.843412E+02  0.816E-03    0.21       0.0  T
   2    -84.3411899  0.119807E-04  0.126E-02    0.20       1.2  T
   3    -84.3412038 -0.139136E-04  0.484E-03    0.21       3.2  T
   4    -84.3412062 -0.238429E-05  0.190E-03    0.20       8.1  T
   5    -84.3412063 -0.869041E-07  0.925E-04    0.20      16.7  T
   6    -84.3412063 -0.609367E-07  0.185E-04    0.20      83.5  T
   7    -84.3412063 -0.150473E-08  0.366E-05    0.20     421.1  T
     SCC iter.                  ...        0 min,  0.038 sec
     gradient                   ...        0 min,  0.058 sec
 * total energy  :   -83.6085949 Eh     change       -0.1194550E-03 Eh
   gradient norm :     0.0049321 Eh/α   predicted    -0.8744369E-04 ( -26.80%)
   displ. norm   :     0.1754692 α      lambda       -0.1130965E-03
   maximum displ.:     0.0878497 α      in ANC's #2, #10, #6, ...

........................................................................
.............................. CYCLE   11 ..............................
........................................................................
   1    -84.3411908 -0.843412E+02  0.843E-03    0.21       0.0  T
   2    -84.3411581  0.327363E-04  0.188E-02    0.20       1.0  T
   3    -84.3411963 -0.382142E-04  0.271E-03    0.21       5.7  T
   4    -84.3411968 -0.498164E-06  0.151E-03    0.21      10.2  T
   5    -84.3411968 -0.253936E-07  0.783E-04    0.21      19.7  T
   6    -84.3411969 -0.518128E-07  0.164E-04    0.21      94.3  T
   7    -84.3411969 -0.140345E-08  0.270E-05    0.21     571.9  T
     SCC iter.                  ...        0 min,  0.038 sec
     gradient                   ...        0 min,  0.059 sec
 * total energy  :   -83.6086769 Eh     change       -0.8195983E-04 Eh
   gradient norm :     0.0038756 Eh/α   predicted    -0.5829290E-04 ( -28.88%)
   displ. norm   :     0.1652187 α      lambda       -0.8508295E-04
   maximum displ.:     0.0895929 α      in ANC's #2, #7, #10, ...

........................................................................
.............................. CYCLE   12 ..............................
........................................................................
   1    -84.3415114 -0.843415E+02  0.733E-03    0.21       0.0  T
   2    -84.3414901  0.212799E-04  0.154E-02    0.20       1.0  T
   3    -84.3415153 -0.252584E-04  0.268E-03    0.21       5.8  T
   4    -84.3415158 -0.466816E-06  0.130E-03    0.21      11.9  T
   5    -84.3415158 -0.970152E-08  0.601E-04    0.21      25.7  T
   6    -84.3415158 -0.299460E-07  0.115E-04    0.21     134.7  T
   7    -84.3415158 -0.540993E-09  0.228E-05    0.21     676.9  T
     SCC iter.                  ...        0 min,  0.039 sec
     gradient                   ...        0 min,  0.058 sec
 * total energy  :   -83.6087396 Eh     change       -0.6271681E-04 Eh
   gradient norm :     0.0035278 Eh/α   predicted    -0.4370714E-04 ( -30.31%)
   displ. norm   :     0.1797768 α      lambda       -0.7603157E-04
   maximum displ.:     0.0995509 α      in ANC's #2, #7, #10, ...

........................................................................
.............................. CYCLE   13 ..............................
........................................................................
   1    -84.3414115 -0.843414E+02  0.447E-03    0.21       0.0  T
   2    -84.3414105  0.101149E-05  0.475E-03    0.21       3.2  T
   3    -84.3414115 -0.102659E-05  0.320E-03    0.22       4.8  T
   4    -84.3414125 -0.946081E-06  0.107E-03    0.21      14.4  T
   5    -84.3414125 -0.280446E-07  0.335E-04    0.21      46.1  T
   6    -84.3414125 -0.408400E-08  0.682E-05    0.21     226.3  T
   7    -84.3414125 -0.856204E-10  0.211E-05    0.21     731.5  T
     SCC iter.                  ...        0 min,  0.038 sec
     gradient                   ...        0 min,  0.056 sec
 * total energy  :   -83.6087973 Eh     change       -0.5769797E-04 Eh
   gradient norm :     0.0036245 Eh/α   predicted    -0.3924752E-04 ( -31.98%)
   displ. norm   :     0.1928698 α      lambda       -0.8019695E-04
   maximum displ.:     0.1080686 α      in ANC's #2, #7, #4, ...

........................................................................
.............................. CYCLE   14 ..............................
........................................................................
   1    -84.3419985 -0.843420E+02  0.384E-03    0.22       0.0  T
   2    -84.3419990 -0.540945E-06  0.177E-03    0.22       8.7  T
   3    -84.3419989  0.114289E-06  0.152E-03    0.22      10.2  T
   4    -84.3419990 -0.646262E-07  0.134E-03    0.22      11.5  T
   5    -84.3419991 -0.146497E-06  0.263E-04    0.22      58.6  T
   6    -84.3419991 -0.185079E-08  0.554E-05    0.22     278.3  T
   7    -84.3419991 -0.742091E-10  0.190E-05    0.22     813.6  T
     SCC iter.                  ...        0 min,  0.038 sec
     gradient                   ...        0 min,  0.057 sec
 * total energy  :   -83.6088590 Eh     change       -0.6164687E-04 Eh
   gradient norm :     0.0037918 Eh/α   predicted    -0.4159455E-04 ( -32.53%)
   displ. norm   :     0.2237900 α      lambda       -0.8299975E-04
   maximum displ.:     0.1278885 α      in ANC's #2, #7, #4, ...

........................................................................
.............................. CYCLE   15 ..............................
........................................................................
   1    -84.3409412 -0.843409E+02  0.855E-03    0.22       0.0  T
   2    -84.3409168  0.244014E-04  0.170E-02    0.23       1.0  T
   3    -84.3409478 -0.309951E-04  0.159E-03    0.22       9.7  T
   4    -84.3409479 -0.504525E-07  0.100E-03    0.22      15.4  T
   5    -84.3409479 -0.265814E-07  0.264E-04    0.22      58.4  T
   6    -84.3409479 -0.306540E-08  0.582E-05    0.22     265.3  T
   7    -84.3409479 -0.103569E-09  0.206E-05    0.22     750.5  T
     SCC iter.                  ...        0 min,  0.038 sec
     gradient                   ...        0 min,  0.058 sec
 * total energy  :   -83.6089223 Eh     change       -0.6329266E-04 Eh
   gradient norm :     0.0041151 Eh/α   predicted    -0.4357935E-04 ( -31.15%)
   displ. norm   :     0.2505574 α      lambda       -0.9459304E-04
   maximum displ.:     0.1449994 α      in ANC's #2, #7, #4, ...

........................................................................
.............................. CYCLE   16 ..............................
........................................................................
   1    -84.3423236 -0.843423E+02  0.682E-03    0.22       0.0  T
   2    -84.3423237 -0.706360E-07  0.482E-03    0.23       3.2  T
   3    -84.3423233  0.398065E-06  0.505E-03    0.22       3.1  T
   4    -84.3423256 -0.236323E-05  0.118E-03    0.22      13.0  T
   5    -84.3423256  0.116247E-07  0.553E-04    0.22      27.9  T
   6    -84.3423257 -0.188486E-07  0.778E-05    0.22     198.2  T
   7    -84.3423257 -0.303643E-09  0.275E-05    0.22     560.5  T
     SCC iter.                  ...        0 min,  0.038 sec
     gradient                   ...        0 min,  0.056 sec
 * total energy  :   -83.6089888 Eh     change       -0.6659290E-04 Eh
   gradient norm :     0.0036284 Eh/α   predicted    -0.5026927E-04 ( -24.51%)
   displ. norm   :     0.3093633 α      lambda       -0.8899274E-04
   maximum displ.:     0.1863150 α      in ANC's #2, #7, #4, ...

........................................................................
.............................. CYCLE   17 ..............................
........................................................................
   1    -84.3403156 -0.843403E+02  0.132E-02    0.22       0.0  T
   2    -84.3402745  0.411053E-04  0.231E-02    0.24       1.0  T
   3    -84.3403298 -0.552630E-04  0.313E-03    0.23       4.9  T
   4    -84.3403303 -0.557491E-06  0.146E-03    0.23      10.6  T
   5    -84.3403304 -0.608660E-07  0.520E-04    0.23      29.7  T
   6    -84.3403304 -0.154490E-07  0.123E-04    0.23     125.7  T
   7    -84.3403304 -0.292445E-09  0.467E-05    0.23     330.5  T
     SCC iter.                  ...        0 min,  0.038 sec
     gradient                   ...        0 min,  0.057 sec
 * total energy  :   -83.6090562 Eh     change       -0.6739655E-04 Eh
   gradient norm :     0.0044552 Eh/α   predicted    -0.4875629E-04 ( -27.66%)
   displ. norm   :     0.3122953 α      lambda       -0.1014119E-03
   maximum displ.:     0.1979323 α      in ANC's #2, #7, #4, ...

........................................................................
.............................. CYCLE   18 ..............................
........................................................................
   1    -84.3403289 -0.843403E+02  0.671E-03    0.23       0.0  T
   2    -84.3403295 -0.617275E-06  0.445E-03    0.24       3.5  T
   3    -84.3403294  0.137917E-06  0.438E-03    0.23       3.5  T
   4    -84.3403312 -0.178128E-05  0.917E-04    0.23      16.8  T
   5    -84.3403312  0.463945E-08  0.566E-04    0.23      27.3  T
   6    -84.3403312 -0.167078E-07  0.131E-04    0.23     117.5  T
   7    -84.3403312 -0.524622E-09  0.328E-05    0.23     470.1  T
     SCC iter.                  ...        0 min,  0.038 sec
     gradient                   ...        0 min,  0.056 sec
 * total energy  :   -83.6091373 Eh     change       -0.8104561E-04 Eh
   gradient norm :     0.0048292 Eh/α   predicted    -0.5565417E-04 ( -31.33%)
   displ. norm   :     0.3084614 α      lambda       -0.1139686E-03
   maximum displ.:     0.2005343 α      in ANC's #2, #4, #7, ...

........................................................................
.............................. CYCLE   19 ..............................
........................................................................
   1    -84.3413362 -0.843413E+02  0.585E-03    0.24       0.0  T
   2    -84.3413315  0.468368E-05  0.839E-03    0.23       1.8  T
   3    -84.3413381 -0.662808E-05  0.227E-03    0.24       6.8  T
   4    -84.3413385 -0.382484E-06  0.124E-03    0.24      12.4  T
   5    -84.3413385 -0.394701E-07  0.531E-04    0.24      29.0  T
   6    -84.3413385 -0.179648E-07  0.895E-05    0.24     172.4  T
   7    -84.3413385 -0.257842E-09  0.268E-05    0.24     575.6  T
     SCC iter.                  ...        0 min,  0.037 sec
     gradient                   ...        0 min,  0.056 sec
 * total energy  :   -83.6092273 Eh     change       -0.8999834E-04 Eh
   gradient norm :     0.0049527 Eh/α   predicted    -0.6241053E-04 ( -30.65%)
   displ. norm   :     0.3515745 α      lambda       -0.1131294E-03
   maximum displ.:     0.2329358 α      in ANC's #2, #4, #7, ...

........................................................................
.............................. CYCLE   20 ..............................
........................................................................
   1    -84.3413802 -0.843414E+02  0.982E-03    0.25       0.0  T
   2    -84.3413472  0.329740E-04  0.199E-02    0.23       1.0  T
   3    -84.3413897 -0.425100E-04  0.173E-03    0.25       8.9  T
   4    -84.3413898 -0.431612E-07  0.130E-03    0.25      11.9  T
   5    -84.3413898 -0.280551E-07  0.733E-04    0.25      21.1  T
   6    -84.3413898 -0.390176E-07  0.161E-04    0.25      95.9  T
   7    -84.3413898 -0.136158E-08  0.302E-05    0.25     510.6  T
     SCC iter.                  ...        0 min,  0.038 sec
     gradient                   ...        0 min,  0.057 sec
 * total energy  :   -83.6093129 Eh     change       -0.8560306E-04 Eh
   gradient norm :     0.0048235 Eh/α   predicted    -0.6356114E-04 ( -25.75%)
   displ. norm   :     0.3258260 α      lambda       -0.9533984E-04
   maximum displ.:     0.2163609 α      in ANC's #2, #4, #5, ...
 * RMSD in coord.:     0.5536364 α      energy gain  -0.2697040E-01 Eh

generating ANC from model Hessian ...
Using Lindh-Hessian (1995)
 Shifting diagonal of input Hessian by   9.840602809635878E-003
 Lowest  eigenvalues of input Hessian
    0.000000    0.000000    0.000000    0.000000    0.000000    0.000000
    0.010000    0.010104    0.011102    0.011359    0.011733    0.012322
    0.012607    0.013305    0.013650    0.014800    0.016069    0.018273
 Highest eigenvalues
    2.028393    2.120219    2.133198    2.180354    2.230646    2.395873
 

........................................................................
.............................. CYCLE   21 ..............................
........................................................................
   1    -84.3421350 -0.843421E+02  0.662E-03    0.25       0.0  T
   2    -84.3421292  0.586568E-05  0.878E-03    0.24       1.8  T
   3    -84.3421368 -0.763252E-05  0.317E-03    0.25       4.9  T
   4    -84.3421375 -0.697739E-06  0.964E-04    0.25      16.0  T
   5    -84.3421375 -0.162237E-08  0.336E-04    0.25      45.9  T
   6    -84.3421375 -0.545855E-08  0.617E-05    0.25     250.3  T
   7    -84.3421375 -0.837872E-10  0.276E-05    0.25     559.9  T
     SCC iter.                  ...        0 min,  0.037 sec
     gradient                   ...        0 min,  0.055 sec
 * total energy  :   -83.6093776 Eh     change       -0.6470946E-04 Eh
   gradient norm :     0.0041385 Eh/α   predicted     0.0000000E+00 (-100.00%)
   displ. norm   :     0.0237972 α      lambda       -0.2476853E-04
   maximum displ.:     0.0096710 α      in ANC's #17, #2, #25, ...

........................................................................
.............................. CYCLE   22 ..............................
........................................................................
   1    -84.3424320 -0.843424E+02  0.312E-03    0.25       0.0  T
   2    -84.3424311  0.893236E-06  0.361E-03    0.25       4.3  T
   3    -84.3424323 -0.119395E-05  0.166E-03    0.25       9.3  T
   4    -84.3424325 -0.214717E-06  0.467E-04    0.25      33.0  T
   5    -84.3424325 -0.178774E-08  0.118E-04    0.25     130.5  T
   6    -84.3424325 -0.230244E-09  0.282E-05    0.25     546.7  T
     SCC iter.                  ...        0 min,  0.032 sec
     gradient                   ...        0 min,  0.055 sec
 * total energy  :   -83.6094006 Eh     change       -0.2296352E-04 Eh
   gradient norm :     0.0020747 Eh/α   predicted    -0.1507297E-04 ( -34.36%)
   displ. norm   :     0.0467110 α      lambda       -0.2601825E-04
   maximum displ.:     0.0224548 α      in ANC's #17, #2, #5, ...

........................................................................
.............................. CYCLE   23 ..............................
........................................................................
   1    -84.3426904 -0.843427E+02  0.499E-03    0.25       0.0  T
   2    -84.3426859  0.452281E-05  0.758E-03    0.25       2.0  T
   3    -84.3426921 -0.619718E-05  0.183E-03    0.25       8.5  T
   4    -84.3426923 -0.229555E-06  0.605E-04    0.25      25.5  T
   5    -84.3426923 -0.772212E-08  0.183E-04    0.25      84.1  T
   6    -84.3426923 -0.535962E-09  0.397E-05    0.25     388.9  T
     SCC iter.                  ...        0 min,  0.032 sec
     gradient                   ...        0 min,  0.057 sec
 * total energy  :   -83.6094175 Eh     change       -0.1692678E-04 Eh
   gradient norm :     0.0010825 Eh/α   predicted    -0.1357917E-04 ( -19.78%)
   displ. norm   :     0.0565323 α      lambda       -0.8975844E-05
   maximum displ.:     0.0287972 α      in ANC's #2, #17, #5, ...

........................................................................
.............................. CYCLE   24 ..............................
........................................................................
   1    -84.3427128 -0.843427E+02  0.380E-03    0.25       0.0  T
   2    -84.3427092  0.357961E-05  0.673E-03    0.25       2.3  T
   3    -84.3427142 -0.495101E-05  0.897E-04    0.25      17.2  T
   4    -84.3427142 -0.335304E-07  0.363E-04    0.25      42.5  T
   5    -84.3427142 -0.281133E-09  0.152E-04    0.25     101.6  T
   6    -84.3427142 -0.227828E-09  0.396E-05    0.25     390.0  T
     SCC iter.                  ...        0 min,  0.032 sec
     gradient                   ...        0 min,  0.055 sec
 * total energy  :   -83.6094275 Eh     change       -0.1004238E-04 Eh
   gradient norm :     0.0016573 Eh/α   predicted    -0.4585759E-05 ( -54.34%)
   displ. norm   :     0.0979663 α      lambda       -0.1415544E-04
   maximum displ.:     0.0510648 α      in ANC's #2, #17, #5, ...

........................................................................
.............................. CYCLE   25 ..............................
........................................................................
   1    -84.3425745 -0.843426E+02  0.409E-03    0.25       0.0  T
   2    -84.3425704  0.417085E-05  0.738E-03    0.25       2.1  T
   3    -84.3425762 -0.585178E-05  0.915E-04    0.25      16.9  T
   4    -84.3425762 -0.167911E-07  0.482E-04    0.25      32.0  T
   5    -84.3425762 -0.319559E-08  0.210E-04    0.25      73.4  T
   6    -84.3425762 -0.133812E-08  0.487E-05    0.25     316.8  T
   7    -84.3425762 -0.336939E-10  0.139E-05    0.25    1108.5  T
     SCC iter.                  ...        0 min,  0.037 sec
     gradient                   ...        0 min,  0.056 sec
 * total energy  :   -83.6094444 Eh     change       -0.1690437E-04 Eh
   gradient norm :     0.0017404 Eh/α   predicted    -0.7108456E-05 ( -57.95%)
   displ. norm   :     0.1948895 α      lambda       -0.2330879E-04
   maximum displ.:     0.1037620 α      in ANC's #2, #17, #5, ...

........................................................................
.............................. CYCLE   26 ..............................
........................................................................
   1    -84.3421848 -0.843422E+02  0.406E-03    0.26       0.0  T
   2    -84.3421832  0.161621E-05  0.538E-03    0.25       2.9  T
   3    -84.3421859 -0.275397E-05  0.152E-03    0.25      10.2  T
   4    -84.3421860 -0.130344E-06  0.815E-04    0.25      18.9  T
   5    -84.3421861 -0.208534E-07  0.286E-04    0.25      54.0  T
   6    -84.3421861 -0.288058E-08  0.621E-05    0.25     248.6  T
   7    -84.3421861 -0.606661E-10  0.205E-05    0.25     753.1  T
     SCC iter.                  ...        0 min,  0.038 sec
     gradient                   ...        0 min,  0.057 sec
 * total energy  :   -83.6094704 Eh     change       -0.2597816E-04 Eh
   gradient norm :     0.0022490 Eh/α   predicted    -0.1186299E-04 ( -54.33%)
   displ. norm   :     0.1626852 α      lambda       -0.2592786E-04
   maximum displ.:     0.0899236 α      in ANC's #2, #17, #5, ...

........................................................................
.............................. CYCLE   27 ..............................
........................................................................
   1    -84.3420055 -0.843420E+02  0.234E-03    0.26       0.0  T
   2    -84.3420056 -0.184935E-06  0.111E-03    0.26      13.9  T
   3    -84.3420057 -0.312394E-07  0.588E-04    0.26      26.2  T
   4    -84.3420057  0.321255E-08  0.356E-04    0.26      43.4  T
   5    -84.3420057 -0.813245E-09  0.320E-04    0.26      48.2  T
   6    -84.3420057 -0.100216E-07  0.383E-05    0.26     403.3  T
   7    -84.3420057 -0.161577E-10  0.121E-05    0.26    1272.2  T
     SCC iter.                  ...        0 min,  0.039 sec
     gradient                   ...        0 min,  0.057 sec
 * total energy  :   -83.6094910 Eh     change       -0.2060083E-04 Eh
   gradient norm :     0.0023578 Eh/α   predicted    -0.1330713E-04 ( -35.40%)
   displ. norm   :     0.2042223 α      lambda       -0.3317017E-04
   maximum displ.:     0.1164612 α      in ANC's #2, #17, #5, ...

........................................................................
.............................. CYCLE   28 ..............................
........................................................................
   1    -84.3419486 -0.843419E+02  0.464E-03    0.26       0.0  T
   2    -84.3419453  0.327433E-05  0.694E-03    0.26       2.2  T
   3    -84.3419502 -0.487754E-05  0.127E-03    0.26      12.2  T
   4    -84.3419503 -0.895110E-07  0.529E-04    0.26      29.1  T
   5    -84.3419503 -0.396510E-08  0.221E-04    0.26      69.8  T
   6    -84.3419503 -0.304003E-08  0.601E-05    0.26     256.6  T
   7    -84.3419503 -0.878089E-10  0.168E-05    0.26     920.5  T
     SCC iter.                  ...        0 min,  0.037 sec
     gradient                   ...        0 min,  0.056 sec
 * total energy  :   -83.6095177 Eh     change       -0.2668657E-04 Eh
   gradient norm :     0.0023151 Eh/α   predicted    -0.1727777E-04 ( -35.26%)
   displ. norm   :     0.2508523 α      lambda       -0.4522295E-04
   maximum displ.:     0.1464890 α      in ANC's #2, #17, #1, ...

........................................................................
.............................. CYCLE   29 ..............................
........................................................................
   1    -84.3419847 -0.843420E+02  0.794E-03    0.25       0.0  T
   2    -84.3419705  0.141478E-04  0.139E-02    0.27       1.1  T
   3    -84.3419908 -0.202692E-04  0.129E-03    0.26      12.0  T
   4    -84.3419908 -0.227060E-07  0.709E-04    0.26      21.8  T
   5    -84.3419908 -0.910970E-08  0.296E-04    0.26      52.2  T
   6    -84.3419908 -0.557942E-08  0.736E-05    0.26     209.7  T
   7    -84.3419908 -0.721485E-10  0.280E-05    0.26     551.1  T
     SCC iter.                  ...        0 min,  0.038 sec
     gradient                   ...        0 min,  0.058 sec
 * total energy  :   -83.6095521 Eh     change       -0.3441362E-04 Eh
   gradient norm :     0.0025879 Eh/α   predicted    -0.2403582E-04 ( -30.16%)
   displ. norm   :     0.1961605 α      lambda       -0.4590259E-04
   maximum displ.:     0.1189529 α      in ANC's #2, #1, #17, ...

........................................................................
.............................. CYCLE   30 ..............................
........................................................................
   1    -84.3428130 -0.843428E+02  0.843E-03    0.26       0.0  T
   2    -84.3427943  0.186927E-04  0.157E-02    0.27       1.0  T
   3    -84.3428204 -0.260997E-04  0.137E-03    0.26      11.3  T
   4    -84.3428204 -0.283313E-08  0.804E-04    0.26      19.2  T
   5    -84.3428205 -0.151152E-07  0.288E-04    0.26      53.6  T
   6    -84.3428205 -0.457509E-08  0.651E-05    0.26     237.0  T
   7    -84.3428205 -0.110646E-09  0.259E-05    0.26     596.1  T
     SCC iter.                  ...        0 min,  0.038 sec
     gradient                   ...        0 min,  0.057 sec
 * total energy  :   -83.6095869 Eh     change       -0.3478329E-04 Eh
   gradient norm :     0.0026873 Eh/α   predicted    -0.2383796E-04 ( -31.47%)
   displ. norm   :     0.2789061 α      lambda       -0.5373749E-04
   maximum displ.:     0.1666587 α      in ANC's #2, #17, #1, ...

........................................................................
.............................. CYCLE   31 ..............................
........................................................................
   1    -84.3423161 -0.843423E+02  0.819E-03    0.26       0.0  T
   2    -84.3423002  0.159686E-04  0.147E-02    0.27       1.1  T
   3    -84.3423226 -0.224206E-04  0.142E-03    0.26      10.9  T
   4    -84.3423226 -0.161186E-07  0.892E-04    0.26      17.3  T
   5    -84.3423226 -0.301102E-07  0.320E-04    0.26      48.2  T
   6    -84.3423226 -0.351720E-08  0.744E-05    0.26     207.5  T
   7    -84.3423226 -0.105672E-09  0.293E-05    0.26     526.5  T
     SCC iter.                  ...        0 min,  0.038 sec
     gradient                   ...        0 min,  0.058 sec
 * total energy  :   -83.6096314 Eh     change       -0.4453176E-04 Eh
   gradient norm :     0.0034042 Eh/α   predicted    -0.2896026E-04 ( -34.97%)
   displ. norm   :     0.4394140 α      lambda       -0.1236487E-03
   maximum displ.:     0.2583436 α      in ANC's #2, #3, #1, ...

........................................................................
.............................. CYCLE   32 ..............................
........................................................................
   1    -84.3425430 -0.843425E+02  0.134E-02    0.25       0.0  T
   2    -84.3424977  0.452921E-04  0.246E-02    0.28       1.0  T
   3    -84.3425610 -0.632707E-04  0.229E-03    0.26       6.7  T
   4    -84.3425610  0.384348E-07  0.163E-03    0.26       9.5  T
   5    -84.3425611 -0.131070E-06  0.553E-04    0.26      27.9  T
   6    -84.3425611 -0.648477E-08  0.112E-04    0.26     137.7  T
   7    -84.3425611 -0.219870E-09  0.513E-05    0.26     300.8  T
     SCC iter.                  ...        0 min,  0.036 sec
     gradient                   ...        0 min,  0.056 sec
 * total energy  :   -83.6097216 Eh     change       -0.9018791E-04 Eh
   gradient norm :     0.0044586 Eh/α   predicted    -0.7376093E-04 ( -18.21%)
   displ. norm   :     0.4204374 α      lambda       -0.9004303E-04
   maximum displ.:     0.2543918 α      in ANC's #2, #1, #3, ...

........................................................................
.............................. CYCLE   33 ..............................
........................................................................
   1    -84.3401529 -0.843402E+02  0.913E-03    0.26       0.0  T
   2    -84.3401497  0.316310E-05  0.931E-03    0.26       1.7  T
   3    -84.3401549 -0.515631E-05  0.512E-03    0.25       3.0  T
   4    -84.3401569 -0.202568E-05  0.211E-03    0.26       7.3  T
   5    -84.3401572 -0.250656E-06  0.594E-04    0.26      26.0  T
   6    -84.3401572 -0.100952E-07  0.123E-04    0.26     125.4  T
   7    -84.3401572 -0.592991E-09  0.395E-05    0.26     390.3  T
     SCC iter.                  ...        0 min,  0.037 sec
     gradient                   ...        0 min,  0.058 sec
 * total energy  :   -83.6097677 Eh     change       -0.4610921E-04 Eh
   gradient norm :     0.0067283 Eh/α   predicted    -0.5298702E-04 (  14.92%)
   displ. norm   :     0.2646587 α      lambda       -0.1845281E-03
   maximum displ.:     0.1151968 α      in ANC's #2, #16, #15, ...

........................................................................
.............................. CYCLE   34 ..............................
........................................................................
   1    -84.3428054 -0.843428E+02  0.192E-02    0.27       0.0  T
   2    -84.3426742  0.131156E-03  0.380E-02    0.24       1.0  T
   3    -84.3428353 -0.161117E-03  0.629E-03    0.26       2.5  T
   4    -84.3428369 -0.157759E-05  0.288E-03    0.26       5.4  T
   5    -84.3428369 -0.280077E-07  0.117E-03    0.26      13.2  T
   6    -84.3428370 -0.107242E-06  0.247E-04    0.26      62.5  T
   7    -84.3428370 -0.284251E-08  0.596E-05    0.26     258.8  T
   8    -84.3428370 -0.133525E-09  0.173E-05    0.26     893.9  T
     SCC iter.                  ...        0 min,  0.041 sec
     gradient                   ...        0 min,  0.057 sec
 * total energy  :   -83.6098121 Eh     change       -0.4432183E-04 Eh
   gradient norm :     0.0056411 Eh/α   predicted    -0.9873509E-04 ( 122.77%)
   displ. norm   :     0.1223299 α      lambda       -0.9717318E-04
   maximum displ.:     0.0744088 α      in ANC's #2, #17, #1, ...

........................................................................
.............................. CYCLE   35 ..............................
........................................................................
   1    -84.3421990 -0.843422E+02  0.583E-03    0.26       0.0  T
   2    -84.3421982  0.745751E-06  0.462E-03    0.26       3.3  T
   3    -84.3421979  0.310082E-06  0.422E-03    0.26       3.7  T
   4    -84.3421995 -0.162460E-05  0.127E-03    0.26      12.2  T
   5    -84.3421996 -0.755563E-07  0.270E-04    0.26      57.1  T
   6    -84.3421996 -0.165609E-08  0.638E-05    0.26     241.8  T
   7    -84.3421996 -0.530633E-10  0.160E-05    0.26     966.4  T
     SCC iter.                  ...        0 min,  0.036 sec
     gradient                   ...        0 min,  0.057 sec
 * total energy  :   -83.6098772 Eh     change       -0.6517878E-04 Eh
   gradient norm :     0.0026575 Eh/α   predicted    -0.4931695E-04 ( -24.34%)
   displ. norm   :     0.1435980 α      lambda       -0.5344820E-04
   maximum displ.:     0.0968282 α      in ANC's #2, #1, #17, ...

........................................................................
.............................. CYCLE   36 ..............................
........................................................................
   1    -84.3422844 -0.843423E+02  0.524E-03    0.26       0.0  T
   2    -84.3422786  0.576706E-05  0.857E-03    0.25       1.8  T
   3    -84.3422864 -0.774992E-05  0.180E-03    0.26       8.6  T
   4    -84.3422865 -0.153595E-06  0.949E-04    0.26      16.3  T
   5    -84.3422865 -0.204592E-07  0.353E-04    0.26      43.7  T
   6    -84.3422865 -0.591291E-08  0.535E-05    0.26     288.6  T
   7    -84.3422865 -0.534470E-10  0.158E-05    0.26     975.0  T
     SCC iter.                  ...        0 min,  0.036 sec
     gradient                   ...        0 min,  0.058 sec
 * total energy  :   -83.6099164 Eh     change       -0.3914625E-04 Eh
   gradient norm :     0.0028615 Eh/α   predicted    -0.2728236E-04 ( -30.31%)
   displ. norm   :     0.1621898 α      lambda       -0.4990814E-04
   maximum displ.:     0.1091570 α      in ANC's #2, #1, #17, ...

........................................................................
.............................. CYCLE   37 ..............................
........................................................................
   1    -84.3428118 -0.843428E+02  0.581E-03    0.26       0.0  T
   2    -84.3428021  0.968062E-05  0.107E-02    0.25       1.4  T
   3    -84.3428148 -0.126639E-04  0.152E-03    0.26      10.1  T
   4    -84.3428149 -0.130556E-06  0.700E-04    0.26      22.0  T
   5    -84.3428149 -0.184329E-08  0.341E-04    0.26      45.3  T
   6    -84.3428149 -0.516832E-08  0.579E-05    0.26     266.7  T
   7    -84.3428149 -0.837872E-10  0.167E-05    0.26     923.8  T
     SCC iter.                  ...        0 min,  0.036 sec
     gradient                   ...        0 min,  0.059 sec
 * total energy  :   -83.6099525 Eh     change       -0.3608985E-04 Eh
   gradient norm :     0.0034510 Eh/α   predicted    -0.2561470E-04 ( -29.03%)
   displ. norm   :     0.1958663 α      lambda       -0.4191137E-04
   maximum displ.:     0.1364309 α      in ANC's #2, #1, #17, ...

........................................................................
.............................. CYCLE   38 ..............................
........................................................................
   1    -84.3423926 -0.843424E+02  0.237E-03    0.26       0.0  T
   2    -84.3423928 -0.191548E-06  0.112E-03    0.26      13.7  T
   3    -84.3423928 -0.280474E-08  0.696E-04    0.26      22.2  T
   4    -84.3423928  0.353008E-07  0.789E-04    0.26      19.6  T
   5    -84.3423928 -0.467756E-07  0.269E-04    0.26      57.3  T
   6    -84.3423928 -0.746485E-08  0.464E-05    0.26     332.9  T
   7    -84.3423928 -0.596003E-10  0.153E-05    0.26    1006.5  T
     SCC iter.                  ...        0 min,  0.037 sec
     gradient                   ...        0 min,  0.053 sec
 * total energy  :   -83.6099854 Eh     change       -0.3289875E-04 Eh
   gradient norm :     0.0034252 Eh/α   predicted    -0.2176114E-04 ( -33.85%)
   displ. norm   :     0.1884024 α      lambda       -0.5008615E-04
   maximum displ.:     0.1323058 α      in ANC's #2, #1, #7, ...

........................................................................
.............................. CYCLE   39 ..............................
........................................................................
   1    -84.3433296 -0.843433E+02  0.402E-03    0.25       0.0  T
   2    -84.3433300 -0.385172E-06  0.225E-03    0.25       6.9  T
   3    -84.3433300 -0.718656E-07  0.119E-03    0.25      13.0  T
   4    -84.3433300  0.162784E-07  0.594E-04    0.25      26.0  T
   5    -84.3433300  0.203174E-07  0.647E-04    0.25      23.8  T
   6    -84.3433301 -0.467807E-07  0.491E-05    0.25     314.2  T
   7    -84.3433301 -0.354134E-10  0.201E-05    0.25     765.8  T
     SCC iter.                  ...        0 min,  0.041 sec
     gradient                   ...        0 min,  0.064 sec
 * total energy  :   -83.6100182 Eh     change       -0.3279031E-04 Eh
   gradient norm :     0.0020383 Eh/α   predicted    -0.2593699E-04 ( -20.90%)
   displ. norm   :     0.2886856 α      lambda       -0.4392693E-04
   maximum displ.:     0.2024434 α      in ANC's #2, #1, #17, ...

........................................................................
.............................. CYCLE   40 ..............................
........................................................................
   1    -84.3412093 -0.843412E+02  0.102E-02    0.24       0.0  T
   2    -84.3411733  0.360603E-04  0.209E-02    0.26       1.0  T
   3    -84.3412207 -0.474008E-04  0.230E-03    0.25       6.7  T
   4    -84.3412208 -0.101452E-06  0.108E-03    0.25      14.3  T
   5    -84.3412208 -0.261757E-07  0.309E-04    0.25      49.9  T
   6    -84.3412208 -0.686146E-08  0.747E-05    0.25     206.5  T
   7    -84.3412208 -0.214499E-09  0.320E-05    0.25     481.9  T
     SCC iter.                  ...        0 min,  0.039 sec
     gradient                   ...        0 min,  0.063 sec
 * total energy  :   -83.6100423 Eh     change       -0.2415894E-04 Eh
   gradient norm :     0.0029095 Eh/α   predicted    -0.2379442E-04 (  -1.51%)
   displ. norm   :     0.1131901 α      lambda       -0.2670203E-04
   maximum displ.:     0.0840210 α      in ANC's #2, #1, #17, ...

........................................................................
.............................. CYCLE   41 ..............................
........................................................................
   1    -84.3422050 -0.843422E+02  0.384E-03    0.25       0.0  T
   2    -84.3422020  0.308146E-05  0.632E-03    0.25       2.4  T
   3    -84.3422062 -0.425747E-05  0.136E-03    0.25      11.4  T
   4    -84.3422063 -0.792053E-07  0.681E-04    0.25      22.7  T
   5    -84.3422063 -0.105031E-07  0.203E-04    0.25      76.1  T
   6    -84.3422063 -0.644775E-09  0.542E-05    0.25     284.4  T
   7    -84.3422063 -0.169464E-09  0.130E-05    0.25    1187.7  T
     SCC iter.                  ...        0 min,  0.040 sec
     gradient                   ...        0 min,  0.063 sec
 * total energy  :   -83.6100630 Eh     change       -0.2070832E-04 Eh
   gradient norm :     0.0020508 Eh/α   predicted    -0.1352255E-04 ( -34.70%)
   displ. norm   :     0.1962097 α      lambda       -0.3229934E-04
   maximum displ.:     0.1448972 α      in ANC's #2, #1, #17, ...

........................................................................
.............................. CYCLE   42 ..............................
........................................................................
   1    -84.3432257 -0.843432E+02  0.326E-03    0.25       0.0  T
   2    -84.3432255  0.120446E-06  0.256E-03    0.25       6.0  T
   3    -84.3432256 -0.858881E-07  0.218E-03    0.25       7.1  T
   4    -84.3432261 -0.451046E-06  0.684E-04    0.25      22.6  T
   5    -84.3432261 -0.168981E-07  0.186E-04    0.25      82.9  T
   6    -84.3432261 -0.723887E-09  0.563E-05    0.25     273.9  T
     SCC iter.                  ...        0 min,  0.034 sec
     gradient                   ...        0 min,  0.062 sec
 * total energy  :   -83.6100878 Eh     change       -0.2475865E-04 Eh
   gradient norm :     0.0021530 Eh/α   predicted    -0.1677484E-04 ( -32.25%)
   displ. norm   :     0.2712082 α      lambda       -0.3429502E-04
   maximum displ.:     0.2003951 α      in ANC's #2, #1, #17, ...
 * RMSD in coord.:     0.5929934 α      energy gain  -0.7748895E-03 Eh

generating ANC from model Hessian ...
Using Lindh-Hessian (1995)
 Shifting diagonal of input Hessian by   9.846760964943788E-003
 Lowest  eigenvalues of input Hessian
    0.000000    0.000000    0.000000    0.000000    0.000000    0.000000
    0.010000    0.010119    0.011133    0.011311    0.011700    0.012290
    0.012584    0.013285    0.013660    0.014730    0.016010    0.018287
 Highest eigenvalues
    2.026661    2.122915    2.132968    2.181015    2.232230    2.397463
 

........................................................................
.............................. CYCLE   43 ..............................
........................................................................
   1    -84.3432659 -0.843433E+02  0.380E-03    0.24       0.0  T
   2    -84.3432634  0.248811E-05  0.578E-03    0.25       2.7  T
   3    -84.3432668 -0.337819E-05  0.139E-03    0.24      11.1  T
   4    -84.3432669 -0.121501E-06  0.658E-04    0.25      23.4  T
   5    -84.3432669 -0.184668E-07  0.194E-04    0.25      79.7  T
   6    -84.3432669 -0.550656E-09  0.491E-05    0.25     314.5  T
     SCC iter.                  ...        0 min,  0.035 sec
     gradient                   ...        0 min,  0.063 sec
 * total energy  :   -83.6101130 Eh     change       -0.2519291E-04 Eh
   gradient norm :     0.0026620 Eh/α   predicted     0.0000000E+00 (-100.00%)
   displ. norm   :     0.0219579 α      lambda       -0.1465971E-04
   maximum displ.:     0.0115896 α      in ANC's #17, #6, #3, ...

........................................................................
.............................. CYCLE   44 ..............................
........................................................................
   1    -84.3434866 -0.843435E+02  0.358E-03    0.25       0.0  T
   2    -84.3434821  0.455261E-05  0.715E-03    0.24       2.2  T
   3    -84.3434879 -0.580043E-05  0.884E-04    0.25      17.5  T
   4    -84.3434879 -0.340513E-07  0.412E-04    0.25      37.5  T
   5    -84.3434879 -0.893550E-09  0.172E-04    0.25      89.7  T
   6    -84.3434879 -0.103120E-08  0.325E-05    0.25     475.2  T
     SCC iter.                  ...        0 min,  0.035 sec
     gradient                   ...        0 min,  0.063 sec
 * total energy  :   -83.6101266 Eh     change       -0.1363191E-04 Eh
   gradient norm :     0.0014579 Eh/α   predicted    -0.8453696E-05 ( -37.99%)
   displ. norm   :     0.0941664 α      lambda       -0.2761185E-04
   maximum displ.:     0.0494034 α      in ANC's #17, #6, #3, ...

........................................................................
.............................. CYCLE   45 ..............................
........................................................................
   1    -84.3436940 -0.843437E+02  0.112E-02    0.26       0.0  T
   2    -84.3436412  0.527760E-04  0.241E-02    0.23       1.0  T
   3    -84.3437075 -0.662910E-04  0.258E-03    0.25       6.0  T
   4    -84.3437078 -0.323708E-06  0.117E-03    0.25      13.2  T
   5    -84.3437078  0.834417E-08  0.698E-04    0.25      22.1  T
   6    -84.3437078 -0.247361E-07  0.114E-04    0.25     135.0  T
   7    -84.3437078 -0.349644E-09  0.272E-05    0.25     567.6  T
     SCC iter.                  ...        0 min,  0.041 sec
     gradient                   ...        0 min,  0.064 sec
 * total energy  :   -83.6101458 Eh     change       -0.1920666E-04 Eh
   gradient norm :     0.0022475 Eh/α   predicted    -0.1386070E-04 ( -27.83%)
   displ. norm   :     0.0227608 α      lambda       -0.7823942E-05
   maximum displ.:     0.0114709 α      in ANC's #6, #17, #3, ...

........................................................................
.............................. CYCLE   46 ..............................
........................................................................
   1    -84.3436199 -0.843436E+02  0.797E-04    0.25       0.0  T
   2    -84.3436199 -0.860739E-08  0.395E-04    0.25      39.1  T
   3    -84.3436199  0.717209E-08  0.360E-04    0.25      42.8  T
   4    -84.3436199 -0.103417E-08  0.282E-04    0.25      54.7  T
   5    -84.3436199 -0.823256E-08  0.320E-05    0.25     482.7  T
   6    -84.3436199 -0.218563E-10  0.828E-06    0.25    1862.5  T
     SCC iter.                  ...        0 min,  0.035 sec
     gradient                   ...        0 min,  0.063 sec
 * total energy  :   -83.6101526 Eh     change       -0.6823819E-05 Eh
   gradient norm :     0.0016489 Eh/α   predicted    -0.3914178E-05 ( -42.64%)
   displ. norm   :     0.1460843 α      lambda       -0.2382850E-04
   maximum displ.:     0.0710384 α      in ANC's #6, #3, #17, ...

........................................................................
.............................. CYCLE   47 ..............................
........................................................................
   1    -84.3430192 -0.843430E+02  0.487E-03    0.25       0.0  T
   2    -84.3430169  0.223949E-05  0.556E-03    0.25       2.8  T
   3    -84.3430196 -0.263955E-05  0.276E-03    0.25       5.6  T
   4    -84.3430202 -0.645219E-06  0.766E-04    0.25      20.2  T
   5    -84.3430202 -0.844004E-08  0.183E-04    0.25      84.4  T
   6    -84.3430202 -0.912152E-09  0.484E-05    0.25     318.8  T
     SCC iter.                  ...        0 min,  0.035 sec
     gradient                   ...        0 min,  0.063 sec
 * total energy  :   -83.6101663 Eh     change       -0.1368337E-04 Eh
   gradient norm :     0.0021592 Eh/α   predicted    -0.1205266E-04 ( -11.92%)
   displ. norm   :     0.0112343 α      lambda       -0.6272014E-05
   maximum displ.:     0.0064133 α      in ANC's #3, #2, #1, ...

........................................................................
.............................. CYCLE   48 ..............................
........................................................................
   1    -84.3432483 -0.843432E+02  0.948E-04    0.25       0.0  T
   2    -84.3432483  0.911365E-07  0.120E-03    0.25      12.9  T
   3    -84.3432484 -0.125993E-06  0.456E-04    0.25      33.8  T
   4    -84.3432484 -0.919765E-08  0.223E-04    0.25      69.3  T
   5    -84.3432484 -0.127956E-08  0.546E-05    0.25     282.4  T
   6    -84.3432484 -0.113758E-09  0.119E-05    0.25    1295.5  T
     SCC iter.                  ...        0 min,  0.034 sec
     gradient                   ...        0 min,  0.062 sec
 * total energy  :   -83.6101715 Eh     change       -0.5146950E-05 Eh
   gradient norm :     0.0014161 Eh/α   predicted    -0.3142819E-05 ( -38.94%)
   displ. norm   :     0.0699334 α      lambda       -0.1172240E-04
   maximum displ.:     0.0399831 α      in ANC's #3, #17, #2, ...

........................................................................
.............................. CYCLE   49 ..............................
........................................................................
   1    -84.3438577 -0.843439E+02  0.347E-03    0.25       0.0  T
   2    -84.3438559  0.184144E-05  0.510E-03    0.25       3.0  T
   3    -84.3438585 -0.261989E-05  0.138E-03    0.25      11.2  T
   4    -84.3438586 -0.603411E-07  0.766E-04    0.25      20.1  T
   5    -84.3438586 -0.161792E-07  0.199E-04    0.25      77.7  T
   6    -84.3438586 -0.690008E-09  0.408E-05    0.25     378.0  T
     SCC iter.                  ...        0 min,  0.035 sec
     gradient                   ...        0 min,  0.063 sec
 * total energy  :   -83.6101791 Eh     change       -0.7669666E-05 Eh
   gradient norm :     0.0011338 Eh/α   predicted    -0.5874113E-05 ( -23.41%)
   displ. norm   :     0.0495222 α      lambda       -0.3404543E-05
   maximum displ.:     0.0272548 α      in ANC's #3, #17, #2, ...

........................................................................
.............................. CYCLE   50 ..............................
........................................................................
   1    -84.3435928 -0.843436E+02  0.107E-03    0.25       0.0  T
   2    -84.3435927  0.110801E-06  0.125E-03    0.25      12.3  T
   3    -84.3435928 -0.134667E-06  0.582E-04    0.25      26.5  T
   4    -84.3435929 -0.253280E-07  0.201E-04    0.25      76.6  T
   5    -84.3435929 -0.107462E-08  0.578E-05    0.25     267.1  T
   6    -84.3435929 -0.147892E-09  0.151E-05    0.25    1021.0  T
     SCC iter.                  ...        0 min,  0.035 sec
     gradient                   ...        0 min,  0.063 sec
 * total energy  :   -83.6101834 Eh     change       -0.4298869E-05 Eh
   gradient norm :     0.0006215 Eh/α   predicted    -0.1705055E-05 ( -60.34%)
   displ. norm   :     0.1218579 α      lambda       -0.7145849E-05
   maximum displ.:     0.0668985 α      in ANC's #3, #17, #2, ...

   *** GEOMETRY OPTIMIZATION CONVERGED AFTER 50 ITERATIONS ***

------------------------------------------------------------------------
 total energy gain   :        -0.0278409 Eh      -17.4705 kcal/mol
 total RMSD          :         1.0361804 a0        0.5483 Å
 total power (kW/mol):        -1.4619276 (step)  -11.4247 (real)
------------------------------------------------------------------------

 ANCopt (total)                0 d,  0 h,  0 min,  6.398 sec
 optimizer setup                ...        0 min,  0.001 sec (  0.010%)
 model hessian                  ...        0 min,  0.060 sec (  0.930%)
 ANC generation                 ...        0 min,  0.008 sec (  0.126%)
 coordinate transformation      ...        0 min,  0.001 sec (  0.017%)
 single point calculation       ...        0 min,  6.311 sec ( 98.646%)
 optimization log               ...        0 min,  0.009 sec (  0.138%)
 hessian update                 ...        0 min,  0.001 sec (  0.016%)
 rational function              ...        0 min,  0.005 sec (  0.075%)

================
 final structure:
================
42
 xtb: 6.5.1 (579679a)
C           -5.54092437710305        1.92723909323688       -1.17578767203950
O           -4.56900528041613        1.51779393932817       -0.23954189715691
C           -3.55410774751178        0.69627232628184       -0.75720243535769
O           -3.60347492519152        0.41368778205157       -1.97392145446686
C           -2.56273358006820        0.30022259684131        0.15904191062558
N           -1.63850759639639       -0.55826241532070       -0.38560832693761
C           -0.62400417751044       -0.99154745440546        0.27409618056126
C            0.34449941390999       -1.96309545593202       -0.37073940473715
C            0.68251789377471       -3.14600406533912        0.54232867087888
C           -0.25604320102204       -2.48198853906403       -1.68066878966149
N            1.57400193028371       -1.22643238377231       -0.74681644036653
C            2.59588438660254       -0.88454283470596        0.06065227630701
O            2.74675876087379       -1.23181038541646        1.23018937938224
C            3.55235624623017       -0.00550466459921       -0.64641249171990
N            3.40048376462778        0.49265525262571       -1.84437416600989
N            4.51102009452601        1.24700784872466       -2.09955670252961
C            5.26676415762760        1.16136320206973       -1.05035386452812
C            6.58415939052522        1.80134918710129       -0.83518133736076
O            4.72229960496090        0.39009931324483       -0.09384482543970
N           -0.29265324383601       -0.48881888783290        1.54434850720987
C           -1.04340378616191        0.49415653482167        2.12574355633119
O           -0.54339569465962        1.17494686081586        3.03107152645501
C           -2.55548723329384        0.52418489959525        1.70576370698668
C           -3.06736509781651        1.96252358433262        2.06356540073252
O           -3.17506367375675       -0.44349871932343        2.40081072624667
H           -6.25965207155210        2.55772627463241       -0.64975889153756
H           -6.06880404167455        1.06863208924497       -1.61056728805463
H           -5.09206229450578        2.50321110652808       -1.99505498956030
H           -0.20107394573843       -3.77502742908464        0.64902675675287
H            0.99355358890546       -2.81514622821184        1.53100029013301
H            1.48344251929112       -3.74000206841306        0.10490495903985
H            0.45153062158655       -3.13574345792320       -2.18732675517871
H           -0.50901609613100       -1.64794827994354       -2.33591574429342
H           -1.16798216029637       -3.03971177758002       -1.47021205981023
H            1.59207611872919       -0.84720845242653       -1.68222904886280
H            6.91029505667973        2.28083392255587       -1.75454341572809
H            7.31726337300257        1.05526307009635       -0.53242327198242
H            6.51622588301540        2.54879356263696       -0.04441156855312
H            0.65722544658396       -0.59892547221381        1.86814238646974
H           -4.15541501725688        1.96946120641011        2.07982429772783
H           -2.70727174579342        2.70769832632995        1.35284890850606
H           -2.71491226404756        2.22609499200511        3.06256340153183
 
 Bond Distances (Angstroems)
 ---------------------------
C1-O2=1.4103         C1-H26=1.0912        C1-H27=1.0977        C1-H28=1.0975        O2-C1=1.4103         O2-C3=1.4046         
C3-O2=1.4046         C3-O4=1.2501         C3-C5=1.4068         O4-C3=1.2501         C5-C3=1.4068         C5-N6=1.3740         
C5-C23=1.5629        N6-C5=1.3740         N6-C7=1.2854         C7-N6=1.2854         C7-C8=1.5158         C7-N20=1.4057        
C8-C7=1.5158         C8-C9=1.5321         C8-C10=1.5316        C8-N11=1.4818        C9-C8=1.5321         C9-H29=1.0899        
C9-H30=1.0880        C9-H31=1.0889        C10-C8=1.5316        C10-H32=1.0885       C10-H33=1.0904       C10-H34=1.0895       
N11-C8=1.4818        N11-C12=1.3465       N11-H35=1.0095       C12-N11=1.3465       C12-O13=1.2293       C12-C14=1.4790       
O13-C12=1.2293       C14-C12=1.4790       C14-N15=1.3063       C14-O19=1.3530       N15-C14=1.3063       N15-N16=1.3665       
N16-N15=1.3665       N16-C17=1.2959       C17-N16=1.2959       C17-C18=1.4803       C17-O19=1.3439       C18-C17=1.4803       
C18-H36=1.0870       C18-H37=1.0889       C18-H38=1.0902       O19-C14=1.3530       O19-C17=1.3439       N20-C7=1.4057        
N20-C21=1.3667       N20-H39=1.0096       C21-N20=1.3667       C21-O22=1.2382       C21-C23=1.5696       O22-C21=1.2382       
C23-C5=1.5629        C23-C21=1.5696       C23-C24=1.5681       C23-O25=1.3429       C24-C23=1.5681       C24-H40=1.0882       
C24-H41=1.0909       C24-H42=1.0916       O25-C23=1.3429       H26-C1=1.0912        H27-C1=1.0977        H28-C1=1.0975        
H29-C9=1.0899        H30-C9=1.0880        H31-C9=1.0889        H32-C10=1.0885       H33-C10=1.0904       H34-C10=1.0895       
H35-N11=1.0095       H36-C18=1.0870       H37-C18=1.0889       H38-C18=1.0902       H39-N20=1.0096       H40-C24=1.0882       
H41-C24=1.0909       H42-C24=1.0916       
 C  H  Rav=1.0906 sigma=0.0030  Rmin=1.0870  Rmax=1.0977    15
 C  C  Rav=1.5162 sigma=0.0504  Rmin=1.4068  Rmax=1.5696     9
 N  H  Rav=1.0095 sigma=0.0000  Rmin=1.0095  Rmax=1.0096     2
 N  C  Rav=1.3578 sigma=0.0611  Rmin=1.2854  Rmax=1.4818     8
 N  N  Rav=1.3665 sigma=0.0000  Rmin=1.3665  Rmax=1.3665     1
 O  C  Rav=1.3215 sigma=0.0683  Rmin=1.2293  Rmax=1.4103     8
 
 selected bond angles (degree)
 --------------------
H26-C1-O2=107.56               H27-C1-O2=111.55               H27-C1-H26=109.03              H28-C1-O2=111.48               
H28-C1-H26=109.03              H28-C1-H27=108.15              C3-O2-C1=115.03                O4-C3-O2=117.54                
C5-C3-O2=115.71                C5-C3-O4=126.73                N6-C5-C3=113.06                C23-C5-C3=127.41               
C23-C5-N6=118.60               C7-N6-C5=122.55                C8-C7-N6=120.13                N20-C7-N6=121.96               
N20-C7-C8=117.58               C9-C8-C7=112.48                C10-C8-C7=109.30               C10-C8-C9=109.55               
N11-C8-C7=108.63               N11-C8-C9=110.61               N11-C8-C10=106.06              H29-C9-C8=108.97               
H30-C9-C8=111.71               H30-C9-H29=108.56              H31-C9-C8=110.12               H31-C9-H29=108.71              
H31-C9-H30=108.70              H32-C10-C8=110.29              H33-C10-C8=110.23              H33-C10-H32=109.30             
H34-C10-C8=109.66              H34-C10-H32=109.06             H34-C10-H33=108.27             
 
 selected dihedral angles (degree)
 ---------------------------------
C3-O2-C1-H26=180.30           C3-O2-C1-H27= 60.78           C3-O2-C1-H28=299.76           O4-C3-O2-C1=  0.20            
C5-C3-O2-C1=178.84            N6-C5-C3-O2=176.71            N6-C5-C3-O4=355.21            C23-C5-C3-O2=  8.01           
C23-C5-C3-O4=186.50           C7-N6-C5-C3=177.14            C7-N6-C5-C23=346.94           C8-C7-N6-C5=178.57            
N20-C7-N6-C5=351.82           C9-C8-C7-N6=226.67            C9-C8-C7-N20= 53.13           C10-C8-C7-N6=348.58           
C10-C8-C7-N20=175.04          N11-C8-C7-N6=103.88           N11-C8-C7-N20=290.34          H29-C9-C8-C7= 68.94           
H29-C9-C8-C10=307.18          H29-C9-C8-N11=190.61          H30-C9-C8-C7=309.00           H30-C9-C8-C10=187.23          
H30-C9-C8-N11= 70.66          H31-C9-C8-C7=188.10           H31-C9-C8-C10= 66.34          H31-C9-C8-N11=309.77          
H32-C10-C8-C7=176.63          H32-C10-C8-C9=300.29          H32-C10-C8-N11= 59.69         H33-C10-C8-C7= 55.85          
H33-C10-C8-C9=179.51          H33-C10-C8-N11=298.91         H34-C10-C8-C7=296.75          H34-C10-C8-C9= 60.40          
H34-C10-C8-N11=179.81         
           -------------------------------------------------
          |                Final Singlepoint                |
           -------------------------------------------------

          ...................................................
          :                      SETUP                      :
          :.................................................:
          :  # basis functions                 134          :
          :  # atomic orbitals                 134          :
          :  # shells                           84          :
          :  # electrons                       136          :
          :  # halogen bonds                     0          :
          :  max. iterations                   250          :
          :  Hamiltonian                  GFN1-xTB          :
          :  restarted?                      false          :
          :  GBSA solvation                   true          :
          :  PC potential                    false          :
          :  electronic temp.          300.0000000     K    :
          :  accuracy                    1.0000000          :
          :  -> integral cutoff          0.2500000E+02      :
          :  -> integral neglect         0.1000000E-07      :
          :  -> SCF convergence          0.1000000E-05 Eh   :
          :  -> wf. convergence          0.2000000E-04 e    :
          :  Broyden damping             0.4000000          :
          ...................................................

 iter      E             dE          RMSdq      gap      omega  full diag
   1    -84.3435929 -0.843436E+02  0.391E-06    0.25       0.0  T
   2    -84.3435929  0.000000E+00  0.244E-06    0.25    6313.3  T
   3    -84.3435929  0.852651E-13  0.208E-06    0.25    7403.4  T

   *** convergence criteria satisfied after 3 iterations ***

         #    Occupation            Energy/Eh            Energy/eV
      -------------------------------------------------------------
         1        2.0000           -0.8442134             -22.9722
       ...           ...                  ...                  ...
        62        2.0000           -0.3992906             -10.8652
        63        2.0000           -0.3912614             -10.6468
        64        2.0000           -0.3851993             -10.4818
        65        2.0000           -0.3702094             -10.0739
        66        2.0000           -0.3071272              -8.3574
        67        1.9944           -0.2992936              -8.1442
        68        1.9873           -0.2985078              -8.1228 (HOMO)
        69        0.0183           -0.2892593              -7.8711 (LUMO)
        70                         -0.2415404              -6.5726
        71                         -0.2130001              -5.7960
        72                         -0.1767550              -4.8097
        73                         -0.1692185              -4.6047
       ...                                ...                  ...
       134                          0.7248262              19.7235
      -------------------------------------------------------------
                  HL-Gap            0.0092484 Eh            0.2517 eV
             Fermi-level           -0.2937093 Eh           -7.9922 eV

 SCC (total)                   0 d,  0 h,  0 min,  0.111 sec
 SCC setup                      ...        0 min,  0.002 sec (  1.591%)
 Dispersion                     ...        0 min,  0.000 sec (  0.223%)
 classical contributions        ...        0 min,  0.000 sec (  0.077%)
 integral evaluation            ...        0 min,  0.026 sec ( 23.848%)
 iterations                     ...        0 min,  0.018 sec ( 15.890%)
 molecular gradient             ...        0 min,  0.063 sec ( 56.984%)
 printout                       ...        0 min,  0.002 sec (  1.359%)

         :::::::::::::::::::::::::::::::::::::::::::::::::::::
         ::                     SUMMARY                     ::
         :::::::::::::::::::::::::::::::::::::::::::::::::::::
         :: total energy             -83.610183435111 Eh    ::
         :: total w/o Gsasa/hb       -83.591165894952 Eh    ::
         :: gradient norm              0.000623154234 Eh/a0 ::
         :: HOMO-LUMO gap              0.251662968243 eV    ::
         ::.................................................::
         :: SCC energy               -84.343592875678 Eh    ::
         :: -> electrostatic           0.761607037873 Eh    ::
         :: -> Gsolv                  -0.303699930686 Eh    ::
         ::    -> Gelec               -0.284682390527 Eh    ::
         ::    -> Gsasa               -0.024132179792 Eh    ::
         ::    -> Ghb                 -0.002509639371 Eh    ::
         ::    -> Gshift               0.007624279005 Eh    ::
         :: repulsion energy           0.759330049915 Eh    ::
         :: dispersion energy         -0.025920609348 Eh    ::
         :: halogen bond corr.         0.000000000000 Eh    ::
         :: add. restraining           0.000000000000 Eh    ::
         :: total charge              -1.999999999462 e     ::
         :::::::::::::::::::::::::::::::::::::::::::::::::::::

           -------------------------------------------------
          |                Property Printout                |
           -------------------------------------------------

    * Orbital Energies and Occupations

         #    Occupation            Energy/Eh            Energy/eV
      -------------------------------------------------------------
         1        2.0000           -0.8442134             -22.9722
       ...           ...                  ...                  ...
        56        2.0000           -0.4402245             -11.9791
        57        2.0000           -0.4366968             -11.8831
        58        2.0000           -0.4301256             -11.7043
        59        2.0000           -0.4278238             -11.6417
        60        2.0000           -0.4210821             -11.4582
        61        2.0000           -0.4142380             -11.2720
        62        2.0000           -0.3992906             -10.8652
        63        2.0000           -0.3912614             -10.6468
        64        2.0000           -0.3851993             -10.4818
        65        2.0000           -0.3702094             -10.0739
        66        2.0000           -0.3071272              -8.3574
        67        1.9944           -0.2992936              -8.1442
        68        1.9873           -0.2985078              -8.1228 (HOMO)
        69        0.0183           -0.2892593              -7.8711 (LUMO)
        70                         -0.2415404              -6.5726
        71                         -0.2130001              -5.7960
        72                         -0.1767550              -4.8097
        73                         -0.1692185              -4.6047
        74                         -0.1361663              -3.7053
        75                         -0.1160244              -3.1572
        76                         -0.1068899              -2.9086
        77                         -0.1054723              -2.8700
        78                         -0.1034171              -2.8141
        79                         -0.0753060              -2.0492
       ...                                ...                  ...
       134                          0.7248262              19.7235
      -------------------------------------------------------------
                  HL-Gap            0.0092484 Eh            0.2517 eV
             Fermi-level           -0.2937093 Eh           -7.9922 eV

  Mulliken/CM5 charges         n(s)   n(p)   n(d)
     1C     0.18563  0.06755   0.961  2.853  0.000
     2O    -0.47513 -0.56291   1.699  4.776  0.000
     3C     0.48572  0.54543   0.981  2.534  0.000
     4O    -0.70143 -0.74344   1.749  4.953  0.000
     5C    -0.05769  0.01745   1.060  2.998  0.000
     6N    -0.38965 -0.57579   1.535  3.855  0.000
     7C     0.19690  0.34360   0.990  2.813  0.000
     8C     0.15122  0.18891   1.067  2.781  0.000
     9C    -0.09591 -0.23560   1.013  3.082  0.000
    10C    -0.09183 -0.23064   1.015  3.077  0.000
    11N    -0.34276 -0.69224   1.436  3.907  0.000
    12C     0.44743  0.55594   0.970  2.583  0.000
    13O    -0.60365 -0.65113   1.730  4.873  0.000
    14C     0.32275  0.44630   1.011  2.666  0.000
    15N    -0.27027 -0.38003   1.572  3.699  0.000
    16N    -0.27889 -0.38680   1.567  3.712  0.000
    17C     0.38025  0.48909   1.003  2.617  0.000
    18C    -0.11072 -0.24818   1.010  3.100  0.000
    19O    -0.35238 -0.40338   1.695  4.658  0.000
    20N    -0.33935 -0.67905   1.434  3.905  0.000
    21C     0.42507  0.52701   1.038  2.537  0.000
    22O    -0.65624 -0.69877   1.748  4.909  0.000
    23C     0.25663  0.28387   1.029  2.714  0.000
    24C    -0.10850 -0.24819   1.016  3.093  0.000
    25O    -0.86347 -0.90005   1.776  5.087  0.000
    26H     0.01221  0.07224   0.988  0.000  0.000
    27H     0.01315  0.07452   0.987  0.000  0.000
    28H     0.01273  0.07425   0.987  0.000  0.000
    29H     0.02771  0.08198   0.972  0.000  0.000
    30H     0.04537  0.10836   0.955  0.000  0.000
    31H     0.03018  0.08697   0.970  0.000  0.000
    32H     0.02556  0.08138   0.974  0.000  0.000
    33H     0.03485  0.09513   0.965  0.000  0.000
    34H     0.03409  0.09020   0.966  0.000  0.000
    35H     0.23443  0.44126   0.766  0.000  0.000
    36H     0.06236  0.11825   0.938  0.000  0.000
    37H     0.07082  0.12556   0.929  0.000  0.000
    38H     0.07202  0.12627   0.928  0.000  0.000
    39H     0.22504  0.43407   0.775  0.000  0.000
    40H     0.00282  0.06265   0.997  0.000  0.000
    41H    -0.01748  0.03874   1.017  0.000  0.000
    42H     0.00039  0.05922   1.000  0.000  0.000

Wiberg/Mayer (AO) data.
largest (>0.10) Wiberg bond orders for each atom

 ---------------------------------------------------------------------------
     #   Z sym  total        # sym  WBO       # sym  WBO       # sym  WBO
 ---------------------------------------------------------------------------
     1   6 C    3.921 --    26 H    0.987    27 H    0.980    28 H    0.980
                             2 O    0.951
     2   8 O    2.085 --     1 C    0.951     3 C    0.937
     3   6 C    3.838 --     4 O    1.451     5 C    1.315     2 O    0.937
     4   8 O    1.740 --     3 C    1.451     5 C    0.101
     5   6 C    3.803 --     3 C    1.315     6 N    1.201    23 C    0.918
                             4 O    0.101
     6   7 N    3.051 --     7 C    1.597     5 C    1.201
     7   6 C    3.906 --     6 N    1.597    20 N    1.019     8 C    0.969
     8   6 C    3.924 --    10 C    1.001     9 C    0.995     7 C    0.969
                            11 N    0.894
     9   6 C    3.992 --     8 C    0.995    31 H    0.986    29 H    0.986
                            30 H    0.980
    10   6 C    3.996 --     8 C    1.001    32 H    0.988    34 H    0.984
                            33 H    0.982
    11   7 N    3.344 --    12 C    1.260    35 H    0.904     8 C    0.894
                            13 O    0.174
    12   6 C    3.891 --    13 O    1.529    11 N    1.260    14 C    1.008
    13   8 O    1.852 --    12 C    1.529    11 N    0.174
    14   6 C    3.833 --    15 N    1.571    19 O    1.045    12 C    1.008
    15   7 N    2.959 --    14 C    1.571    16 N    1.187
    16   7 N    2.979 --    17 C    1.619    15 N    1.187
    17   6 C    3.862 --    16 N    1.619    19 O    1.075    18 C    1.029
    18   6 C    3.989 --    17 C    1.029    36 H    0.983    37 H    0.969
                            38 H    0.964
    19   8 O    2.295 --    17 C    1.075    14 C    1.045
    20   7 N    3.366 --    21 C    1.182     7 C    1.019    39 H    0.903
                            22 O    0.117
    21   6 C    3.817 --    22 O    1.556    20 N    1.182    23 C    0.879
    22   8 O    1.826 --    21 C    1.556    20 N    0.117
    23   6 C    3.964 --    25 O    1.123    24 C    0.946     5 C    0.918
                            21 C    0.879
    24   6 C    3.989 --    41 H    0.990    40 H    0.987    42 H    0.985
                            23 C    0.946
    25   8 O    1.415 --    23 C    1.123
    26   1 H    1.020 --     1 C    0.987
    27   1 H    1.022 --     1 C    0.980
    28   1 H    1.022 --     1 C    0.980
    29   1 H    1.007 --     9 C    0.986
    30   1 H    1.019 --     9 C    0.980
    31   1 H    1.004 --     9 C    0.986
    32   1 H    1.004 --    10 C    0.988
    33   1 H    1.021 --    10 C    0.982
    34   1 H    1.013 --    10 C    0.984
    35   1 H    0.964 --    11 N    0.904
    36   1 H    1.000 --    18 C    0.983
    37   1 H    0.998 --    18 C    0.969
    38   1 H    0.998 --    18 C    0.964
    39   1 H    0.971 --    20 N    0.903
    40   1 H    1.034 --    24 C    0.987
    41   1 H    1.017 --    24 C    0.990
    42   1 H    1.027 --    24 C    0.985
 ---------------------------------------------------------------------------

Topologies differ in total number of bonds
Writing topology from bond orders to xtbtopo.mol

 dipole moment from electron density (au)
     X       Y       Z   
   8.8925  -0.2480  -4.4279  total (Debye):   25.258

           -------------------------------------------------
          |                Geometry Summary                 |
           -------------------------------------------------

      molecular mass/u    :      351.3152409
   center of mass at/Å    :        0.0852494       0.0390036       0.0613171
  moments of inertia/u·Å² :        0.1360068E+04   0.4607867E+04   0.4667990E+04
rotational constants/cm⁻¹ :        0.1239470E-01   0.3658446E-02   0.3611326E-02

 * 33 selected distances

     #   Z          #   Z                                           value/Å
     1   6 C        2   8 O                                       1.4102583
     3   6 C        5   6 C                                       1.4068341
     5   6 C        6   7 N                                       1.3739849
     6   7 N        7   6 C                                       1.2853651
     8   6 C        9   6 C                                       1.5320650 (max)
     8   6 C       10   6 C                                       1.5316060
    11   7 N       12   6 C                                       1.3465282
    12   6 C       13   8 O                                       1.2292986
    14   6 C       15   7 N                                       1.3062699
    16   7 N       17   6 C                                       1.2958823
    17   6 C       18   6 C                                       1.4803418
    14   6 C       19   8 O                                       1.3529972
    17   6 C       19   8 O                                       1.3439492
     7   6 C       20   7 N                                       1.4057279
    20   7 N       21   6 C                                       1.3667068
    21   6 C       22   8 O                                       1.2381852
     1   6 C       26   1 H                                       1.0912333
     1   6 C       27   1 H                                       1.0976778
     1   6 C       28   1 H                                       1.0974607
     9   6 C       29   1 H                                       1.0898576
     9   6 C       30   1 H                                       1.0879715
     9   6 C       31   1 H                                       1.0888772
    10   6 C       32   1 H                                       1.0884662
    10   6 C       33   1 H                                       1.0903977
    10   6 C       34   1 H                                       1.0894862
    11   7 N       35   1 H                                       1.0095219 (min)
    18   6 C       36   1 H                                       1.0869669
    18   6 C       37   1 H                                       1.0889208
    18   6 C       38   1 H                                       1.0902317
    20   7 N       39   1 H                                       1.0095720
    24   6 C       40   1 H                                       1.0881936
    24   6 C       41   1 H                                       1.0909036
    24   6 C       42   1 H                                       1.0916456

 * 5 distinct bonds (by element types)

   Z      Z             #   av. dist./Å        max./Å        min./Å
   1 H    6 C          15     1.0905527     1.0976778     1.0869669
   6 C    6 C           4     1.4877117     1.5320650     1.4068341
   1 H    7 N           2     1.0095469     1.0095720     1.0095219
   6 C    7 N           7     1.3400664     1.4057279     1.2853651
   6 C    8 O           5     1.3149377     1.4102583     1.2292986


optimized geometry written to: xtbopt.xyz


           -------------------------------------------------
          | TOTAL ENERGY              -83.610183435111 Eh   |
          | GRADIENT NORM               0.000623154234 Eh/α |
          | HOMO-LUMO GAP               0.251662968243 eV   |
           -------------------------------------------------

------------------------------------------------------------------------
 * finished run on 2023/06/21 at 17:16:14.149     
------------------------------------------------------------------------
 total:
 * wall-time:     0 d,  0 h,  0 min,  6.946 sec
 *  cpu-time:     0 d,  0 h,  0 min,  6.757 sec
 * ratio c/w:     0.973 speedup
 SCF:
 * wall-time:     0 d,  0 h,  0 min,  0.266 sec
 *  cpu-time:     0 d,  0 h,  0 min,  0.214 sec
 * ratio c/w:     0.806 speedup
 ANC optimizer:
 * wall-time:     0 d,  0 h,  0 min,  6.555 sec
 *  cpu-time:     0 d,  0 h,  0 min,  6.500 sec
 * ratio c/w:     0.992 speedup

