      -----------------------------------------------------------      
     |                   =====================                   |     
     |                           x T B                           |     
     |                   =====================                   |     
     |                         S. Grimme                         |     
     |          Mulliken Center for Theoretical Chemistry        |     
     |                    University of Bonn                     |     
      -----------------------------------------------------------      

   * xtb version 6.5.1 (579679a) compiled by 'ehlert@majestix' on 2022-07-11

   xtb is free software: you can redistribute it and/or modify it under
   the terms of the GNU Lesser General Public License as published by
   the Free Software Foundation, either version 3 of the License, or
   (at your option) any later version.
   
   xtb is distributed in the hope that it will be useful,
   but WITHOUT ANY WARRANTY; without even the implied warranty of
   MERCHANTABILITY or FITNESS FOR A PARTICULAR PURPOSE.  See the
   GNU Lesser General Public License for more details.
   
   Cite this work as:
   * C. Bannwarth, E. Caldeweyher, S. Ehlert, A. Hansen, P. Pracht,
     J. Seibert, S. Spicher, S. Grimme, WIREs Comput. Mol. Sci., 2020, 11,
     e01493. DOI: 10.1002/wcms.1493
   
   for GFN2-xTB:
   * C. Bannwarth, S. Ehlert and S. Grimme., J. Chem. Theory Comput., 2019,
     15, 1652-1671. DOI: 10.1021/acs.jctc.8b01176
   for GFN1-xTB:
   * S. Grimme, C. Bannwarth, P. Shushkov, J. Chem. Theory Comput., 2017,
     13, 1989-2009. DOI: 10.1021/acs.jctc.7b00118
   for GFN0-xTB:
   * P. Pracht, E. Caldeweyher, S. Ehlert, S. Grimme, ChemRxiv, 2019, preprint.
     DOI: 10.26434/chemrxiv.8326202.v1
   for GFN-FF:
   * S. Spicher and S. Grimme, Angew. Chem. Int. Ed., 2020, 59, 15665-15673.
     DOI: 10.1002/anie.202004239
   
   for ALPB and GBSA implicit solvation:
   * S. Ehlert, M. Stahn, S. Spicher, S. Grimme, J. Chem. Theory Comput.,
     2021, 17, 4250-4261. DOI: 10.1021/acs.jctc.1c00471
   
   for DFT-D4:
   * E. Caldeweyher, C. Bannwarth and S. Grimme, J. Chem. Phys., 2017,
     147, 034112. DOI: 10.1063/1.4993215
   * E. Caldeweyher, S. Ehlert, A. Hansen, H. Neugebauer, S. Spicher,
     C. Bannwarth and S. Grimme, J. Chem. Phys., 2019, 150, 154122.
     DOI: 10.1063/1.5090222
   * E. Caldeweyher, J.-M. Mewes, S. Ehlert and S. Grimme, Phys. Chem. Chem. Phys.
     2020, 22, 8499-8512. DOI: 10.1039/D0CP00502A
   
   for sTDA-xTB:
   * S. Grimme and C. Bannwarth, J. Chem. Phys., 2016, 145, 054103.
     DOI: 10.1063/1.4959605
   
   in the mass-spec context:
   * V. Asgeirsson, C. Bauer and S. Grimme, Chem. Sci., 2017, 8, 4879.
     DOI: 10.1039/c7sc00601b
   * J. Koopman and S. Grimme, ACS Omega 2019, 4, 12, 15120-15133.
     DOI: 10.1021/acsomega.9b02011
   
   for metadynamics refer to:
   * S. Grimme, J. Chem. Theory Comput., 2019, 155, 2847-2862
     DOI: 10.1021/acs.jctc.9b00143
   
   for SPH calculations refer to:
   * S. Spicher and S. Grimme, J. Chem. Theory Comput., 2021, 17, 1701-1714
     DOI: 10.1021/acs.jctc.0c01306
   
   with help from (in alphabetical order)
   P. Atkinson, C. Bannwarth, F. Bohle, G. Brandenburg, E. Caldeweyher
   M. Checinski, S. Dohm, S. Ehlert, S. Ehrlich, I. Gerasimov, C. Hölzer
   A. Katbashev, J. Koopman, C. Lavigne, S. Lehtola, F. März, M. Müller,
   F. Musil, H. Neugebauer, J. Pisarek, C. Plett, P. Pracht, F. Pultar,
   J. Seibert, P. Shushkov, S. Spicher, M. Stahn, M. Steiner, T. Strunk,
   J. Stückrath, T. Rose, and J. Unsleber
   
 * started run on 2023/06/21 at 17:03:41.957     

           -------------------------------------------------
          |                Calculation Setup                |
           -------------------------------------------------

          program call               : /lustre/hpc/kemi/ree/PhD/git/ReactivityQM/dep/xtb-6.5.1/bin/xtb --gfn 1 /lustre/hpc/kemi/ree/PhD/git/ReactivityQM/calculations/R02methylcation/reac01/conf19/R02methylcation_reac01_conf19_gfn1.xyz --opt --vfukui --chrg -1 --uhf 0 --alpb DMSO
          hostname                   : node317
          coordinate file            : /lustre/hpc/kemi/ree/PhD/git/ReactivityQM/calculations/R02methylcation/reac01/conf19/R02methylcation_reac01_conf19_gfn1.xyz
          omp threads                :                     1

   ID    Z sym.   atoms
    1    6 C      1, 3, 5, 7-10, 12, 14, 17, 18, 21, 23
    2    8 O      2, 4, 13, 19, 22, 24
    3    7 N      6, 11, 15, 16, 20
    4    1 H      25-38

           -------------------------------------------------
          |                 G F N 1 - x T B                 |
           -------------------------------------------------

        Reference                      10.1021/acs.jctc.7b00118
      * Hamiltonian:
        H0-scaling (s, p, d)           1.850000    2.250000    2.000000
        zeta-weighting                 0.000000
      * Dispersion:
        s8                             2.400000
        a1                             0.630000
        a2                             5.000000
        s9                             0.000000
      * Repulsion:
        kExp                           1.500000
        rExp                           1.000000
      * Coulomb:
        alpha                          2.000000
        third order                    atomic
        anisotropic                    false
      * Halogen bond correction:
        rad-scale                      1.300000
        damping                        0.440000

      * Solvation model:               ALPB
        Solvent                        DMSO
        Parameter file                 internal GFN1-xTB/ALPB
        Dielectric constant                4.6680E+01
        Reference state                gsolv [1 M gas/solution]
        Free energy shift                  7.6243E-03 Eh       4.7843E+00 kcal/mol
        Temperature                        2.9815E+02 K
        Density                            1.1000E+00 kg/L
        Solvent mass                       7.8130E+01 g/mol
        Interaction kernel             P16
        Born radius scaling (c1)           1.7672E+00
        Born radii integrator          GBOBC
        Born offset                        0.0000E+00 a0       0.0000E+00 AA
        H-bond correction              true
        Ion screening                  false
        Surface tension                    1.0000E-05 Eh       1.5569E+01 dyn/cm
        Grid points                               230 per atom

          ...................................................
          :                      SETUP                      :
          :.................................................:
          :  # basis functions                 124          :
          :  # atomic orbitals                 124          :
          :  # shells                           76          :
          :  # electrons                       128          :
          :  # halogen bonds                     0          :
          :  max. iterations                   250          :
          :  Hamiltonian                  GFN1-xTB          :
          :  restarted?                      false          :
          :  GBSA solvation                   true          :
          :  PC potential                    false          :
          :  electronic temp.          300.0000000     K    :
          :  accuracy                    1.0000000          :
          :  -> integral cutoff          0.2500000E+02      :
          :  -> integral neglect         0.1000000E-07      :
          :  -> SCF convergence          0.1000000E-05 Eh   :
          :  -> wf. convergence          0.2000000E-04 e    :
          :  Broyden damping             0.4000000          :
          ...................................................

 iter      E             dE          RMSdq      gap      omega  full diag
   1    -79.9693563 -0.799694E+02  0.873E+00    2.68       0.0  T
   2    -80.3025139 -0.333158E+00  0.523E+00    1.88       1.0  T
   3    -80.2878466  0.146673E-01  0.180E+00    1.38       1.0  T
   4    -80.3218045 -0.339579E-01  0.222E-01    1.05       1.0  T
   5    -80.3234439 -0.163941E-02  0.570E-02    1.11       1.0  T
   6    -80.3235354 -0.914808E-04  0.175E-02    1.14       1.0  T
   7    -80.3235422 -0.679763E-05  0.403E-03    1.16       4.0  T
   8    -80.3235425 -0.268315E-06  0.963E-04    1.16      16.8  T
   9    -80.3235425 -0.205813E-07  0.408E-04    1.17      39.8  T
  10    -80.3235425 -0.139212E-08  0.161E-04    1.17     100.7  T
  11    -80.3235425 -0.147068E-09  0.498E-05    1.17     325.8  T

   *** convergence criteria satisfied after 11 iterations ***

         #    Occupation            Energy/Eh            Energy/eV
      -------------------------------------------------------------
         1        2.0000           -0.8586673             -23.3655
       ...           ...                  ...                  ...
        58        2.0000           -0.4407488             -11.9934
        59        2.0000           -0.4390690             -11.9477
        60        2.0000           -0.4376039             -11.9078
        61        2.0000           -0.4337545             -11.8031
        62        2.0000           -0.4145203             -11.2797
        63        2.0000           -0.3713247             -10.1043
        64        2.0000           -0.3544970              -9.6464 (HOMO)
        65                         -0.3116584              -8.4807 (LUMO)
        66                         -0.2671508              -7.2695
        67                         -0.2560403              -6.9672
        68                         -0.2374946              -6.4626
        69                         -0.1957088              -5.3255
       ...                                ...                  ...
       124                          0.8110623              22.0701
      -------------------------------------------------------------
                  HL-Gap            0.0428386 Eh            1.1657 eV
             Fermi-level           -0.3330777 Eh           -9.0635 eV

 SCC (total)                   0 d,  0 h,  0 min,  0.106 sec
 SCC setup                      ...        0 min,  0.002 sec (  1.819%)
 Dispersion                     ...        0 min,  0.000 sec (  0.332%)
 classical contributions        ...        0 min,  0.000 sec (  0.113%)
 integral evaluation            ...        0 min,  0.034 sec ( 32.609%)
 iterations                     ...        0 min,  0.025 sec ( 23.601%)
 molecular gradient             ...        0 min,  0.043 sec ( 40.712%)
 printout                       ...        0 min,  0.001 sec (  0.767%)

         :::::::::::::::::::::::::::::::::::::::::::::::::::::
         ::                     SUMMARY                     ::
         :::::::::::::::::::::::::::::::::::::::::::::::::::::
         :: total energy             -79.606748755357 Eh    ::
         :: total w/o Gsasa/hb       -79.587099972737 Eh    ::
         :: gradient norm              0.136975774429 Eh/a0 ::
         :: HOMO-LUMO gap              1.165698559083 eV    ::
         ::.................................................::
         :: SCC energy               -80.323542503383 Eh    ::
         :: -> electrostatic           0.480544206079 Eh    ::
         :: -> Gsolv                  -0.135464143839 Eh    ::
         ::    -> Gelec               -0.115815361219 Eh    ::
         ::    -> Gsasa               -0.023695522410 Eh    ::
         ::    -> Ghb                 -0.003577539215 Eh    ::
         ::    -> Gshift               0.007624279005 Eh    ::
         :: repulsion energy           0.739713640556 Eh    ::
         :: dispersion energy         -0.022919892530 Eh    ::
         :: halogen bond corr.         0.000000000000 Eh    ::
         :: add. restraining           0.000000000000 Eh    ::
         :: total charge              -1.000000000000 e     ::
         :::::::::::::::::::::::::::::::::::::::::::::::::::::

      ----------------------------------------------------------- 
     |                   =====================                   |
     |                        A N C O P T                        |
     |                   =====================                   |
     |               Approximate Normal Coordinate               |
     |                Rational Function Optimizer                |
      ----------------------------------------------------------- 

          ...................................................
          :                      SETUP                      :
          :.................................................:
          :   optimization level            normal          :
          :   max. optcycles                   200          :
          :   ANC micro-cycles                  20          :
          :   degrees of freedom               108          :
          :.................................................:
          :   RF solver                   davidson          :
          :   write xtbopt.log                true          :
          :   linear?                        false          :
          :   energy convergence         0.5000000E-05 Eh   :
          :   grad. convergence          0.1000000E-02 Eh/α :
          :   maximium RF displ.         1.0000000          :
          :   Hlow (freq-cutoff)         0.1000000E-01      :
          :   Hmax (freq-cutoff)         5.0000000          :
          :   S6 in model hess.         20.0000000          :
          ...................................................

generating ANC from model Hessian ...
Using Lindh-Hessian (1995)
 Shifting diagonal of input Hessian by   9.782134252459378E-003
 Lowest  eigenvalues of input Hessian
    0.000000    0.000000    0.000000    0.000000    0.000000    0.000000
    0.010000    0.010037    0.011080    0.011684    0.012115    0.012499
    0.013049    0.014270    0.014527    0.016289    0.018787    0.018883
 Highest eigenvalues
    2.073426    2.121793    2.236498    2.313206    2.327294    2.439821
 

........................................................................
.............................. CYCLE    1 ..............................
........................................................................
   1    -80.3235425 -0.803235E+02  0.129E-05    1.17       0.0  T
   2    -80.3235425 -0.180478E-11  0.624E-06    1.17    2599.3  T
   3    -80.3235425 -0.198952E-12  0.328E-06    1.17    4949.2  T
     SCC iter.                  ...        0 min,  0.010 sec
     gradient                   ...        0 min,  0.068 sec
 * total energy  :   -79.6067488 Eh     change       -0.3869616E-10 Eh
   gradient norm :     0.1369758 Eh/α   predicted     0.0000000E+00 (-100.00%)
   displ. norm   :     0.2919614 α      lambda       -0.1671983E-01
   maximum displ.:     0.1443509 α      in ANC's #23, #58, #32, ...

........................................................................
.............................. CYCLE    2 ..............................
........................................................................
   1    -80.3352214 -0.803352E+02  0.908E-02    1.43       0.0  T
   2    -80.3355720 -0.350603E-03  0.481E-02    1.41       1.0  T
   3    -80.3356330 -0.609965E-04  0.173E-02    1.42       1.0  T
   4    -80.3356331 -0.138684E-06  0.672E-03    1.41       2.4  T
   5    -80.3356333 -0.191801E-06  0.124E-03    1.41      13.0  T
   6    -80.3356334 -0.378087E-07  0.341E-04    1.41      47.6  T
   7    -80.3356334 -0.171202E-08  0.109E-04    1.41     148.2  T
   8    -80.3356334 -0.911342E-10  0.292E-05    1.41     554.9  T
     SCC iter.                  ...        0 min,  0.024 sec
     gradient                   ...        0 min,  0.043 sec
 * total energy  :   -79.6188709 Eh     change       -0.1212217E-01 Eh
   gradient norm :     0.0671209 Eh/α   predicted    -0.9087330E-02 ( -25.04%)
   displ. norm   :     0.3068974 α      lambda       -0.7456717E-02
   maximum displ.:     0.1338334 α      in ANC's #23, #5, #7, ...

........................................................................
.............................. CYCLE    3 ..............................
........................................................................
   1    -80.3474671 -0.803475E+02  0.843E-02    1.62       0.0  T
   2    -80.3477248 -0.257694E-03  0.370E-02    1.60       1.0  T
   3    -80.3477618 -0.369722E-04  0.123E-02    1.61       1.3  T
   4    -80.3477619 -0.109360E-06  0.522E-03    1.61       3.1  T
   5    -80.3477620 -0.900691E-07  0.946E-04    1.61      17.2  T
   6    -80.3477620 -0.148628E-07  0.243E-04    1.61      66.7  T
   7    -80.3477620 -0.113070E-08  0.970E-05    1.61     167.2  T
   8    -80.3477620 -0.689084E-10  0.270E-05    1.61     600.4  T
     SCC iter.                  ...        0 min,  0.023 sec
     gradient                   ...        0 min,  0.066 sec
 * total energy  :   -79.6232534 Eh     change       -0.4382436E-02 Eh
   gradient norm :     0.0182022 Eh/α   predicted    -0.4080928E-02 (  -6.88%)
   displ. norm   :     0.2350600 α      lambda       -0.1103320E-02
   maximum displ.:     0.1103394 α      in ANC's #5, #7, #6, ...

........................................................................
.............................. CYCLE    4 ..............................
........................................................................
   1    -80.3491715 -0.803492E+02  0.235E-02    1.63       0.0  T
   2    -80.3491903 -0.188214E-04  0.105E-02    1.63       1.5  T
   3    -80.3491929 -0.257918E-05  0.433E-03    1.63       3.7  T
   4    -80.3491929 -0.101289E-07  0.149E-03    1.63      10.9  T
   5    -80.3491929 -0.191131E-07  0.302E-04    1.64      53.6  T
   6    -80.3491929 -0.147229E-08  0.784E-05    1.64     207.0  T
   7    -80.3491929 -0.121290E-09  0.289E-05    1.64     561.5  T
     SCC iter.                  ...        0 min,  0.015 sec
     gradient                   ...        0 min,  0.037 sec
 * total energy  :   -79.6241004 Eh     change       -0.8470720E-03 Eh
   gradient norm :     0.0109127 Eh/α   predicted    -0.5821586E-03 ( -31.27%)
   displ. norm   :     0.4086414 α      lambda       -0.1157208E-02
   maximum displ.:     0.2051390 α      in ANC's #7, #5, #6, ...

........................................................................
.............................. CYCLE    5 ..............................
........................................................................
   1    -80.3494955 -0.803495E+02  0.251E-02    1.63       0.0  T
   2    -80.3495167 -0.211600E-04  0.112E-02    1.63       1.5  T
   3    -80.3495194 -0.268311E-05  0.533E-03    1.63       3.0  T
   4    -80.3495194 -0.443756E-07  0.168E-03    1.64       9.6  T
   5    -80.3495194 -0.232812E-07  0.299E-04    1.64      54.3  T
   6    -80.3495194 -0.195033E-08  0.835E-05    1.64     194.3  T
   7    -80.3495194 -0.129845E-09  0.321E-05    1.64     505.0  T
     SCC iter.                  ...        0 min,  0.015 sec
     gradient                   ...        0 min,  0.038 sec
 * total energy  :   -79.6249295 Eh     change       -0.8290760E-03 Eh
   gradient norm :     0.0110434 Eh/α   predicted    -0.6752282E-03 ( -18.56%)
   displ. norm   :     0.4049254 α      lambda       -0.7255028E-03
   maximum displ.:     0.2181364 α      in ANC's #5, #7, #6, ...

........................................................................
.............................. CYCLE    6 ..............................
........................................................................
   1    -80.3498726 -0.803499E+02  0.139E-02    1.62       0.0  T
   2    -80.3498784 -0.581352E-05  0.555E-03    1.62       2.9  T
   3    -80.3498789 -0.527407E-06  0.301E-03    1.62       5.4  T
   4    -80.3498789 -0.281899E-07  0.972E-04    1.62      16.7  T
   5    -80.3498789 -0.781482E-08  0.172E-04    1.63      94.2  T
   6    -80.3498789 -0.617987E-09  0.486E-05    1.62     334.0  T
     SCC iter.                  ...        0 min,  0.013 sec
     gradient                   ...        0 min,  0.044 sec
 * total energy  :   -79.6254786 Eh     change       -0.5491430E-03 Eh
   gradient norm :     0.0131565 Eh/α   predicted    -0.4222302E-03 ( -23.11%)
   displ. norm   :     0.4170861 α      lambda       -0.6391407E-03
   maximum displ.:     0.2324289 α      in ANC's #5, #7, #6, ...

........................................................................
.............................. CYCLE    7 ..............................
........................................................................
   1    -80.3512454 -0.803512E+02  0.814E-03    1.61       0.0  T
   2    -80.3512477 -0.235954E-05  0.331E-03    1.61       4.9  T
   3    -80.3512478 -0.100540E-06  0.171E-03    1.62       9.5  T
   4    -80.3512478 -0.320672E-08  0.576E-04    1.62      28.1  T
   5    -80.3512478 -0.221941E-08  0.100E-04    1.62     161.6  T
   6    -80.3512478 -0.260869E-09  0.333E-05    1.62     487.8  T
     SCC iter.                  ...        0 min,  0.013 sec
     gradient                   ...        0 min,  0.064 sec
 * total energy  :   -79.6259536 Eh     change       -0.4749455E-03 Eh
   gradient norm :     0.0113400 Eh/α   predicted    -0.3751809E-03 ( -21.01%)
   displ. norm   :     0.3430879 α      lambda       -0.4375980E-03
   maximum displ.:     0.1940397 α      in ANC's #5, #7, #6, ...

........................................................................
.............................. CYCLE    8 ..............................
........................................................................
   1    -80.3529554 -0.803530E+02  0.112E-02    1.61       0.0  T
   2    -80.3529609 -0.552890E-05  0.535E-03    1.61       3.0  T
   3    -80.3529615 -0.619120E-06  0.244E-03    1.61       6.6  T
   4    -80.3529615 -0.663775E-09  0.884E-04    1.61      18.3  T
   5    -80.3529615 -0.564611E-08  0.126E-04    1.61     128.4  T
   6    -80.3529615 -0.344571E-09  0.328E-05    1.61     494.9  T
     SCC iter.                  ...        0 min,  0.018 sec
     gradient                   ...        0 min,  0.069 sec
 * total energy  :   -79.6262530 Eh     change       -0.2994104E-03 Eh
   gradient norm :     0.0072103 Eh/α   predicted    -0.2445549E-03 ( -18.32%)
   displ. norm   :     0.2339301 α      lambda       -0.1838859E-03
   maximum displ.:     0.1247260 α      in ANC's #5, #7, #6, ...

........................................................................
.............................. CYCLE    9 ..............................
........................................................................
   1    -80.3535468 -0.803535E+02  0.935E-03    1.62       0.0  T
   2    -80.3535504 -0.360151E-05  0.419E-03    1.62       3.9  T
   3    -80.3535508 -0.461912E-06  0.193E-03    1.62       8.4  T
   4    -80.3535508 -0.371423E-08  0.638E-04    1.62      25.4  T
   5    -80.3535508 -0.215343E-08  0.106E-04    1.62     152.9  T
   6    -80.3535508 -0.253067E-09  0.251E-05    1.62     646.4  T
     SCC iter.                  ...        0 min,  0.018 sec
     gradient                   ...        0 min,  0.134 sec
 * total energy  :   -79.6263734 Eh     change       -0.1204331E-03 Eh
   gradient norm :     0.0043688 Eh/α   predicted    -0.9697944E-04 ( -19.47%)
   displ. norm   :     0.1378755 α      lambda       -0.7921776E-04
   maximum displ.:     0.0722223 α      in ANC's #6, #5, #3, ...

........................................................................
.............................. CYCLE   10 ..............................
........................................................................
   1    -80.3540668 -0.803541E+02  0.615E-03    1.62       0.0  T
   2    -80.3540679 -0.112537E-05  0.257E-03    1.62       6.3  T
   3    -80.3540680 -0.107717E-06  0.132E-03    1.62      12.3  T
   4    -80.3540680 -0.364480E-08  0.420E-04    1.62      38.6  T
   5    -80.3540680 -0.883247E-09  0.628E-05    1.62     258.2  T
   6    -80.3540680 -0.777476E-10  0.207E-05    1.62     783.9  T
     SCC iter.                  ...        0 min,  0.018 sec
     gradient                   ...        0 min,  0.070 sec
 * total energy  :   -79.6264290 Eh     change       -0.5553184E-04 Eh
   gradient norm :     0.0030125 Eh/α   predicted    -0.4036286E-04 ( -27.32%)
   displ. norm   :     0.1354123 α      lambda       -0.6122662E-04
   maximum displ.:     0.0780549 α      in ANC's #6, #3, #2, ...

........................................................................
.............................. CYCLE   11 ..............................
........................................................................
   1    -80.3537855 -0.803538E+02  0.488E-03    1.63       0.0  T
   2    -80.3537863 -0.773019E-06  0.192E-03    1.63       8.4  T
   3    -80.3537863 -0.443968E-07  0.987E-04    1.63      16.4  T
   4    -80.3537863 -0.810502E-09  0.372E-04    1.62      43.6  T
   5    -80.3537863 -0.891973E-09  0.515E-05    1.62     314.8  T
   6    -80.3537863 -0.381419E-10  0.142E-05    1.62    1138.8  T
     SCC iter.                  ...        0 min,  0.017 sec
     gradient                   ...        0 min,  0.070 sec
 * total energy  :   -79.6264729 Eh     change       -0.4388534E-04 Eh
   gradient norm :     0.0031667 Eh/α   predicted    -0.3117793E-04 ( -28.96%)
   displ. norm   :     0.1308062 α      lambda       -0.5542467E-04
   maximum displ.:     0.0629256 α      in ANC's #6, #2, #3, ...

........................................................................
.............................. CYCLE   12 ..............................
........................................................................
   1    -80.3542202 -0.803542E+02  0.438E-03    1.63       0.0  T
   2    -80.3542208 -0.625367E-06  0.172E-03    1.63       9.4  T
   3    -80.3542208 -0.348081E-07  0.864E-04    1.63      18.8  T
   4    -80.3542208 -0.540950E-09  0.364E-04    1.63      44.5  T
   5    -80.3542208 -0.115082E-08  0.405E-05    1.63     400.6  T
   6    -80.3542208 -0.372324E-10  0.123E-05    1.63    1321.9  T
     SCC iter.                  ...        0 min,  0.017 sec
     gradient                   ...        0 min,  0.069 sec
 * total energy  :   -79.6265133 Eh     change       -0.4043912E-04 Eh
   gradient norm :     0.0040539 Eh/α   predicted    -0.2819014E-04 ( -30.29%)
   displ. norm   :     0.1714842 α      lambda       -0.6143568E-04
   maximum displ.:     0.0874909 α      in ANC's #2, #6, #3, ...

........................................................................
.............................. CYCLE   13 ..............................
........................................................................
   1    -80.3532377 -0.803532E+02  0.472E-03    1.63       0.0  T
   2    -80.3532384 -0.743672E-06  0.181E-03    1.63       9.0  T
   3    -80.3532384 -0.433388E-07  0.962E-04    1.63      16.9  T
   4    -80.3532385 -0.125824E-08  0.363E-04    1.63      44.7  T
   5    -80.3532385 -0.131053E-08  0.555E-05    1.63     292.2  T
   6    -80.3532385 -0.800355E-10  0.144E-05    1.63    1129.0  T
     SCC iter.                  ...        0 min,  0.018 sec
     gradient                   ...        0 min,  0.069 sec
 * total energy  :   -79.6265591 Eh     change       -0.4579456E-04 Eh
   gradient norm :     0.0046622 Eh/α   predicted    -0.3162140E-04 ( -30.95%)
   displ. norm   :     0.2133162 α      lambda       -0.7376092E-04
   maximum displ.:     0.1140956 α      in ANC's #2, #4, #6, ...

........................................................................
.............................. CYCLE   14 ..............................
........................................................................
   1    -80.3532766 -0.803533E+02  0.392E-03    1.63       0.0  T
   2    -80.3532772 -0.623659E-06  0.129E-03    1.63      12.6  T
   3    -80.3532772 -0.396569E-07  0.569E-04    1.63      28.5  T
   4    -80.3532772 -0.942663E-09  0.288E-04    1.63      56.4  T
   5    -80.3532772 -0.365660E-09  0.495E-05    1.63     327.5  T
   6    -80.3532772 -0.376872E-10  0.122E-05    1.63    1331.6  T
     SCC iter.                  ...        0 min,  0.019 sec
     gradient                   ...        0 min,  0.069 sec
 * total energy  :   -79.6266159 Eh     change       -0.5679577E-04 Eh
   gradient norm :     0.0040887 Eh/α   predicted    -0.3856018E-04 ( -32.11%)
   displ. norm   :     0.2482231 α      lambda       -0.8356557E-04
   maximum displ.:     0.1413356 α      in ANC's #2, #1, #6, ...

........................................................................
.............................. CYCLE   15 ..............................
........................................................................
   1    -80.3528865 -0.803529E+02  0.416E-03    1.62       0.0  T
   2    -80.3528871 -0.542932E-06  0.181E-03    1.62       9.0  T
   3    -80.3528871 -0.423047E-07  0.861E-04    1.62      18.8  T
   4    -80.3528871 -0.777007E-09  0.323E-04    1.62      50.3  T
   5    -80.3528871 -0.530207E-09  0.440E-05    1.62     368.7  T
   6    -80.3528871 -0.322160E-10  0.170E-05    1.62     952.4  T
     SCC iter.                  ...        0 min,  0.018 sec
     gradient                   ...        0 min,  0.070 sec
 * total energy  :   -79.6266817 Eh     change       -0.6577231E-04 Eh
   gradient norm :     0.0035323 Eh/α   predicted    -0.4435771E-04 ( -32.56%)
   displ. norm   :     0.2615346 α      lambda       -0.8810876E-04
   maximum displ.:     0.1575277 α      in ANC's #2, #1, #6, ...

........................................................................
.............................. CYCLE   16 ..............................
........................................................................
   1    -80.3535432 -0.803535E+02  0.506E-03    1.62       0.0  T
   2    -80.3535441 -0.941793E-06  0.233E-03    1.62       7.0  T
   3    -80.3535442 -0.100594E-06  0.992E-04    1.62      16.4  T
   4    -80.3535442 -0.335291E-09  0.382E-04    1.62      42.4  T
   5    -80.3535442 -0.889145E-09  0.540E-05    1.62     300.5  T
   6    -80.3535442 -0.432578E-10  0.181E-05    1.62     893.9  T
     SCC iter.                  ...        0 min,  0.018 sec
     gradient                   ...        0 min,  0.070 sec
 * total energy  :   -79.6267491 Eh     change       -0.6745778E-04 Eh
   gradient norm :     0.0034975 Eh/α   predicted    -0.4707520E-04 ( -30.22%)
   displ. norm   :     0.3177985 α      lambda       -0.7546155E-04
   maximum displ.:     0.1858433 α      in ANC's #2, #1, #6, ...

........................................................................
.............................. CYCLE   17 ..............................
........................................................................
   1    -80.3523372 -0.803523E+02  0.479E-03    1.61       0.0  T
   2    -80.3523381 -0.849083E-06  0.215E-03    1.62       7.5  T
   3    -80.3523381 -0.747545E-07  0.109E-03    1.62      14.9  T
   4    -80.3523381 -0.198807E-08  0.377E-04    1.62      43.0  T
   5    -80.3523381 -0.107866E-08  0.645E-05    1.62     251.4  T
   6    -80.3523381 -0.773781E-10  0.153E-05    1.62    1059.2  T
     SCC iter.                  ...        0 min,  0.017 sec
     gradient                   ...        0 min,  0.070 sec
 * total energy  :   -79.6267985 Eh     change       -0.4942789E-04 Eh
   gradient norm :     0.0050892 Eh/α   predicted    -0.4154622E-04 ( -15.95%)
   displ. norm   :     0.2267435 α      lambda       -0.9548402E-04
   maximum displ.:     0.1532074 α      in ANC's #2, #1, #4, ...

........................................................................
.............................. CYCLE   18 ..............................
........................................................................
   1    -80.3555629 -0.803556E+02  0.933E-03    1.62       0.0  T
   2    -80.3555644 -0.150311E-05  0.441E-03    1.62       3.7  T
   3    -80.3555645 -0.177573E-06  0.254E-03    1.62       6.4  T
   4    -80.3555646 -0.201782E-07  0.344E-04    1.62      47.1  T
   5    -80.3555646 -0.908713E-09  0.877E-05    1.62     185.0  T
   6    -80.3555646 -0.101295E-09  0.212E-05    1.62     766.7  T
     SCC iter.                  ...        0 min,  0.017 sec
     gradient                   ...        0 min,  0.069 sec
 * total energy  :   -79.6268464 Eh     change       -0.4789114E-04 Eh
   gradient norm :     0.0047756 Eh/α   predicted    -0.5020008E-04 (   4.82%)
   displ. norm   :     0.2628900 α      lambda       -0.6454572E-04
   maximum displ.:     0.1668065 α      in ANC's #2, #1, #6, ...

........................................................................
.............................. CYCLE   19 ..............................
........................................................................
   1    -80.3547318 -0.803547E+02  0.451E-03    1.62       0.0  T
   2    -80.3547322 -0.421836E-06  0.193E-03    1.63       8.4  T
   3    -80.3547323 -0.438053E-07  0.103E-03    1.62      15.7  T
   4    -80.3547323 -0.233437E-08  0.235E-04    1.62      69.1  T
   5    -80.3547323 -0.407937E-09  0.464E-05    1.62     349.3  T
   6    -80.3547323 -0.265885E-10  0.141E-05    1.62    1150.7  T
     SCC iter.                  ...        0 min,  0.017 sec
     gradient                   ...        0 min,  0.069 sec
 * total energy  :   -79.6269005 Eh     change       -0.5404528E-04 Eh
   gradient norm :     0.0033861 Eh/α   predicted    -0.3450589E-04 ( -36.15%)
   displ. norm   :     0.2749777 α      lambda       -0.7395804E-04
   maximum displ.:     0.1831076 α      in ANC's #2, #1, #3, ...

........................................................................
.............................. CYCLE   20 ..............................
........................................................................
   1    -80.3539580 -0.803540E+02  0.614E-03    1.63       0.0  T
   2    -80.3539590 -0.101364E-05  0.239E-03    1.63       6.8  T
   3    -80.3539591 -0.999112E-07  0.111E-03    1.63      14.6  T
   4    -80.3539591 -0.135641E-08  0.363E-04    1.63      44.7  T
   5    -80.3539591 -0.542613E-09  0.425E-05    1.63     382.0  T
   6    -80.3539591 -0.196110E-10  0.156E-05    1.63    1038.0  T
     SCC iter.                  ...        0 min,  0.018 sec
     gradient                   ...        0 min,  0.069 sec
 * total energy  :   -79.6269533 Eh     change       -0.5281045E-04 Eh
   gradient norm :     0.0034619 Eh/α   predicted    -0.3977977E-04 ( -24.67%)
   displ. norm   :     0.1865738 α      lambda       -0.5735485E-04
   maximum displ.:     0.1325449 α      in ANC's #2, #1, #5, ...
 * RMSD in coord.:     0.6134682 α      energy gain  -0.2020453E-01 Eh

generating ANC from model Hessian ...
Using Lindh-Hessian (1995)
 Shifting diagonal of input Hessian by   9.755627164374855E-003
 Lowest  eigenvalues of input Hessian
    0.000000    0.000000    0.000000    0.000000    0.000000    0.000000
    0.010000    0.010026    0.011018    0.011614    0.012218    0.012367
    0.012956    0.014063    0.014663    0.016551    0.018636    0.018884
 Highest eigenvalues
    2.070117    2.183922    2.242459    2.305862    2.370862    2.406791
 

........................................................................
.............................. CYCLE   21 ..............................
........................................................................
   1    -80.3548114 -0.803548E+02  0.420E-03    1.63       0.0  T
   2    -80.3548119 -0.472656E-06  0.182E-03    1.63       8.9  T
   3    -80.3548119 -0.159324E-07  0.982E-04    1.63      16.5  T
   4    -80.3548119 -0.858321E-09  0.312E-04    1.63      52.1  T
   5    -80.3548119 -0.100583E-08  0.417E-05    1.63     389.1  T
   6    -80.3548119 -0.456879E-10  0.117E-05    1.63    1384.4  T
     SCC iter.                  ...        0 min,  0.017 sec
     gradient                   ...        0 min,  0.069 sec
 * total energy  :   -79.6269968 Eh     change       -0.4347956E-04 Eh
   gradient norm :     0.0036309 Eh/α   predicted     0.0000000E+00 (-100.00%)
   displ. norm   :     0.0306526 α      lambda       -0.2633901E-04
   maximum displ.:     0.0160065 α      in ANC's #4, #1, #2, ...

........................................................................
.............................. CYCLE   22 ..............................
........................................................................
   1    -80.3549165 -0.803549E+02  0.261E-03    1.63       0.0  T
   2    -80.3549166 -0.117777E-06  0.125E-03    1.63      13.0  T
   3    -80.3549166 -0.589260E-08  0.666E-04    1.63      24.4  T
   4    -80.3549166 -0.654339E-09  0.142E-04    1.63     113.9  T
   5    -80.3549166 -0.216346E-09  0.300E-05    1.63     540.1  T
     SCC iter.                  ...        0 min,  0.017 sec
     gradient                   ...        0 min,  0.069 sec
 * total energy  :   -79.6270202 Eh     change       -0.2343178E-04 Eh
   gradient norm :     0.0016824 Eh/α   predicted    -0.1499515E-04 ( -36.01%)
   displ. norm   :     0.1192166 α      lambda       -0.3962361E-04
   maximum displ.:     0.0648966 α      in ANC's #4, #1, #2, ...

........................................................................
.............................. CYCLE   23 ..............................
........................................................................
   1    -80.3550632 -0.803551E+02  0.553E-03    1.62       0.0  T
   2    -80.3550639 -0.723593E-06  0.245E-03    1.62       6.6  T
   3    -80.3550640 -0.462148E-07  0.130E-03    1.62      12.5  T
   4    -80.3550640 -0.199861E-08  0.371E-04    1.62      43.7  T
   5    -80.3550640 -0.122880E-08  0.652E-05    1.62     248.8  T
   6    -80.3550640 -0.527791E-10  0.221E-05    1.62     734.6  T
     SCC iter.                  ...        0 min,  0.018 sec
     gradient                   ...        0 min,  0.070 sec
 * total energy  :   -79.6270516 Eh     change       -0.3143156E-04 Eh
   gradient norm :     0.0031334 Eh/α   predicted    -0.1993738E-04 ( -36.57%)
   displ. norm   :     0.0497726 α      lambda       -0.1798141E-04
   maximum displ.:     0.0261157 α      in ANC's #1, #4, #2, ...

........................................................................
.............................. CYCLE   24 ..............................
........................................................................
   1    -80.3550590 -0.803551E+02  0.107E-03    1.62       0.0  T
   2    -80.3550590 -0.293904E-07  0.496E-04    1.62      32.7  T
   3    -80.3550590 -0.274220E-08  0.265E-04    1.62      61.2  T
   4    -80.3550590 -0.107178E-09  0.616E-05    1.62     263.4  T
   5    -80.3550590 -0.562466E-10  0.159E-05    1.62    1019.1  T
     SCC iter.                  ...        0 min,  0.015 sec
     gradient                   ...        0 min,  0.070 sec
 * total energy  :   -79.6270679 Eh     change       -0.1630042E-04 Eh
   gradient norm :     0.0027387 Eh/α   predicted    -0.9013268E-05 ( -44.71%)
   displ. norm   :     0.1893182 α      lambda       -0.6270295E-04
   maximum displ.:     0.0986784 α      in ANC's #1, #4, #2, ...

........................................................................
.............................. CYCLE   25 ..............................
........................................................................
   1    -80.3548053 -0.803548E+02  0.354E-03    1.63       0.0  T
   2    -80.3548056 -0.247059E-06  0.173E-03    1.63       9.4  T
   3    -80.3548056 -0.146645E-07  0.931E-04    1.63      17.4  T
   4    -80.3548056 -0.234159E-08  0.206E-04    1.63      78.9  T
   5    -80.3548056 -0.702272E-09  0.566E-05    1.63     286.6  T
   6    -80.3548056 -0.330260E-10  0.147E-05    1.63    1105.3  T
     SCC iter.                  ...        0 min,  0.017 sec
     gradient                   ...        0 min,  0.069 sec
 * total energy  :   -79.6271100 Eh     change       -0.4209847E-04 Eh
   gradient norm :     0.0019615 Eh/α   predicted    -0.3248776E-04 ( -22.83%)
   displ. norm   :     0.1903288 α      lambda       -0.2264980E-04
   maximum displ.:     0.1041895 α      in ANC's #1, #2, #4, ...

........................................................................
.............................. CYCLE   26 ..............................
........................................................................
   1    -80.3545742 -0.803546E+02  0.210E-03    1.63       0.0  T
   2    -80.3545743 -0.971577E-07  0.972E-04    1.63      16.7  T
   3    -80.3545743 -0.497592E-08  0.511E-04    1.63      31.8  T
   4    -80.3545743 -0.679250E-09  0.126E-04    1.63     128.6  T
   5    -80.3545743 -0.117467E-09  0.342E-05    1.63     474.3  T
     SCC iter.                  ...        0 min,  0.015 sec
     gradient                   ...        0 min,  0.069 sec
 * total energy  :   -79.6271292 Eh     change       -0.1915964E-04 Eh
   gradient norm :     0.0024273 Eh/α   predicted    -0.1152546E-04 ( -39.85%)
   displ. norm   :     0.0475791 α      lambda       -0.1393410E-04
   maximum displ.:     0.0286264 α      in ANC's #1, #2, #10, ...

........................................................................
.............................. CYCLE   27 ..............................
........................................................................
   1    -80.3549672 -0.803550E+02  0.136E-03    1.63       0.0  T
   2    -80.3549672 -0.481463E-07  0.659E-04    1.63      24.6  T
   3    -80.3549672 -0.586340E-08  0.343E-04    1.63      47.2  T
   4    -80.3549672 -0.197360E-09  0.824E-05    1.63     196.8  T
   5    -80.3549672 -0.537597E-10  0.175E-05    1.63     925.0  T
     SCC iter.                  ...        0 min,  0.015 sec
     gradient                   ...        0 min,  0.069 sec
 * total energy  :   -79.6271411 Eh     change       -0.1195515E-04 Eh
   gradient norm :     0.0016709 Eh/α   predicted    -0.6983247E-05 ( -41.59%)
   displ. norm   :     0.1794181 α      lambda       -0.3076449E-04
   maximum displ.:     0.1070595 α      in ANC's #1, #2, #10, ...

........................................................................
.............................. CYCLE   28 ..............................
........................................................................
   1    -80.3556595 -0.803557E+02  0.491E-03    1.63       0.0  T
   2    -80.3556602 -0.781550E-06  0.230E-03    1.63       7.1  T
   3    -80.3556603 -0.901413E-07  0.114E-03    1.63      14.2  T
   4    -80.3556603 -0.168865E-08  0.360E-04    1.63      45.1  T
   5    -80.3556603 -0.796078E-09  0.631E-05    1.63     257.1  T
   6    -80.3556603 -0.600267E-10  0.169E-05    1.63     960.7  T
     SCC iter.                  ...        0 min,  0.019 sec
     gradient                   ...        0 min,  0.069 sec
 * total energy  :   -79.6271660 Eh     change       -0.2483734E-04 Eh
   gradient norm :     0.0021145 Eh/α   predicted    -0.1560305E-04 ( -37.18%)
   displ. norm   :     0.0674744 α      lambda       -0.1060914E-04
   maximum displ.:     0.0413364 α      in ANC's #1, #2, #10, ...

........................................................................
.............................. CYCLE   29 ..............................
........................................................................
   1    -80.3553833 -0.803554E+02  0.824E-04    1.63       0.0  T
   2    -80.3553833 -0.102044E-07  0.368E-04    1.63      44.1  T
   3    -80.3553833 -0.104042E-08  0.203E-04    1.63      79.8  T
   4    -80.3553833 -0.215110E-09  0.388E-05    1.63     418.2  T
   5    -80.3553833 -0.118234E-10  0.121E-05    1.63    1336.2  T
     SCC iter.                  ...        0 min,  0.016 sec
     gradient                   ...        0 min,  0.070 sec
 * total energy  :   -79.6271755 Eh     change       -0.9545991E-05 Eh
   gradient norm :     0.0017795 Eh/α   predicted    -0.5329764E-05 ( -44.17%)
   displ. norm   :     0.2769433 α      lambda       -0.3368026E-04
   maximum displ.:     0.1620534 α      in ANC's #1, #2, #10, ...

........................................................................
.............................. CYCLE   30 ..............................
........................................................................
   1    -80.3542525 -0.803543E+02  0.499E-03    1.62       0.0  T
   2    -80.3542530 -0.575817E-06  0.204E-03    1.62       8.0  T
   3    -80.3542531 -0.641943E-07  0.109E-03    1.62      14.9  T
   4    -80.3542531 -0.323482E-08  0.231E-04    1.62      70.3  T
   5    -80.3542531 -0.486779E-09  0.638E-05    1.62     254.1  T
   6    -80.3542531 -0.304254E-10  0.167E-05    1.62     971.1  T
     SCC iter.                  ...        0 min,  0.018 sec
     gradient                   ...        0 min,  0.070 sec
 * total energy  :   -79.6272054 Eh     change       -0.2985690E-04 Eh
   gradient norm :     0.0023633 Eh/α   predicted    -0.1742748E-04 ( -41.63%)
   displ. norm   :     0.0672322 α      lambda       -0.1262649E-04
   maximum displ.:     0.0361490 α      in ANC's #1, #2, #8, ...

........................................................................
.............................. CYCLE   31 ..............................
........................................................................
   1    -80.3545566 -0.803546E+02  0.142E-03    1.62       0.0  T
   2    -80.3545567 -0.523024E-07  0.563E-04    1.62      28.8  T
   3    -80.3545567 -0.559001E-08  0.268E-04    1.62      60.6  T
   4    -80.3545567 -0.177636E-09  0.808E-05    1.62     200.7  T
   5    -80.3545567 -0.407709E-10  0.164E-05    1.62     991.1  T
     SCC iter.                  ...        0 min,  0.015 sec
     gradient                   ...        0 min,  0.070 sec
 * total energy  :   -79.6272162 Eh     change       -0.1081880E-04 Eh
   gradient norm :     0.0019699 Eh/α   predicted    -0.6342326E-05 ( -41.38%)
   displ. norm   :     0.2529936 α      lambda       -0.2684781E-04
   maximum displ.:     0.1385664 α      in ANC's #1, #2, #6, ...

........................................................................
.............................. CYCLE   32 ..............................
........................................................................
   1    -80.3552334 -0.803552E+02  0.411E-03    1.63       0.0  T
   2    -80.3552338 -0.469971E-06  0.147E-03    1.63      11.1  T
   3    -80.3552339 -0.377916E-07  0.656E-04    1.63      24.7  T
   4    -80.3552339 -0.170181E-08  0.253E-04    1.63      64.1  T
   5    -80.3552339 -0.261167E-09  0.447E-05    1.63     362.6  T
   6    -80.3552339 -0.180762E-10  0.156E-05    1.63    1037.1  T
     SCC iter.                  ...        0 min,  0.017 sec
     gradient                   ...        0 min,  0.069 sec
 * total energy  :   -79.6272364 Eh     change       -0.2017760E-04 Eh
   gradient norm :     0.0014382 Eh/α   predicted    -0.1380613E-04 ( -31.58%)
   displ. norm   :     0.0579019 α      lambda       -0.4832495E-05
   maximum displ.:     0.0389624 α      in ANC's #1, #2, #10, ...

........................................................................
.............................. CYCLE   33 ..............................
........................................................................
   1    -80.3553063 -0.803553E+02  0.157E-03    1.63       0.0  T
   2    -80.3553064 -0.954834E-07  0.598E-04    1.63      27.1  T
   3    -80.3553064 -0.725557E-08  0.276E-04    1.63      58.7  T
   4    -80.3553064 -0.610214E-10  0.112E-04    1.63     145.4  T
   5    -80.3553064 -0.410978E-10  0.128E-05    1.63    1263.2  T
     SCC iter.                  ...        0 min,  0.015 sec
     gradient                   ...        0 min,  0.069 sec
 * total energy  :   -79.6272423 Eh     change       -0.5906154E-05 Eh
   gradient norm :     0.0008967 Eh/α   predicted    -0.2420148E-05 ( -59.02%)
   displ. norm   :     0.0893928 α      lambda       -0.8826178E-05
   maximum displ.:     0.0581394 α      in ANC's #1, #2, #7, ...

........................................................................
.............................. CYCLE   34 ..............................
........................................................................
   1    -80.3555479 -0.803555E+02  0.297E-03    1.63       0.0  T
   2    -80.3555482 -0.317486E-06  0.113E-03    1.63      14.3  T
   3    -80.3555482 -0.345749E-07  0.443E-04    1.63      36.6  T
   4    -80.3555482 -0.194220E-09  0.176E-04    1.63      92.0  T
   5    -80.3555482 -0.132303E-09  0.263E-05    1.63     615.9  T
     SCC iter.                  ...        0 min,  0.016 sec
     gradient                   ...        0 min,  0.070 sec
 * total energy  :   -79.6272510 Eh     change       -0.8743120E-05 Eh
   gradient norm :     0.0011260 Eh/α   predicted    -0.4430213E-05 ( -49.33%)
   displ. norm   :     0.1211649 α      lambda       -0.6144485E-05
   maximum displ.:     0.0794567 α      in ANC's #1, #2, #10, ...

........................................................................
.............................. CYCLE   35 ..............................
........................................................................
   1    -80.3549958 -0.803550E+02  0.171E-03    1.63       0.0  T
   2    -80.3549959 -0.512487E-07  0.840E-04    1.63      19.3  T
   3    -80.3549959 -0.668943E-08  0.450E-04    1.63      36.1  T
   4    -80.3549959 -0.586297E-09  0.767E-05    1.63     211.6  T
   5    -80.3549959 -0.650147E-10  0.228E-05    1.63     712.2  T
     SCC iter.                  ...        0 min,  0.015 sec
     gradient                   ...        0 min,  0.070 sec
 * total energy  :   -79.6272566 Eh     change       -0.5565683E-05 Eh
   gradient norm :     0.0015247 Eh/α   predicted    -0.3094338E-05 ( -44.40%)
   displ. norm   :     0.0779684 α      lambda       -0.5023359E-05
   maximum displ.:     0.0511923 α      in ANC's #1, #2, #6, ...

........................................................................
.............................. CYCLE   36 ..............................
........................................................................
   1    -80.3551666 -0.803552E+02  0.100E-03    1.63       0.0  T
   2    -80.3551666 -0.160781E-07  0.485E-04    1.63      33.5  T
   3    -80.3551666 -0.738282E-09  0.241E-04    1.63      67.5  T
   4    -80.3551666 -0.235403E-09  0.592E-05    1.63     273.9  T
   5    -80.3551666 -0.197105E-10  0.117E-05    1.63    1385.8  T
     SCC iter.                  ...        0 min,  0.015 sec
     gradient                   ...        0 min,  0.070 sec
 * total energy  :   -79.6272623 Eh     change       -0.5655039E-05 Eh
   gradient norm :     0.0009789 Eh/α   predicted    -0.2520962E-05 ( -55.42%)
   displ. norm   :     0.1112950 α      lambda       -0.5668265E-05
   maximum displ.:     0.0714526 α      in ANC's #1, #2, #6, ...

........................................................................
.............................. CYCLE   37 ..............................
........................................................................
   1    -80.3553347 -0.803553E+02  0.143E-03    1.63       0.0  T
   2    -80.3553348 -0.764584E-07  0.580E-04    1.63      28.0  T
   3    -80.3553348 -0.488413E-08  0.241E-04    1.63      67.3  T
   4    -80.3553348 -0.752038E-10  0.115E-04    1.63     141.3  T
   5    -80.3553348 -0.443521E-10  0.133E-05    1.63    1217.6  T
     SCC iter.                  ...        0 min,  0.016 sec
     gradient                   ...        0 min,  0.070 sec
 * total energy  :   -79.6272684 Eh     change       -0.6114820E-05 Eh
   gradient norm :     0.0005454 Eh/α   predicted    -0.2850643E-05 ( -53.38%)
   displ. norm   :     0.1026790 α      lambda       -0.4107529E-05
   maximum displ.:     0.0648265 α      in ANC's #1, #2, #3, ...

........................................................................
.............................. CYCLE   38 ..............................
........................................................................
   1    -80.3553363 -0.803553E+02  0.126E-03    1.63       0.0  T
   2    -80.3553363 -0.635638E-07  0.519E-04    1.63      31.2  T
   3    -80.3553363 -0.518891E-08  0.183E-04    1.63      88.6  T
   4    -80.3553363 -0.326565E-10  0.981E-05    1.63     165.3  T
     SCC iter.                  ...        0 min,  0.012 sec
     gradient                   ...        0 min,  0.069 sec
 * total energy  :   -79.6272731 Eh     change       -0.4727630E-05 Eh
   gradient norm :     0.0007546 Eh/α   predicted    -0.2064765E-05 ( -56.33%)
   displ. norm   :     0.1047976 α      lambda       -0.3993810E-05
   maximum displ.:     0.0650814 α      in ANC's #1, #2, #3, ...

   *** GEOMETRY OPTIMIZATION CONVERGED AFTER 38 ITERATIONS ***

------------------------------------------------------------------------
 total energy gain   :        -0.0205243 Eh      -12.8792 kcal/mol
 total RMSD          :         0.8076123 a0        0.4274 Å
 total power (kW/mol):        -1.4180697 (step)  -12.0700 (real)
------------------------------------------------------------------------

 ANCopt (total)                0 d,  0 h,  0 min,  4.465 sec
 optimizer setup                ...        0 min,  0.001 sec (  0.015%)
 model hessian                  ...        0 min,  0.042 sec (  0.948%)
 ANC generation                 ...        0 min,  0.004 sec (  0.092%)
 coordinate transformation      ...        0 min,  0.001 sec (  0.032%)
 single point calculation       ...        0 min,  4.397 sec ( 98.479%)
 optimization log               ...        0 min,  0.009 sec (  0.212%)
 hessian update                 ...        0 min,  0.001 sec (  0.026%)
 rational function              ...        0 min,  0.005 sec (  0.119%)

================
 final structure:
================
38
 xtb: 6.5.1 (579679a)
C           -6.54239100526662       -0.74406860062712        0.03843595315262
O           -5.27634674132703       -0.72837493004703       -0.60327289202777
C           -4.26014733950007       -0.17369581768774        0.10732469855039
O           -4.45910751931339        0.26744418601259        1.23426401673765
C           -2.97740654921123       -0.15319216001382       -0.57762065046968
N           -1.97903329985036        0.44009964291984        0.17653255025368
C           -0.79178070705277        0.54308197870031       -0.28646753456314
C            0.29860216335488        1.23298576083913        0.50729238564637
C            0.54016448269130        2.63254267437418       -0.06697171744645
C           -0.09182801713969        1.31412898020316        1.98536067222321
N            1.55249348762470        0.48115857869271        0.35779569029687
C            1.66406486517125       -0.82011686516976        0.68888121741072
O            0.74892980349550       -1.53154070657524        1.06973900611066
C            3.04600652671724       -1.34200341795959        0.51736046669980
N            3.46173441966309       -2.55399141561921        0.71702234891207
N            4.79375358682780       -2.56668847014196        0.42229854145961
C            5.10725586957648       -1.36236689440039        0.06102951796982
C            6.43168872860864       -0.85647191699763       -0.35931468603603
O            4.04724099411338       -0.53755219025011        0.09867269169602
N           -0.45102853216785        0.09029606017855       -1.54521861567534
C           -1.33234082467980       -0.52547646081339       -2.39428832883576
O           -0.95263335936328       -0.90336587379031       -3.50095854443061
C           -2.74541633651466       -0.68346810703835       -1.87398872532790
O           -3.58420755115002       -1.24771770459979       -2.60138548861979
H           -6.87789321406912        0.27411819283941        0.25907324913926
H           -6.49760275589839       -1.30892194800956        0.97500033666684
H           -7.24260708095921       -1.22127103887815       -0.64619929477301
H            0.82798107896180        2.56518647364767       -1.11465577487611
H            1.33356242390927        3.13339445489748        0.48434526037824
H           -0.37077890542490        3.22427386512925        0.01133648213131
H            0.69674209684293        1.80491669799662        2.55137637622310
H           -1.01405617045352        1.88631355989145        2.07973709674383
H           -0.25648497322221        0.31523010416407        2.38803713567625
H            2.38330300012883        0.99633488406758        0.12977737132374
H            7.16172037855571       -1.66085124988658       -0.31870488599932
H            6.74438720715630       -0.04448929900503        0.29632702744548
H            6.37484880475637       -0.46446744037637       -1.37463254835298
H            0.48861196441231        0.22858741333954       -1.87681340541384
 
 Bond Distances (Angstroems)
 ---------------------------
C1-O2=1.4195         C1-H25=1.0945        C1-H26=1.0946        C1-H27=1.0894        O2-C1=1.4195         O2-C3=1.3584         
C3-O2=1.3584         C3-O4=1.2265         C3-C5=1.4543         O4-C3=1.2265         C5-C3=1.4543         C5-N6=1.3847         
C5-C23=1.4197        N6-C5=1.3847         N6-C7=1.2785         C7-N6=1.2785         C7-C8=1.5149         C7-N20=1.3804        
C8-C7=1.5149         C8-C9=1.5320         C8-C10=1.5309        C8-N11=1.4696        C9-C8=1.5320         C9-H28=1.0886        
C9-H29=1.0882        C9-H30=1.0891        C10-C8=1.5309        C10-H31=1.0877       C10-H32=1.0894       C10-H33=1.0895       
N11-C8=1.4696        N11-C12=1.3474       N11-H34=1.0038       C12-N11=1.3474       C12-O13=1.2201       C12-C14=1.4871       
O13-C12=1.2201       C14-C12=1.4871       C14-N15=1.2968       C14-O19=1.3509       N15-C14=1.2968       N15-N16=1.3643       
N16-N15=1.3643       N16-C17=1.2958       C17-N16=1.2958       C17-C18=1.4788       C17-O19=1.3436       C18-C17=1.4788       
C18-H35=1.0870       C18-H36=1.0895       C18-H37=1.0898       O19-C14=1.3509       O19-C17=1.3436       N20-C7=1.3804        
N20-C21=1.3700       N20-H38=1.0060       C21-N20=1.3700       C21-O22=1.2295       C21-C23=1.5141       O22-C21=1.2295       
C23-C5=1.4197        C23-C21=1.5141       C23-O24=1.2454       O24-C23=1.2454       H25-C1=1.0945        H26-C1=1.0946        
H27-C1=1.0894        H28-C9=1.0886        H29-C9=1.0882        H30-C9=1.0891        H31-C10=1.0877       H32-C10=1.0894       
H33-C10=1.0895       H34-N11=1.0038       H35-C18=1.0870       H36-C18=1.0895       H37-C18=1.0898       H38-N20=1.0060       
 C  H  Rav=1.0898 sigma=0.0023  Rmin=1.0870  Rmax=1.0946    12
 C  C  Rav=1.4915 sigma=0.0370  Rmin=1.4197  Rmax=1.5320     8
 N  H  Rav=1.0049 sigma=0.0011  Rmin=1.0038  Rmax=1.0060     2
 N  C  Rav=1.3529 sigma=0.0588  Rmin=1.2785  Rmax=1.4696     8
 N  N  Rav=1.3643 sigma=0.0000  Rmin=1.3643  Rmax=1.3643     1
 O  C  Rav=1.2992 sigma=0.0724  Rmin=1.2201  Rmax=1.4195     8
 
 selected bond angles (degree)
 --------------------
H25-C1-O2=110.75               H26-C1-O2=110.86               H26-C1-H25=108.67              H27-C1-O2=107.10               
H27-C1-H25=109.70              H27-C1-H26=109.75              C3-O2-C1=115.80                O4-C3-O2=120.41                
C5-C3-O2=114.78                C5-C3-O4=124.80                N6-C5-C3=112.67                C23-C5-C3=124.68               
C23-C5-N6=122.65               C7-N6-C5=120.45                C8-C7-N6=121.02                N20-C7-N6=122.21               
N20-C7-C8=116.71               C9-C8-C7=109.46                C10-C8-C7=110.27               C10-C8-C9=110.71               
N11-C8-C7=109.14               N11-C8-C9=107.14               N11-C8-C10=110.05              H28-C9-C8=110.24               
H29-C9-C8=110.21               H29-C9-H28=108.86              H30-C9-C8=109.73               H30-C9-H28=108.90              
H30-C9-H29=108.86              H31-C10-C8=109.96              H32-C10-C8=109.11              H32-C10-H31=109.37             
H33-C10-C8=110.29              H33-C10-H31=109.32             H33-C10-H32=108.76             
 
 selected dihedral angles (degree)
 ---------------------------------
C3-O2-C1-H25= 60.84           C3-O2-C1-H26=300.14           C3-O2-C1-H27=180.43           O4-C3-O2-C1=  0.49            
C5-C3-O2-C1=180.78            N6-C5-C3-O2=179.02            N6-C5-C3-O4=359.32            C23-C5-C3-O2=358.67           
C23-C5-C3-O4=178.97           C7-N6-C5-C3=180.34            C7-N6-C5-C23=  0.68           C8-C7-N6-C5=177.83            
N20-C7-N6-C5=  0.72           C9-C8-C7-N6=256.83            C9-C8-C7-N20= 74.09           C10-C8-C7-N6= 18.86           
C10-C8-C7-N20=196.13          N11-C8-C7-N6=139.87           N11-C8-C7-N20=317.13          H28-C9-C8-C7=301.13           
H28-C9-C8-C10=179.37          H28-C9-C8-N11= 59.35          H29-C9-C8-C7=180.94           H29-C9-C8-C10= 59.17          
H29-C9-C8-N11=299.16          H30-C9-C8-C7= 61.07           H30-C9-C8-C10=299.30          H30-C9-C8-N11=179.28          
H31-C10-C8-C7=179.67          H31-C10-C8-C9=300.96          H31-C10-C8-N11= 59.22         H32-C10-C8-C7=299.62          
H32-C10-C8-C9= 60.91          H32-C10-C8-N11=179.17         H33-C10-C8-C7= 59.03          H33-C10-C8-C9=180.32          
H33-C10-C8-N11=298.57         
           -------------------------------------------------
          |                Final Singlepoint                |
           -------------------------------------------------

          ...................................................
          :                      SETUP                      :
          :.................................................:
          :  # basis functions                 124          :
          :  # atomic orbitals                 124          :
          :  # shells                           76          :
          :  # electrons                       128          :
          :  # halogen bonds                     0          :
          :  max. iterations                   250          :
          :  Hamiltonian                  GFN1-xTB          :
          :  restarted?                      false          :
          :  GBSA solvation                   true          :
          :  PC potential                    false          :
          :  electronic temp.          300.0000000     K    :
          :  accuracy                    1.0000000          :
          :  -> integral cutoff          0.2500000E+02      :
          :  -> integral neglect         0.1000000E-07      :
          :  -> SCF convergence          0.1000000E-05 Eh   :
          :  -> wf. convergence          0.2000000E-04 e    :
          :  Broyden damping             0.4000000          :
          ...................................................

 iter      E             dE          RMSdq      gap      omega  full diag
   1    -80.3553363 -0.803553E+02  0.120E-05    1.63       0.0  T
   2    -80.3553363 -0.336797E-11  0.536E-06    1.63    3026.7  T
   3    -80.3553363 -0.483169E-12  0.272E-06    1.63    5968.5  T

   *** convergence criteria satisfied after 3 iterations ***

         #    Occupation            Energy/Eh            Energy/eV
      -------------------------------------------------------------
         1        2.0000           -0.8607448             -23.4221
       ...           ...                  ...                  ...
        58        2.0000           -0.4468092             -12.1583
        59        2.0000           -0.4417102             -12.0195
        60        2.0000           -0.4370109             -11.8917
        61        2.0000           -0.4347527             -11.8302
        62        2.0000           -0.4134568             -11.2507
        63        2.0000           -0.3771232             -10.2620
        64        2.0000           -0.3638584              -9.9011 (HOMO)
        65                         -0.3040542              -8.2737 (LUMO)
        66                         -0.2684525              -7.3050
        67                         -0.2525844              -6.8732
        68                         -0.2359471              -6.4204
        69                         -0.1954744              -5.3191
       ...                                ...                  ...
       124                          0.7549888              20.5443
      -------------------------------------------------------------
                  HL-Gap            0.0598042 Eh            1.6274 eV
             Fermi-level           -0.3339563 Eh           -9.0874 eV

 SCC (total)                   0 d,  0 h,  0 min,  0.111 sec
 SCC setup                      ...        0 min,  0.002 sec (  1.374%)
 Dispersion                     ...        0 min,  0.000 sec (  0.257%)
 classical contributions        ...        0 min,  0.000 sec (  0.080%)
 integral evaluation            ...        0 min,  0.030 sec ( 27.133%)
 iterations                     ...        0 min,  0.009 sec (  8.355%)
 molecular gradient             ...        0 min,  0.069 sec ( 62.092%)
 printout                       ...        0 min,  0.001 sec (  0.667%)

         :::::::::::::::::::::::::::::::::::::::::::::::::::::
         ::                     SUMMARY                     ::
         :::::::::::::::::::::::::::::::::::::::::::::::::::::
         :: total energy             -79.627273095859 Eh    ::
         :: total w/o Gsasa/hb       -79.607545984552 Eh    ::
         :: gradient norm              0.000754876540 Eh/a0 ::
         :: HOMO-LUMO gap              1.627354029121 eV    ::
         ::.................................................::
         :: SCC energy               -80.355336330390 Eh    ::
         :: -> electrostatic           0.492048839127 Eh    ::
         :: -> Gsolv                  -0.142128194375 Eh    ::
         ::    -> Gelec               -0.122401083069 Eh    ::
         ::    -> Gsasa               -0.023784942121 Eh    ::
         ::    -> Ghb                 -0.003566448190 Eh    ::
         ::    -> Gshift               0.007624279005 Eh    ::
         :: repulsion energy           0.751261293936 Eh    ::
         :: dispersion energy         -0.023198059404 Eh    ::
         :: halogen bond corr.         0.000000000000 Eh    ::
         :: add. restraining           0.000000000000 Eh    ::
         :: total charge              -1.000000000000 e     ::
         :::::::::::::::::::::::::::::::::::::::::::::::::::::

           -------------------------------------------------
          |                Property Printout                |
           -------------------------------------------------

    * Orbital Energies and Occupations

         #    Occupation            Energy/Eh            Energy/eV
      -------------------------------------------------------------
         1        2.0000           -0.8607448             -23.4221
       ...           ...                  ...                  ...
        52        2.0000           -0.4814357             -13.1005
        53        2.0000           -0.4749729             -12.9247
        54        2.0000           -0.4639540             -12.6248
        55        2.0000           -0.4593218             -12.4988
        56        2.0000           -0.4545795             -12.3697
        57        2.0000           -0.4540709             -12.3559
        58        2.0000           -0.4468092             -12.1583
        59        2.0000           -0.4417102             -12.0195
        60        2.0000           -0.4370109             -11.8917
        61        2.0000           -0.4347527             -11.8302
        62        2.0000           -0.4134568             -11.2507
        63        2.0000           -0.3771232             -10.2620
        64        2.0000           -0.3638584              -9.9011 (HOMO)
        65                         -0.3040542              -8.2737 (LUMO)
        66                         -0.2684525              -7.3050
        67                         -0.2525844              -6.8732
        68                         -0.2359471              -6.4204
        69                         -0.1954744              -5.3191
        70                         -0.1918587              -5.2207
        71                         -0.1395528              -3.7974
        72                         -0.1242696              -3.3815
        73                         -0.1214038              -3.3036
        74                         -0.1129859              -3.0745
        75                         -0.1071213              -2.9149
       ...                                ...                  ...
       124                          0.7549888              20.5443
      -------------------------------------------------------------
                  HL-Gap            0.0598042 Eh            1.6274 eV
             Fermi-level           -0.3339563 Eh           -9.0874 eV

  Mulliken/CM5 charges         n(s)   n(p)   n(d)
     1C     0.17289  0.05353   0.970  2.857  0.000
     2O    -0.43199 -0.51462   1.688  4.744  0.000
     3C     0.54513  0.60974   0.977  2.478  0.000
     4O    -0.62652 -0.66985   1.735  4.891  0.000
     5C    -0.02097  0.05449   1.039  2.982  0.000
     6N    -0.37956 -0.56384   1.532  3.848  0.000
     7C     0.25008  0.40255   0.999  2.751  0.000
     8C     0.15113  0.19062   1.065  2.784  0.000
     9C    -0.11229 -0.25304   1.022  3.090  0.000
    10C    -0.09438 -0.23265   1.014  3.080  0.000
    11N    -0.34601 -0.70341   1.435  3.911  0.000
    12C     0.46660  0.57669   0.976  2.558  0.000
    13O    -0.58489 -0.62483   1.727  4.858  0.000
    14C     0.33097  0.45672   1.010  2.659  0.000
    15N    -0.22754 -0.33142   1.567  3.660  0.000
    16N    -0.27197 -0.37983   1.565  3.707  0.000
    17C     0.39082  0.49960   1.006  2.603  0.000
    18C    -0.11193 -0.24940   1.012  3.100  0.000
    19O    -0.35797 -0.41463   1.697  4.661  0.000
    20N    -0.31546 -0.65946   1.433  3.882  0.000
    21C     0.42601  0.52974   1.010  2.564  0.000
    22O    -0.61437 -0.65163   1.736  4.878  0.000
    23C     0.28606  0.33142   1.033  2.680  0.000
    24O    -0.63745 -0.67538   1.744  4.893  0.000
    25H     0.03234  0.09402   0.968  0.000  0.000
    26H     0.03220  0.09396   0.968  0.000  0.000
    27H     0.03374  0.09402   0.966  0.000  0.000
    28H     0.04750  0.10538   0.953  0.000  0.000
    29H     0.05087  0.10642   0.949  0.000  0.000
    30H     0.04940  0.10403   0.951  0.000  0.000
    31H     0.03602  0.09180   0.964  0.000  0.000
    32H     0.04141  0.09904   0.959  0.000  0.000
    33H     0.04957  0.11131   0.950  0.000  0.000
    34H     0.26367  0.47035   0.736  0.000  0.000
    35H     0.06806  0.12387   0.932  0.000  0.000
    36H     0.07877  0.13335   0.921  0.000  0.000
    37H     0.07927  0.13379   0.921  0.000  0.000
    38H     0.25077  0.45754   0.749  0.000  0.000

Wiberg/Mayer (AO) data.
largest (>0.10) Wiberg bond orders for each atom

 ---------------------------------------------------------------------------
     #   Z sym  total        # sym  WBO       # sym  WBO       # sym  WBO
 ---------------------------------------------------------------------------
     1   6 C    3.900 --    27 H    0.987    25 H    0.980    26 H    0.980
                             2 O    0.926
     2   8 O    2.159 --     3 C    1.045     1 C    0.926     4 O    0.109
     3   6 C    3.850 --     4 O    1.573     5 C    1.117     2 O    1.045
     4   8 O    1.849 --     3 C    1.573     2 O    0.109
     5   6 C    3.916 --    23 C    1.274     6 N    1.149     3 C    1.117
                            24 O    0.130
     6   7 N    3.030 --     7 C    1.640     5 C    1.149
     7   6 C    3.933 --     6 N    1.640    20 N    1.091     8 C    0.973
     8   6 C    3.932 --    10 C    0.992     9 C    0.989     7 C    0.973
                            11 N    0.915
     9   6 C    3.991 --     8 C    0.989    28 H    0.984    30 H    0.984
                            29 H    0.984
    10   6 C    3.991 --     8 C    0.992    31 H    0.987    32 H    0.983
                            33 H    0.981
    11   7 N    3.354 --    12 C    1.264     8 C    0.915    34 H    0.895
                            13 O    0.179
    12   6 C    3.920 --    13 O    1.584    11 N    1.264    14 C    0.988
    13   8 O    1.887 --    12 C    1.584    11 N    0.179
    14   6 C    3.870 --    15 N    1.625    19 O    1.048    12 C    0.988
    15   7 N    2.997 --    14 C    1.625    16 N    1.194
    16   7 N    2.981 --    17 C    1.615    15 N    1.194
    17   6 C    3.870 --    16 N    1.615    19 O    1.072    18 C    1.031
    18   6 C    3.987 --    17 C    1.031    35 H    0.983    36 H    0.964
                            37 H    0.963
    19   8 O    2.315 --    17 C    1.072    14 C    1.048
    20   7 N    3.427 --    21 C    1.165     7 C    1.091    38 H    0.898
                            22 O    0.136
    21   6 C    3.879 --    22 O    1.574    20 N    1.165    23 C    0.968
    22   8 O    1.855 --    21 C    1.574    20 N    0.136
    23   6 C    3.943 --    24 O    1.517     5 C    1.274    21 C    0.968
    24   8 O    1.822 --    23 C    1.517     5 C    0.130
    25   1 H    1.014 --     1 C    0.980
    26   1 H    1.014 --     1 C    0.980
    27   1 H    1.016 --     1 C    0.987
    28   1 H    1.000 --     9 C    0.984
    29   1 H    0.998 --     9 C    0.984
    30   1 H    1.003 --     9 C    0.984
    31   1 H    1.003 --    10 C    0.987
    32   1 H    1.013 --    10 C    0.983
    33   1 H    1.014 --    10 C    0.981
    34   1 H    0.937 --    11 N    0.895
    35   1 H    0.999 --    18 C    0.983
    36   1 H    0.997 --    18 C    0.964
    37   1 H    0.997 --    18 C    0.963
    38   1 H    0.949 --    20 N    0.898
 ---------------------------------------------------------------------------

Topologies differ in total number of bonds
Writing topology from bond orders to xtbtopo.mol

 dipole moment from electron density (au)
     X       Y       Z   
   8.4759   5.0353   2.1163  total (Debye):   25.629

           -------------------------------------------------
          |                Geometry Summary                 |
           -------------------------------------------------

      molecular mass/u    :      336.2806828
   center of mass at/Å    :       -0.1913598      -0.3982154      -0.2468903
  moments of inertia/u·Å² :        0.9849980E+03   0.4468626E+04   0.4713163E+04
rotational constants/cm⁻¹ :        0.1711438E-01   0.3772442E-02   0.3576713E-02

 * 32 selected distances

     #   Z          #   Z                                           value/Å
     1   6 C        2   8 O                                       1.4194735
     2   8 O        3   6 C                                       1.3584106
     3   6 C        4   8 O                                       1.2264510
     6   7 N        7   6 C                                       1.2784927
     8   6 C        9   6 C                                       1.5319568 (max)
     8   6 C       10   6 C                                       1.5309168
     8   6 C       11   7 N                                       1.4696385
    11   7 N       12   6 C                                       1.3473618
    12   6 C       13   8 O                                       1.2201020
    14   6 C       15   7 N                                       1.2967690
    16   7 N       17   6 C                                       1.2958355
    17   6 C       18   6 C                                       1.4787636
    14   6 C       19   8 O                                       1.3508930
    17   6 C       19   8 O                                       1.3436399
     7   6 C       20   7 N                                       1.3804281
    20   7 N       21   6 C                                       1.3699660
    21   6 C       22   8 O                                       1.2295110
     5   6 C       23   6 C                                       1.4197122
     1   6 C       25   1 H                                       1.0945077
     1   6 C       26   1 H                                       1.0946316
     1   6 C       27   1 H                                       1.0893807
     9   6 C       28   1 H                                       1.0885850
     9   6 C       29   1 H                                       1.0882479
     9   6 C       30   1 H                                       1.0890804
    10   6 C       31   1 H                                       1.0876991
    10   6 C       32   1 H                                       1.0894068
    10   6 C       33   1 H                                       1.0895226
    11   7 N       34   1 H                                       1.0038145 (min)
    18   6 C       35   1 H                                       1.0870242
    18   6 C       36   1 H                                       1.0894780
    18   6 C       37   1 H                                       1.0898481
    20   7 N       38   1 H                                       1.0059841

 * 5 distinct bonds (by element types)

   Z      Z             #   av. dist./Å        max./Å        min./Å
   1 H    6 C          12     1.0897843     1.0946316     1.0870242
   6 C    6 C           4     1.4903373     1.5319568     1.4197122
   1 H    7 N           2     1.0048993     1.0059841     1.0038145
   6 C    7 N           7     1.3483559     1.4696385     1.2784927
   6 C    8 O           7     1.3069259     1.4194735     1.2201020


optimized geometry written to: xtbopt.xyz


           -------------------------------------------------
          | TOTAL ENERGY              -79.627273095859 Eh   |
          | GRADIENT NORM               0.000754876540 Eh/α |
          | HOMO-LUMO GAP               1.627354029121 eV   |
           -------------------------------------------------

------------------------------------------------------------------------
 * finished run on 2023/06/21 at 17:03:46.768     
------------------------------------------------------------------------
 total:
 * wall-time:     0 d,  0 h,  0 min,  4.811 sec
 *  cpu-time:     0 d,  0 h,  0 min,  4.646 sec
 * ratio c/w:     0.966 speedup
 SCF:
 * wall-time:     0 d,  0 h,  0 min,  0.106 sec
 *  cpu-time:     0 d,  0 h,  0 min,  0.094 sec
 * ratio c/w:     0.885 speedup
 ANC optimizer:
 * wall-time:     0 d,  0 h,  0 min,  4.595 sec
 *  cpu-time:     0 d,  0 h,  0 min,  4.506 sec
 * ratio c/w:     0.981 speedup

