42
 energy: -83.006595748930 gnorm: 0.000414119607 xtb: 6.5.1 (579679a)
C            4.58799306581703        2.77561895559991        0.23635101107286
O            3.57645410888005        1.75879060135741        0.25874366213318
C            3.94938926148411        0.54047917799501       -0.09407263863255
O            5.06544454326702        0.23957635219374       -0.43472563288491
C            2.77934724931402       -0.43005848160951       -0.05639098820726
N            1.68727141604193       -0.00225747313398        0.73288585770126
C            0.56809053666769       -0.59962744937554        0.61560691574311
C           -0.55614942712111       -0.29468856974110        1.58285879495765
C           -0.28107287882874        1.01139314855701        2.33235866639326
C           -0.64821963511074       -1.48574124427307        2.54954594482986
N           -1.79264705961537       -0.16884184990083        0.80330799202203
C           -3.01085052570343       -0.02202278960988        1.37643815160299
O           -3.25039568458761       -0.11047509319121        2.56730048926461
C           -4.07550185167694        0.23521071877900        0.37520003032763
N           -5.35249931453740        0.32680236091196        0.57973805473626
N           -5.93009931245893        0.55575287032520       -0.63259111002506
C           -4.96999375900894        0.59225071645352       -1.50342454158921
C           -5.07277665596390        0.82443451024815       -2.96019710833145
O           -3.77044353439000        0.39625398842839       -0.93136355259852
N            0.30340656890843       -1.55683195746562       -0.34244981474055
C            1.14067230115649       -1.82159339651074       -1.40124841484009
O            0.73942297289242       -2.35276830706709       -2.41376672406200
C            2.56129029198793       -1.38618685750975       -1.19589531710938
C            3.44673778424696       -1.45110555362655       -2.41698922231889
O            3.11329174830585       -1.78278693236344        0.03371570337482
H            5.33727498928169        2.56993370823030        1.00355410430012
H            4.08351447656654        3.71714102517657        0.44017981803515
H            5.06683973692788        2.80140711096442       -0.74447654278223
H            0.65792953380493        0.92798811507280        2.87718699446629
H           -0.20680651779018        1.83582322909864        1.62555926156192
H           -1.08840629113480        1.21066696080137        3.03472119923635
H           -1.36359646568384       -1.27793580608991        3.34213333575244
H           -0.96013989951502       -2.37877157819360        2.01124928692631
H            0.33084429833475       -1.66108004635461        2.99326264911706
H           -1.70744751236524        0.08340957570391       -0.16758505060552
H           -4.49148390437278        0.07611010750853       -3.49725225692885
H           -6.11481836524000        0.77719100157078       -3.26800767179821
H           -4.66822093016103        1.80661121393899       -3.20714177353799
H           -0.65157136537601       -1.86079893696177       -0.46040123724412
H            4.49085444710951       -1.34485845876206       -2.13294630229986
H            3.30191179680336       -2.41320057401673       -2.90803617567107
H            3.17515576284567       -0.66120809315696       -3.11477284734476
