      -----------------------------------------------------------      
     |                   =====================                   |     
     |                           x T B                           |     
     |                   =====================                   |     
     |                         S. Grimme                         |     
     |          Mulliken Center for Theoretical Chemistry        |     
     |                    University of Bonn                     |     
      -----------------------------------------------------------      

   * xtb version 6.5.1 (579679a) compiled by 'ehlert@majestix' on 2022-07-11

   xtb is free software: you can redistribute it and/or modify it under
   the terms of the GNU Lesser General Public License as published by
   the Free Software Foundation, either version 3 of the License, or
   (at your option) any later version.
   
   xtb is distributed in the hope that it will be useful,
   but WITHOUT ANY WARRANTY; without even the implied warranty of
   MERCHANTABILITY or FITNESS FOR A PARTICULAR PURPOSE.  See the
   GNU Lesser General Public License for more details.
   
   Cite this work as:
   * C. Bannwarth, E. Caldeweyher, S. Ehlert, A. Hansen, P. Pracht,
     J. Seibert, S. Spicher, S. Grimme, WIREs Comput. Mol. Sci., 2020, 11,
     e01493. DOI: 10.1002/wcms.1493
   
   for GFN2-xTB:
   * C. Bannwarth, S. Ehlert and S. Grimme., J. Chem. Theory Comput., 2019,
     15, 1652-1671. DOI: 10.1021/acs.jctc.8b01176
   for GFN1-xTB:
   * S. Grimme, C. Bannwarth, P. Shushkov, J. Chem. Theory Comput., 2017,
     13, 1989-2009. DOI: 10.1021/acs.jctc.7b00118
   for GFN0-xTB:
   * P. Pracht, E. Caldeweyher, S. Ehlert, S. Grimme, ChemRxiv, 2019, preprint.
     DOI: 10.26434/chemrxiv.8326202.v1
   for GFN-FF:
   * S. Spicher and S. Grimme, Angew. Chem. Int. Ed., 2020, 59, 15665-15673.
     DOI: 10.1002/anie.202004239
   
   for ALPB and GBSA implicit solvation:
   * S. Ehlert, M. Stahn, S. Spicher, S. Grimme, J. Chem. Theory Comput.,
     2021, 17, 4250-4261. DOI: 10.1021/acs.jctc.1c00471
   
   for DFT-D4:
   * E. Caldeweyher, C. Bannwarth and S. Grimme, J. Chem. Phys., 2017,
     147, 034112. DOI: 10.1063/1.4993215
   * E. Caldeweyher, S. Ehlert, A. Hansen, H. Neugebauer, S. Spicher,
     C. Bannwarth and S. Grimme, J. Chem. Phys., 2019, 150, 154122.
     DOI: 10.1063/1.5090222
   * E. Caldeweyher, J.-M. Mewes, S. Ehlert and S. Grimme, Phys. Chem. Chem. Phys.
     2020, 22, 8499-8512. DOI: 10.1039/D0CP00502A
   
   for sTDA-xTB:
   * S. Grimme and C. Bannwarth, J. Chem. Phys., 2016, 145, 054103.
     DOI: 10.1063/1.4959605
   
   in the mass-spec context:
   * V. Asgeirsson, C. Bauer and S. Grimme, Chem. Sci., 2017, 8, 4879.
     DOI: 10.1039/c7sc00601b
   * J. Koopman and S. Grimme, ACS Omega 2019, 4, 12, 15120-15133.
     DOI: 10.1021/acsomega.9b02011
   
   for metadynamics refer to:
   * S. Grimme, J. Chem. Theory Comput., 2019, 155, 2847-2862
     DOI: 10.1021/acs.jctc.9b00143
   
   for SPH calculations refer to:
   * S. Spicher and S. Grimme, J. Chem. Theory Comput., 2021, 17, 1701-1714
     DOI: 10.1021/acs.jctc.0c01306
   
   with help from (in alphabetical order)
   P. Atkinson, C. Bannwarth, F. Bohle, G. Brandenburg, E. Caldeweyher
   M. Checinski, S. Dohm, S. Ehlert, S. Ehrlich, I. Gerasimov, C. Hölzer
   A. Katbashev, J. Koopman, C. Lavigne, S. Lehtola, F. März, M. Müller,
   F. Musil, H. Neugebauer, J. Pisarek, C. Plett, P. Pracht, F. Pultar,
   J. Seibert, P. Shushkov, S. Spicher, M. Stahn, M. Steiner, T. Strunk,
   J. Stückrath, T. Rose, and J. Unsleber
   
 * started run on 2023/06/20 at 15:26:55.673     

           -------------------------------------------------
          |                Calculation Setup                |
           -------------------------------------------------

          program call               : /lustre/hpc/kemi/ree/PhD/git/ReactivityQM/dep/xtb-6.5.1/bin/xtb --gfn 1 /lustre/hpc/kemi/ree/PhD/git/ReactivityQM/calculations/RaltegravirCLI/reac02prodN08/conf03/RaltegravirCLI_reac02prodN08_conf03_gfn1.xyz --opt --vfukui --chrg 1 --uhf 0 --alpb DMSO
          hostname                   : node308
          coordinate file            : /lustre/hpc/kemi/ree/PhD/git/ReactivityQM/calculations/RaltegravirCLI/reac02prodN08/conf03/RaltegravirCLI_reac02prodN08_conf03_gfn1.xyz
          omp threads                :                     1

   ID    Z sym.   atoms
    1    6 C      1, 3-6, 9, 10, 13-18, 20-22, 24
    2    7 N      2, 7, 8, 12
    3    8 O      11, 23, 25
    4    9 F      19
    5    1 H      26-47

           -------------------------------------------------
          |                 G F N 1 - x T B                 |
           -------------------------------------------------

        Reference                      10.1021/acs.jctc.7b00118
      * Hamiltonian:
        H0-scaling (s, p, d)           1.850000    2.250000    2.000000
        zeta-weighting                 0.000000
      * Dispersion:
        s8                             2.400000
        a1                             0.630000
        a2                             5.000000
        s9                             0.000000
      * Repulsion:
        kExp                           1.500000
        rExp                           1.000000
      * Coulomb:
        alpha                          2.000000
        third order                    atomic
        anisotropic                    false
      * Halogen bond correction:
        rad-scale                      1.300000
        damping                        0.440000

      * Solvation model:               ALPB
        Solvent                        DMSO
        Parameter file                 internal GFN1-xTB/ALPB
        Dielectric constant                4.6680E+01
        Reference state                gsolv [1 M gas/solution]
        Free energy shift                  7.6243E-03 Eh       4.7843E+00 kcal/mol
        Temperature                        2.9815E+02 K
        Density                            1.1000E+00 kg/L
        Solvent mass                       7.8130E+01 g/mol
        Interaction kernel             P16
        Born radius scaling (c1)           1.7672E+00
        Born radii integrator          GBOBC
        Born offset                        0.0000E+00 a0       0.0000E+00 AA
        H-bond correction              true
        Ion screening                  false
        Surface tension                    1.0000E-05 Eh       1.5569E+01 dyn/cm
        Grid points                               230 per atom

          ...................................................
          :                      SETUP                      :
          :.................................................:
          :  # basis functions                 144          :
          :  # atomic orbitals                 144          :
          :  # shells                           94          :
          :  # electrons                       134          :
          :  # halogen bonds                     0          :
          :  max. iterations                   250          :
          :  Hamiltonian                  GFN1-xTB          :
          :  restarted?                      false          :
          :  GBSA solvation                   true          :
          :  PC potential                    false          :
          :  electronic temp.          300.0000000     K    :
          :  accuracy                    1.0000000          :
          :  -> integral cutoff          0.2500000E+02      :
          :  -> integral neglect         0.1000000E-07      :
          :  -> SCF convergence          0.1000000E-05 Eh   :
          :  -> wf. convergence          0.2000000E-04 e    :
          :  Broyden damping             0.4000000          :
          ...................................................

 iter      E             dE          RMSdq      gap      omega  full diag
   1    -80.0879509 -0.800880E+02  0.850E+00    1.60       0.0  T
   2    -80.3261868 -0.238236E+00  0.510E+00    0.10       1.0  T
   3    -80.3065755  0.196114E-01  0.134E+00    0.71       1.0  T
   4    -80.3383242 -0.317487E-01  0.221E-01    0.11       1.0  T
   5    -80.3381303  0.193894E-03  0.183E-01    0.23       1.0  T
   6    -79.9463137  0.391817E+00  0.201E+00    0.09       1.0  T
   7    -80.3409303 -0.394617E+00  0.432E-02    0.15       1.0  T
   8    -80.3409225  0.780207E-05  0.434E-02    0.12       1.0  T
   9    -80.3408410  0.815468E-04  0.510E-02    0.12       1.0  T
  10    -80.3410470 -0.206001E-03  0.230E-02    0.13       1.0  T
  11    -80.3410844 -0.374227E-04  0.115E-02    0.13       1.3  T
  12    -80.3410933 -0.891104E-05  0.630E-03    0.13       2.3  T
  13    -80.3410967 -0.337317E-05  0.212E-03    0.13       6.9  T
  14    -80.3410971 -0.424409E-06  0.192E-04    0.13      75.8  T
  15    -80.3410971 -0.104542E-08  0.162E-04    0.13      90.2  T

   *** convergence criteria satisfied after 15 iterations ***

         #    Occupation            Energy/Eh            Energy/eV
      -------------------------------------------------------------
         1        2.0000           -0.9333324             -25.3973
       ...           ...                  ...                  ...
        61        2.0000           -0.4769448             -12.9783
        62        2.0000           -0.4742271             -12.9044
        63        2.0000           -0.4621029             -12.5745
        64        2.0000           -0.4499346             -12.2433
        65        2.0000           -0.4483585             -12.2005
        66        1.9999           -0.4346576             -11.8276
        67        1.8536           -0.4278535             -11.6425 (HOMO)
        68        0.1466           -0.4230315             -11.5113 (LUMO)
        69                         -0.3284547              -8.9377
        70                         -0.3265371              -8.8855
        71                         -0.2886250              -7.8539
        72                         -0.2457588              -6.6874
       ...                                ...                  ...
       144                          0.7054752              19.1970
      -------------------------------------------------------------
                  HL-Gap            0.0048221 Eh            0.1312 eV
             Fermi-level           -0.4254421 Eh          -11.5769 eV

 SCC (total)                   0 d,  0 h,  0 min,  0.291 sec
 SCC setup                      ...        0 min,  0.002 sec (  0.606%)
 Dispersion                     ...        0 min,  0.000 sec (  0.116%)
 classical contributions        ...        0 min,  0.000 sec (  0.042%)
 integral evaluation            ...        0 min,  0.062 sec ( 21.211%)
 iterations                     ...        0 min,  0.126 sec ( 43.386%)
 molecular gradient             ...        0 min,  0.100 sec ( 34.249%)
 printout                       ...        0 min,  0.001 sec (  0.372%)

         :::::::::::::::::::::::::::::::::::::::::::::::::::::
         ::                     SUMMARY                     ::
         :::::::::::::::::::::::::::::::::::::::::::::::::::::
         :: total energy             -79.462342668714 Eh    ::
         :: total w/o Gsasa/hb       -79.434990912557 Eh    ::
         :: gradient norm              0.096358631150 Eh/a0 ::
         :: HOMO-LUMO gap              0.131215083701 eV    ::
         ::.................................................::
         :: SCC energy               -80.341097089675 Eh    ::
         :: -> electrostatic           0.329606103612 Eh    ::
         :: -> Gsolv                  -0.105626586281 Eh    ::
         ::    -> Gelec               -0.078274830123 Eh    ::
         ::    -> Gsasa               -0.024257412387 Eh    ::
         ::    -> Ghb                 -0.010718622775 Eh    ::
         ::    -> Gshift               0.007624279005 Eh    ::
         :: repulsion energy           0.909455485727 Eh    ::
         :: dispersion energy         -0.030701064767 Eh    ::
         :: halogen bond corr.         0.000000000000 Eh    ::
         :: add. restraining           0.000000000000 Eh    ::
         :: total charge               1.000000000010 e     ::
         :::::::::::::::::::::::::::::::::::::::::::::::::::::

      ----------------------------------------------------------- 
     |                   =====================                   |
     |                        A N C O P T                        |
     |                   =====================                   |
     |               Approximate Normal Coordinate               |
     |                Rational Function Optimizer                |
      ----------------------------------------------------------- 

          ...................................................
          :                      SETUP                      :
          :.................................................:
          :   optimization level            normal          :
          :   max. optcycles                   200          :
          :   ANC micro-cycles                  20          :
          :   degrees of freedom               135          :
          :.................................................:
          :   RF solver                   davidson          :
          :   write xtbopt.log                true          :
          :   linear?                        false          :
          :   energy convergence         0.5000000E-05 Eh   :
          :   grad. convergence          0.1000000E-02 Eh/α :
          :   maximium RF displ.         1.0000000          :
          :   Hlow (freq-cutoff)         0.1000000E-01      :
          :   Hmax (freq-cutoff)         5.0000000          :
          :   S6 in model hess.         20.0000000          :
          ...................................................

generating ANC from model Hessian ...
Using Lindh-Hessian (1995)
 Shifting diagonal of input Hessian by   9.777966613655127E-003
 Lowest  eigenvalues of input Hessian
    0.000000    0.000000    0.000000    0.000000    0.000000    0.000000
    0.010000    0.010107    0.010331    0.011028    0.011563    0.011736
    0.012895    0.014562    0.015537    0.015970    0.017113    0.017637
 Highest eigenvalues
    1.949743    1.966953    2.109108    2.197496    2.296325    2.399234
 

........................................................................
.............................. CYCLE    1 ..............................
........................................................................
   1    -80.3410971 -0.803411E+02  0.103E-04    0.13       0.0  T
   2    -80.3410970  0.593200E-07  0.779E-04    0.13      18.7  T
   3    -80.3410971 -0.602243E-07  0.279E-05    0.13     523.0  T
   4    -80.3410971 -0.624851E-10  0.989E-06    0.13    1474.8  T
     SCC iter.                  ...        0 min,  0.016 sec
     gradient                   ...        0 min,  0.091 sec
 * total energy  :   -79.4623427 Eh     change       -0.2374520E-08 Eh
   gradient norm :     0.0963613 Eh/α   predicted     0.0000000E+00 (-100.00%)
   displ. norm   :     0.2901664 α      lambda       -0.1356317E-01
   maximum displ.:     0.1344260 α      in ANC's #33, #30, #24, ...

........................................................................
.............................. CYCLE    2 ..............................
........................................................................
   1    -80.3440757 -0.803441E+02  0.121E-01    0.19       0.0  T
   2    -79.8894556  0.454620E+00  0.215E+00    0.12       1.0  T
   3    -80.3449513 -0.455496E+00  0.700E-02    0.16       1.0  T
   4    -80.3452823 -0.330987E-03  0.371E-02    0.15       1.0  T
   5    -80.3454080 -0.125655E-03  0.610E-03    0.14       2.4  T
   6    -80.3453988  0.917221E-05  0.103E-02    0.13       1.4  T
   7    -80.3454041 -0.533807E-05  0.705E-03    0.13       2.1  T
   8    -80.3454072 -0.304434E-05  0.430E-03    0.14       3.4  T
   9    -80.3454086 -0.143266E-05  0.191E-03    0.14       7.6  T
  10    -80.3454089 -0.267311E-06  0.954E-04    0.14      15.3  T
  11    -80.3454090 -0.862894E-07  0.144E-04    0.14     101.3  T
  12    -80.3454090 -0.189306E-08  0.237E-05    0.14     616.0  T
     SCC iter.                  ...        0 min,  0.047 sec
     gradient                   ...        0 min,  0.092 sec
 * total energy  :   -79.4718620 Eh     change       -0.9519357E-02 Eh
   gradient norm :     0.0411681 Eh/α   predicted    -0.7355866E-02 ( -22.73%)
   displ. norm   :     0.2564618 α      lambda       -0.4401658E-02
   maximum displ.:     0.1062371 α      in ANC's #33, #30, #24, ...

........................................................................
.............................. CYCLE    3 ..............................
........................................................................
   1    -80.3511217 -0.803511E+02  0.113E-01    0.20       0.0  T
   2    -79.9394985  0.411623E+00  0.204E+00    0.09       1.0  T
   3    -80.3517645 -0.412266E+00  0.739E-02    0.18       1.0  T
   4    -80.3521266 -0.362137E-03  0.425E-02    0.16       1.0  T
   5    -80.3522907 -0.164114E-03  0.120E-02    0.15       1.2  T
   6    -80.3522989 -0.814415E-05  0.739E-03    0.14       2.0  T
   7    -80.3523009 -0.195807E-05  0.576E-03    0.14       2.5  T
   8    -80.3523029 -0.202344E-05  0.353E-03    0.14       4.1  T
   9    -80.3523038 -0.920867E-06  0.169E-03    0.14       8.6  T
  10    -80.3523040 -0.187097E-06  0.970E-04    0.14      15.0  T
  11    -80.3523041 -0.805953E-07  0.339E-04    0.14      43.1  T
  12    -80.3523041 -0.106660E-07  0.635E-05    0.14     229.8  T
  13    -80.3523041 -0.218392E-09  0.418E-05    0.14     349.1  T
     SCC iter.                  ...        0 min,  0.050 sec
     gradient                   ...        0 min,  0.091 sec
 * total energy  :   -79.4743257 Eh     change       -0.2463679E-02 Eh
   gradient norm :     0.0094561 Eh/α   predicted    -0.2345926E-02 (  -4.78%)
   displ. norm   :     0.1327311 α      lambda       -0.3735836E-03
   maximum displ.:     0.0617355 α      in ANC's #6, #8, #7, ...

........................................................................
.............................. CYCLE    4 ..............................
........................................................................
   1    -80.3545037 -0.803545E+02  0.338E-02    0.16       0.0  T
   2    -80.3389378  0.155660E-01  0.395E-01    0.07       1.0  T
   3    -80.3546047 -0.156670E-01  0.115E-02    0.15       1.3  T
   4    -80.3546183 -0.136013E-04  0.184E-03    0.14       7.9  T
   5    -80.3546166  0.176480E-05  0.467E-03    0.14       3.1  T
   6    -80.3546165  0.122049E-06  0.447E-03    0.14       3.3  T
   7    -80.3546180 -0.157261E-05  0.192E-03    0.14       7.6  T
   8    -80.3546183 -0.307136E-06  0.727E-04    0.14      20.1  T
   9    -80.3546184 -0.515234E-07  0.599E-05    0.14     243.6  T
  10    -80.3546184  0.532182E-09  0.928E-05    0.14     157.1  T
     SCC iter.                  ...        0 min,  0.039 sec
     gradient                   ...        0 min,  0.091 sec
 * total energy  :   -79.4746077 Eh     change       -0.2820175E-03 Eh
   gradient norm :     0.0056494 Eh/α   predicted    -0.1900845E-03 ( -32.60%)
   displ. norm   :     0.2037554 α      lambda       -0.3294658E-03
   maximum displ.:     0.0992170 α      in ANC's #6, #8, #7, ...

........................................................................
.............................. CYCLE    5 ..............................
........................................................................
   1    -80.3565175 -0.803565E+02  0.314E-02    0.16       0.0  T
   2    -80.3446946  0.118230E-01  0.345E-01    0.07       1.0  T
   3    -80.3566141 -0.119195E-01  0.783E-03    0.15       1.9  T
   4    -80.3566188 -0.471417E-05  0.449E-03    0.14       3.2  T
   5    -80.3566154  0.342091E-05  0.725E-03    0.14       2.0  T
   6    -80.3566170 -0.163001E-05  0.544E-03    0.14       2.7  T
   7    -80.3566194 -0.242033E-05  0.211E-03    0.14       6.9  T
   8    -80.3566198 -0.404661E-06  0.569E-04    0.15      25.6  T
   9    -80.3566198 -0.281138E-07  0.194E-04    0.15      75.2  T
  10    -80.3566198 -0.257421E-08  0.104E-04    0.15     140.3  T
     SCC iter.                  ...        0 min,  0.039 sec
     gradient                   ...        0 min,  0.089 sec
 * total energy  :   -79.4748148 Eh     change       -0.2070523E-03 Eh
   gradient norm :     0.0040752 Eh/α   predicted    -0.1715808E-03 ( -17.13%)
   displ. norm   :     0.1096693 α      lambda       -0.8154211E-04
   maximum displ.:     0.0541626 α      in ANC's #8, #6, #3, ...

........................................................................
.............................. CYCLE    6 ..............................
........................................................................
   1    -80.3570009 -0.803570E+02  0.114E-02    0.15       0.0  T
   2    -80.3562692  0.731785E-03  0.869E-02    0.12       1.0  T
   3    -80.3570140 -0.744895E-03  0.174E-03    0.15       8.4  T
   4    -80.3570135  0.577769E-06  0.284E-03    0.15       5.1  T
   5    -80.3570138 -0.354651E-06  0.179E-03    0.15       8.2  T
   6    -80.3570141 -0.239798E-06  0.552E-04    0.15      26.4  T
   7    -80.3570141 -0.288170E-07  0.397E-05    0.15     367.1  T
   8    -80.3570141 -0.645741E-10  0.227E-05    0.15     642.1  T
     SCC iter.                  ...        0 min,  0.023 sec
     gradient                   ...        0 min,  0.058 sec
 * total energy  :   -79.4748733 Eh     change       -0.5852992E-04 Eh
   gradient norm :     0.0032983 Eh/α   predicted    -0.4126276E-04 ( -29.50%)
   displ. norm   :     0.1048565 α      lambda       -0.5744556E-04
   maximum displ.:     0.0481522 α      in ANC's #3, #8, #6, ...

........................................................................
.............................. CYCLE    7 ..............................
........................................................................
   1    -80.3570360 -0.803570E+02  0.628E-03    0.15       0.0  T
   2    -80.3569021  0.133855E-03  0.373E-02    0.13       1.0  T
   3    -80.3570392 -0.137147E-03  0.165E-03    0.15       8.9  T
   4    -80.3570394 -0.122379E-06  0.865E-04    0.15      16.9  T
   5    -80.3570394  0.145111E-07  0.675E-04    0.15      21.6  T
   6    -80.3570394 -0.389923E-07  0.598E-05    0.15     243.8  T
   7    -80.3570394 -0.150322E-09  0.171E-05    0.15     852.3  T
     SCC iter.                  ...        0 min,  0.024 sec
     gradient                   ...        0 min,  0.089 sec
 * total energy  :   -79.4749125 Eh     change       -0.3920881E-04 Eh
   gradient norm :     0.0020054 Eh/α   predicted    -0.2904015E-04 ( -25.93%)
   displ. norm   :     0.0772886 α      lambda       -0.3034591E-04
   maximum displ.:     0.0458008 α      in ANC's #3, #8, #19, ...

........................................................................
.............................. CYCLE    8 ..............................
........................................................................
   1    -80.3569741 -0.803570E+02  0.295E-03    0.14       0.0  T
   2    -80.3569648  0.928273E-05  0.103E-02    0.15       1.4  T
   3    -80.3569746 -0.979518E-05  0.161E-03    0.15       9.1  T
   4    -80.3569747 -0.735658E-07  0.136E-03    0.15      10.8  T
   5    -80.3569748 -0.141376E-06  0.328E-04    0.15      44.5  T
   6    -80.3569748 -0.260145E-08  0.842E-05    0.15     173.2  T
   7    -80.3569748 -0.498204E-09  0.233E-05    0.15     627.3  T
     SCC iter.                  ...        0 min,  0.029 sec
     gradient                   ...        0 min,  0.097 sec
 * total energy  :   -79.4749353 Eh     change       -0.2274995E-04 Eh
   gradient norm :     0.0016386 Eh/α   predicted    -0.1528352E-04 ( -32.82%)
   displ. norm   :     0.1321431 α      lambda       -0.2884502E-04
   maximum displ.:     0.0848899 α      in ANC's #3, #16, #5, ...

........................................................................
.............................. CYCLE    9 ..............................
........................................................................
   1    -80.3568279 -0.803568E+02  0.112E-02    0.14       0.0  T
   2    -80.3565027  0.325156E-03  0.597E-02    0.17       1.0  T
   3    -80.3568376 -0.334905E-03  0.691E-03    0.15       2.1  T
   4    -80.3568410 -0.335619E-05  0.277E-03    0.15       5.3  T
   5    -80.3568416 -0.576119E-06  0.555E-04    0.15      26.3  T
   6    -80.3568415  0.697301E-08  0.410E-04    0.15      35.6  T
   7    -80.3568416 -0.158804E-07  0.380E-05    0.15     384.2  T
   8    -80.3568416 -0.872546E-10  0.128E-05    0.15    1140.9  T
     SCC iter.                  ...        0 min,  0.034 sec
     gradient                   ...        0 min,  0.097 sec
 * total energy  :   -79.4749625 Eh     change       -0.2723840E-04 Eh
   gradient norm :     0.0024978 Eh/α   predicted    -0.1454269E-04 ( -46.61%)
   displ. norm   :     0.0878646 α      lambda        0.1013767E-04
   maximum displ.:     0.0564339 α      in ANC's #3, #16, #5, ...

........................................................................
.............................. CYCLE   10 ..............................
........................................................................
   1    -80.3565633 -0.803566E+02  0.807E-03    0.14       0.0  T
   2    -80.3563725  0.190812E-03  0.454E-02    0.16       1.0  T
   3    -80.3565691 -0.196629E-03  0.374E-03    0.15       3.9  T
   4    -80.3565701 -0.909397E-06  0.171E-03    0.15       8.5  T
   5    -80.3565703 -0.227290E-06  0.354E-04    0.14      41.2  T
   6    -80.3565703 -0.144652E-08  0.168E-04    0.14      87.0  T
   7    -80.3565703 -0.260532E-08  0.132E-05    0.14    1109.1  T
     SCC iter.                  ...        0 min,  0.030 sec
     gradient                   ...        0 min,  0.097 sec
 * total energy  :   -79.4749623 Eh     change        0.1558168E-06 Eh
   gradient norm :     0.0037840 Eh/α   predicted     0.5107891E-05 (3178.14%)
   displ. norm   :     0.0274898 α      lambda       -0.1855253E-04
   maximum displ.:     0.0117568 α      in ANC's #8, #6, #12, ...

........................................................................
.............................. CYCLE   11 ..............................
........................................................................
   1    -80.3569792 -0.803570E+02  0.240E-03    0.15       0.0  T
   2    -80.3569767  0.253859E-05  0.545E-03    0.14       2.7  T
   3    -80.3569778 -0.107138E-05  0.445E-03    0.15       3.3  T
   4    -80.3569796 -0.183453E-05  0.607E-04    0.15      24.0  T
   5    -80.3569796 -0.600770E-08  0.419E-04    0.14      34.8  T
   6    -80.3569796 -0.121961E-07  0.658E-05    0.14     221.8  T
   7    -80.3569796 -0.348493E-09  0.115E-05    0.14    1266.7  T
     SCC iter.                  ...        0 min,  0.030 sec
     gradient                   ...        0 min,  0.097 sec
 * total energy  :   -79.4749771 Eh     change       -0.1473761E-04 Eh
   gradient norm :     0.0021816 Eh/α   predicted    -0.9284688E-05 ( -37.00%)
   displ. norm   :     0.0640662 α      lambda       -0.2739861E-04
   maximum displ.:     0.0344730 α      in ANC's #3, #5, #6, ...

........................................................................
.............................. CYCLE   12 ..............................
........................................................................
   1    -80.3573321 -0.803573E+02  0.553E-03    0.14       0.0  T
   2    -80.3572701  0.619547E-04  0.259E-02    0.15       1.0  T
   3    -80.3573348 -0.646064E-04  0.152E-03    0.14       9.6  T
   4    -80.3573348 -0.658498E-08  0.119E-03    0.15      12.3  T
   5    -80.3573348 -0.667492E-07  0.564E-04    0.15      25.9  T
   6    -80.3573348 -0.177420E-07  0.145E-04    0.14     100.3  T
   7    -80.3573348 -0.186078E-08  0.173E-05    0.14     842.0  T
     SCC iter.                  ...        0 min,  0.030 sec
     gradient                   ...        0 min,  0.096 sec
 * total energy  :   -79.4749946 Eh     change       -0.1750156E-04 Eh
   gradient norm :     0.0007179 Eh/α   predicted    -0.1375918E-04 ( -21.38%)
   displ. norm   :     0.0919962 α      lambda       -0.8848685E-05
   maximum displ.:     0.0601425 α      in ANC's #3, #5, #2, ...

........................................................................
.............................. CYCLE   13 ..............................
........................................................................
   1    -80.3573242 -0.803573E+02  0.507E-03    0.14       0.0  T
   2    -80.3572427  0.814851E-04  0.295E-02    0.16       1.0  T
   3    -80.3573265 -0.838063E-04  0.220E-03    0.15       6.6  T
   4    -80.3573268 -0.256622E-06  0.122E-03    0.15      12.0  T
   5    -80.3573269 -0.964155E-07  0.445E-04    0.15      32.8  T
   6    -80.3573269 -0.142228E-07  0.352E-05    0.14     414.6  T
   7    -80.3573269 -0.377014E-10  0.108E-05    0.14    1345.9  T
     SCC iter.                  ...        0 min,  0.029 sec
     gradient                   ...        0 min,  0.096 sec
 * total energy  :   -79.4750036 Eh     change       -0.9051177E-05 Eh
   gradient norm :     0.0014247 Eh/α   predicted    -0.4442659E-05 ( -50.92%)
   displ. norm   :     0.0715398 α      lambda       -0.5848757E-05
   maximum displ.:     0.0471523 α      in ANC's #3, #2, #5, ...

........................................................................
.............................. CYCLE   14 ..............................
........................................................................
   1    -80.3571153 -0.803571E+02  0.154E-03    0.15       0.0  T
   2    -80.3571133  0.201984E-05  0.479E-03    0.14       3.0  T
   3    -80.3571153 -0.201230E-05  0.130E-03    0.15      11.2  T
   4    -80.3571155 -0.147361E-06  0.530E-04    0.14      27.5  T
   5    -80.3571155 -0.128529E-07  0.283E-04    0.14      51.5  T
   6    -80.3571155 -0.552463E-08  0.710E-05    0.14     205.4  T
   7    -80.3571155 -0.352387E-09  0.141E-05    0.14    1033.8  T
     SCC iter.                  ...        0 min,  0.030 sec
     gradient                   ...        0 min,  0.096 sec
 * total energy  :   -79.4750102 Eh     change       -0.6603795E-05 Eh
   gradient norm :     0.0007213 Eh/α   predicted    -0.2936605E-05 ( -55.53%)
   displ. norm   :     0.0599490 α      lambda       -0.3697935E-05
   maximum displ.:     0.0390526 α      in ANC's #3, #2, #5, ...

........................................................................
.............................. CYCLE   15 ..............................
........................................................................
   1    -80.3571940 -0.803572E+02  0.466E-03    0.15       0.0  T
   2    -80.3571002  0.938639E-04  0.312E-02    0.13       1.0  T
   3    -80.3571961 -0.959610E-04  0.488E-04    0.15      29.9  T
   4    -80.3571962 -0.103068E-07  0.249E-04    0.14      58.6  T
   5    -80.3571962  0.129401E-08  0.210E-04    0.14      69.5  T
   6    -80.3571962 -0.302455E-08  0.497E-05    0.14     293.5  T
   7    -80.3571962 -0.175504E-09  0.708E-06    0.14    2060.0  T
     SCC iter.                  ...        0 min,  0.030 sec
     gradient                   ...        0 min,  0.096 sec
 * total energy  :   -79.4750143 Eh     change       -0.4036973E-05 Eh
   gradient norm :     0.0005264 Eh/α   predicted    -0.1856107E-05 ( -54.02%)
   displ. norm   :     0.0480465 α      lambda       -0.2447101E-05
   maximum displ.:     0.0292994 α      in ANC's #3, #2, #8, ...

   *** GEOMETRY OPTIMIZATION CONVERGED AFTER 15 ITERATIONS ***

------------------------------------------------------------------------
 total energy gain   :        -0.0126716 Eh       -7.9516 kcal/mol
 total RMSD          :         0.1678950 a0        0.0888 Å
 total power (kW/mol):        -2.2179540 (step)  -13.1923 (real)
------------------------------------------------------------------------

 ANCopt (total)                0 d,  0 h,  0 min,  2.522 sec
 optimizer setup                ...        0 min,  0.001 sec (  0.036%)
 model hessian                  ...        0 min,  0.041 sec (  1.621%)
 ANC generation                 ...        0 min,  0.003 sec (  0.123%)
 coordinate transformation      ...        0 min,  0.001 sec (  0.024%)
 single point calculation       ...        0 min,  2.467 sec ( 97.813%)
 optimization log               ...        0 min,  0.005 sec (  0.205%)
 hessian update                 ...        0 min,  0.001 sec (  0.028%)
 rational function              ...        0 min,  0.002 sec (  0.083%)

================
 final structure:
================
47
 xtb: 6.5.1 (579679a)
C           -3.90737107235658        2.39912491699617       -1.01021925202714
N           -2.80177356343150        1.49997930208760       -0.66809423983420
C           -2.94993526470107        0.19648478882360       -0.26738152341404
C           -4.31741578661453       -0.46650305138099       -0.14024566579902
C           -4.12824809918146       -1.97945400118683        0.06679978456131
C           -5.06505839177767        0.12361627975076        1.06301395081120
N           -5.09806141258099       -0.24583567891600       -1.34983329437235
N           -1.93125280334795       -0.53189743828733        0.06638535360506
C           -0.65218476347248       -0.05615717721136        0.02821192231087
C            0.37632503923152       -1.05011799049731        0.46506475258728
O            0.08641551812279       -2.15844960757886        0.88570629622622
N            1.66821483895070       -0.64244761614873        0.37780799307521
C            2.70598115816107       -1.58972950549820        0.74949502449273
C            4.10064548723897       -0.96718917895441        0.49788751510386
C            5.14803833626070       -2.04627863673584        0.93600711253903
C            4.31570776226043       -0.71479822657631       -0.94397434767908
C            4.76571151359916        0.47866548755823       -1.41944818913300
C            4.99146741607162        1.52330353591252       -0.51018578549820
F            5.42942982237448        2.66226251659216       -0.97110034893951
C            4.75922128456240        1.40709262988380        0.86862409468436
C            4.31123634152715        0.21825063618512        1.35740098964901
C           -0.43586237889227        1.22771393694895       -0.37882389057108
O            0.77397506984638        1.82137386448809       -0.46543965804298
C           -1.55140840218849        2.08085160122180       -0.74181686704585
O           -1.38166316914768        3.24863936600033       -1.08534046078252
H           -4.76630168826273        1.82050739800720       -1.33864842469524
H           -3.57290465443856        3.05613304466680       -1.81304110043710
H           -4.16417811816018        3.00148044061763       -0.13839439067545
H           -5.10299890406903       -2.46301954255390        0.09476734702225
H           -3.60526826209334       -2.16861928229546        1.00322682731465
H           -3.54603056581903       -2.39951093023957       -0.75156839803200
H           -4.45798231642359        0.02440794004199        1.96209722169782
H           -6.00133138162812       -0.41318742843243        1.20924535981965
H           -5.29000443384759        1.17607038486840        0.90444441688196
H           -4.69440934647356       -0.73057867876738       -2.13746926639958
H           -6.05014008546727       -0.55213343784813       -1.21829848992129
H            1.92562620197877        0.24060563638430       -0.02637844002921
H            2.60478176775673       -1.84651586860731        1.80897236341051
H            2.59797581575315       -2.50562534438186        0.15865229781257
H            5.00312116555391       -2.27657910526960        1.98914357258247
H            5.00349770811097       -2.94496494598225        0.34057861970877
H            6.15404822982578       -1.66381725186642        0.78122973333881
H            4.12761340063241       -1.53933533939525       -1.62203720063825
H            4.94491197252650        0.64676197815128       -2.47447969758655
H            4.93279463908332        2.26338564706034        1.50913920575949
H            4.11991272295620        0.09866865958943        2.41771385672290
H            0.62513165199053        2.73736227277403       -0.77997368016450
 
 Bond Distances (Angstroems)
 ---------------------------
C1-N2=1.4656         C1-H26=1.0865        C1-H27=1.0900        C1-H28=1.0903        N2-C1=1.4656         N2-C3=1.3717         
N2-C24=1.3807        C3-N2=1.3717         C3-C4=1.5250         C3-N8=1.2960         C4-C3=1.5250         C4-C5=1.5387         
C4-C6=1.5346         C4-N7=1.4564         C5-C4=1.5387         C5-H29=1.0885        C5-H30=1.0891        C5-H31=1.0886        
C6-C4=1.5346         C6-H32=1.0894        C6-H33=1.0891        C6-H34=1.0878        N7-C4=1.4564         N7-H35=1.0091        
N7-H36=1.0087        N8-C3=1.2960         N8-C9=1.3652         C9-N8=1.3652         C9-C10=1.4955        C9-C22=1.3641        
C10-C9=1.4955        C10-O11=1.2204       C10-N12=1.3575       O11-C10=1.2204       N12-C10=1.3575       N12-C13=1.4534       
N12-H37=1.0047       C13-N12=1.4534       C13-C14=1.5479       C13-H38=1.0948       C13-H39=1.0953       C14-C13=1.5479       
C14-C15=1.5663       C14-C16=1.4795       C14-C21=1.4793       C15-C14=1.5663       C15-H40=1.0877       C15-H41=1.0877       
C15-H42=1.0873       C16-C14=1.4795       C16-C17=1.3612       C16-H43=1.0840       C17-C16=1.3612       C17-C18=1.4032       
C17-H44=1.0833       C18-C17=1.4032       C18-F19=1.3044       C18-C20=1.4031       F19-C18=1.3044       C20-C18=1.4031       
C20-C21=1.3612       C20-H45=1.0833       C21-C14=1.4793       C21-C20=1.3612       C21-H46=1.0841       C22-C9=1.3641        
C22-O23=1.3504       C22-C24=1.4505       O23-C22=1.3504       O23-H47=0.9799       C24-N2=1.3807        C24-C22=1.4505       
C24-O25=1.2290       O25-C24=1.2290       H26-C1=1.0865        H27-C1=1.0900        H28-C1=1.0903        H29-C5=1.0885        
H30-C5=1.0891        H31-C5=1.0886        H32-C6=1.0894        H33-C6=1.0891        H34-C6=1.0878        H35-N7=1.0091        
H36-N7=1.0087        H37-N12=1.0047       H38-C13=1.0948       H39-C13=1.0953       H40-C15=1.0877       H41-C15=1.0877       
H42-C15=1.0873       H43-C16=1.0840       H44-C17=1.0833       H45-C20=1.0833       H46-C21=1.0841       H47-O23=0.9799       
 C  H  Rav=1.0882 sigma=0.0033  Rmin=1.0833  Rmax=1.0953    18
 C  C  Rav=1.4650 sigma=0.0717  Rmin=1.3612  Rmax=1.5663    14
 N  H  Rav=1.0075 sigma=0.0020  Rmin=1.0047  Rmax=1.0091     3
 N  C  Rav=1.3933 sigma=0.0559  Rmin=1.2960  Rmax=1.4656     8
 O  H  Rav=0.9799 sigma=0.0000  Rmin=0.9799  Rmax=0.9799     1
 O  C  Rav=1.2666 sigma=0.0594  Rmin=1.2204  Rmax=1.3504     3
 F  C  Rav=1.3044 sigma=0.0000  Rmin=1.3044  Rmax=1.3044     1
 
 selected bond angles (degree)
 --------------------
H26-C1-N2=109.89               H27-C1-N2=108.08               H27-C1-H26=109.94              H28-C1-N2=109.27               
H28-C1-H26=110.47              H28-C1-H27=109.16              C3-N2-C1=124.73                C24-N2-C1=114.37               
C24-N2-C3=120.88               C4-C3-N2=122.30                N8-C3-N2=121.63                N8-C3-C4=116.04                
C5-C4-C3=109.17                C6-C4-C3=109.58                C6-C4-C5=109.42                N7-C4-C3=110.21                
N7-C4-C5=109.06                N7-C4-C6=109.38                H29-C5-C4=109.28               H30-C5-C4=110.21               
H30-C5-H29=109.32              H31-C5-C4=110.12               H31-C5-H29=109.08              H31-C5-H30=108.81              
H32-C6-C4=109.91               H33-C6-C4=109.55               H33-C6-H32=108.87              H34-C6-C4=111.01               
H34-C6-H32=108.88              H34-C6-H33=108.58              H35-N7-C4=111.17               H36-N7-C4=110.58               
H36-N7-H35=109.48              C9-N8-C3=122.23                C10-C9-N8=113.86               C22-C9-N8=119.01               
C22-C9-C10=127.13              O11-C10-C9=122.74              N12-C10-C9=115.86              N12-C10-O11=121.40             
 
 selected dihedral angles (degree)
 ---------------------------------
C3-N2-C1-H26=334.41           C3-N2-C1-H27=214.44           C3-N2-C1-H28= 95.77           C24-N2-C1-H26=156.16          
C24-N2-C1-H27= 36.19          C24-N2-C1-H28=277.52          C4-C3-N2-C1=  0.27            C4-C3-N2-C24=178.41           
N8-C3-N2-C1=182.47            N8-C3-N2-C24=  0.61           C5-C4-C3-N2=169.45            C5-C4-C3-N8=347.36            
C6-C4-C3-N2=289.26            C6-C4-C3-N8=107.18            N7-C4-C3-N2= 49.67            N7-C4-C3-N8=227.59            
H29-C5-C4-C3=183.55           H29-C5-C4-C6= 63.63           H29-C5-C4-N7=304.02           H30-C5-C4-C3= 63.40           
H30-C5-C4-C6=303.49           H30-C5-C4-N7=183.88           H31-C5-C4-C3=303.34           H31-C5-C4-C6=183.43           
H31-C5-C4-N7= 63.82           H32-C6-C4-C3=304.79           H32-C6-C4-C5= 64.46           H32-C6-C4-N7=183.87           
H33-C6-C4-C3=185.21           H33-C6-C4-C5=304.88           H33-C6-C4-N7= 64.29           H34-C6-C4-C3= 65.31           
H34-C6-C4-C5=184.98           H34-C6-C4-N7=304.39           H35-N7-C4-C3= 67.16           H35-N7-C4-C5=307.32           
H35-N7-C4-C6=187.69           H36-N7-C4-C3=188.99           H36-N7-C4-C5= 69.15           H36-N7-C4-C6=309.52           
C9-N8-C3-N2=359.34            C9-N8-C3-C4=181.41            C10-C9-N8-C3=179.41           C22-C9-N8-C3=359.78           
O11-C10-C9-N8=356.20          O11-C10-C9-C22=175.79         N12-C10-C9-N8=176.75          N12-C10-C9-C22=356.34         
           -------------------------------------------------
          |                Final Singlepoint                |
           -------------------------------------------------

          ...................................................
          :                      SETUP                      :
          :.................................................:
          :  # basis functions                 144          :
          :  # atomic orbitals                 144          :
          :  # shells                           94          :
          :  # electrons                       134          :
          :  # halogen bonds                     0          :
          :  max. iterations                   250          :
          :  Hamiltonian                  GFN1-xTB          :
          :  restarted?                      false          :
          :  GBSA solvation                   true          :
          :  PC potential                    false          :
          :  electronic temp.          300.0000000     K    :
          :  accuracy                    1.0000000          :
          :  -> integral cutoff          0.2500000E+02      :
          :  -> integral neglect         0.1000000E-07      :
          :  -> SCF convergence          0.1000000E-05 Eh   :
          :  -> wf. convergence          0.2000000E-04 e    :
          :  Broyden damping             0.4000000          :
          ...................................................

 iter      E             dE          RMSdq      gap      omega  full diag
   1    -80.3571962 -0.803572E+02  0.294E-06    0.14       0.0  T
   2    -80.3571962  0.662226E-11  0.835E-06    0.14    1746.5  T
   3    -80.3571962 -0.609646E-11  0.316E-06    0.14    4609.2  T

   *** convergence criteria satisfied after 3 iterations ***

         #    Occupation            Energy/Eh            Energy/eV
      -------------------------------------------------------------
         1        2.0000           -0.9431652             -25.6648
       ...           ...                  ...                  ...
        61        2.0000           -0.4778235             -13.0022
        62        2.0000           -0.4750056             -12.9256
        63        2.0000           -0.4579017             -12.4601
        64        2.0000           -0.4562626             -12.4155
        65        2.0000           -0.4455371             -12.1237
        66        1.9999           -0.4313250             -11.7370
        67        1.8858           -0.4241672             -11.5422 (HOMO)
        68        0.1143           -0.4188396             -11.3972 (LUMO)
        69                         -0.3319718              -9.0334
        70                         -0.3220802              -8.7642
        71                         -0.2835636              -7.7162
        72                         -0.2481511              -6.7525
       ...                                ...                  ...
       144                          0.7107921              19.3416
      -------------------------------------------------------------
                  HL-Gap            0.0053276 Eh            0.1450 eV
             Fermi-level           -0.4215031 Eh          -11.4697 eV

 SCC (total)                   0 d,  0 h,  0 min,  0.153 sec
 SCC setup                      ...        0 min,  0.002 sec (  1.483%)
 Dispersion                     ...        0 min,  0.000 sec (  0.269%)
 classical contributions        ...        0 min,  0.000 sec (  0.096%)
 integral evaluation            ...        0 min,  0.039 sec ( 25.784%)
 iterations                     ...        0 min,  0.013 sec (  8.710%)
 molecular gradient             ...        0 min,  0.096 sec ( 62.854%)
 printout                       ...        0 min,  0.001 sec (  0.762%)

         :::::::::::::::::::::::::::::::::::::::::::::::::::::
         ::                     SUMMARY                     ::
         :::::::::::::::::::::::::::::::::::::::::::::::::::::
         :: total energy             -79.475014279483 Eh    ::
         :: total w/o Gsasa/hb       -79.447448776078 Eh    ::
         :: gradient norm              0.000527400387 Eh/a0 ::
         :: HOMO-LUMO gap              0.144971670479 eV    ::
         ::.................................................::
         :: SCC energy               -80.357196157722 Eh    ::
         :: -> electrostatic           0.331132036847 Eh    ::
         :: -> Gsolv                  -0.106738930366 Eh    ::
         ::    -> Gelec               -0.079173426960 Eh    ::
         ::    -> Gsasa               -0.024304859652 Eh    ::
         ::    -> Ghb                 -0.010884922758 Eh    ::
         ::    -> Gshift               0.007624279005 Eh    ::
         :: repulsion energy           0.912909869214 Eh    ::
         :: dispersion energy         -0.030727990974 Eh    ::
         :: halogen bond corr.         0.000000000000 Eh    ::
         :: add. restraining           0.000000000000 Eh    ::
         :: total charge               1.000000000002 e     ::
         :::::::::::::::::::::::::::::::::::::::::::::::::::::

           -------------------------------------------------
          |                Property Printout                |
           -------------------------------------------------

    * Orbital Energies and Occupations

         #    Occupation            Energy/Eh            Energy/eV
      -------------------------------------------------------------
         1        2.0000           -0.9431652             -25.6648
       ...           ...                  ...                  ...
        55        2.0000           -0.5210061             -14.1773
        56        2.0000           -0.5182860             -14.1033
        57        2.0000           -0.5171934             -14.0735
        58        2.0000           -0.5103501             -13.8873
        59        2.0000           -0.5024960             -13.6736
        60        2.0000           -0.4940823             -13.4447
        61        2.0000           -0.4778235             -13.0022
        62        2.0000           -0.4750056             -12.9256
        63        2.0000           -0.4579017             -12.4601
        64        2.0000           -0.4562626             -12.4155
        65        2.0000           -0.4455371             -12.1237
        66        1.9999           -0.4313250             -11.7370
        67        1.8858           -0.4241672             -11.5422 (HOMO)
        68        0.1143           -0.4188396             -11.3972 (LUMO)
        69                         -0.3319718              -9.0334
        70                         -0.3220802              -8.7642
        71                         -0.2835636              -7.7162
        72                         -0.2481511              -6.7525
        73                         -0.2382358              -6.4827
        74                         -0.1595203              -4.3408
        75                         -0.1578417              -4.2951
        76                         -0.1530954              -4.1659
        77                         -0.1411694              -3.8414
        78                         -0.1403186              -3.8183
       ...                                ...                  ...
       144                          0.7107921              19.3416
      -------------------------------------------------------------
                  HL-Gap            0.0053276 Eh            0.1450 eV
             Fermi-level           -0.4215031 Eh          -11.4697 eV

  Mulliken/CM5 charges         n(s)   n(p)   n(d)
     1C     0.04430 -0.04316   0.995  2.961  0.000
     2N    -0.20095 -0.45002   1.454  3.747  0.000
     3C     0.27149  0.42302   1.026  2.702  0.000
     4C     0.14687  0.18209   1.066  2.787  0.000
     5C    -0.10294 -0.24234   1.022  3.081  0.000
     6C    -0.10785 -0.24924   1.021  3.087  0.000
     7N    -0.48187 -0.94808   1.471  4.011  0.000
     8N    -0.36489 -0.55312   1.521  3.844  0.000
     9C     0.08065  0.16078   1.048  2.871  0.000
    10C     0.47440  0.58148   0.986  2.539  0.000
    11O    -0.58344 -0.62320   1.728  4.855  0.000
    12N    -0.35969 -0.72060   1.425  3.935  0.000
    13C     0.11271  0.06879   1.020  2.867  0.000
    14C     0.00519 -0.01392   1.088  2.907  0.000
    15C    -0.07193 -0.21916   1.033  3.039  0.000
    16C     0.04926 -0.00535   1.112  2.839  0.000
    17C    -0.03886 -0.09003   1.064  2.975  0.000
    18C     0.33614  0.34918   1.077  2.587  0.000
    19F    -0.17670 -0.20304   1.810  5.366  0.000
    20C    -0.03845 -0.08958   1.064  2.974  0.000
    21C     0.05064 -0.00385   1.111  2.838  0.000
    22C     0.20709  0.24038   1.027  2.766  0.000
    23O    -0.53125 -0.73212   1.704  4.827  0.000
    24C     0.42985  0.53182   0.985  2.585  0.000
    25O    -0.59203 -0.64431   1.729  4.863  0.000
    26H     0.06007  0.13635   0.940  0.000  0.000
    27H     0.07417  0.14290   0.926  0.000  0.000
    28H     0.06156  0.12482   0.938  0.000  0.000
    29H     0.04509  0.10082   0.955  0.000  0.000
    30H     0.04593  0.10397   0.954  0.000  0.000
    31H     0.04395  0.10276   0.956  0.000  0.000
    32H     0.04572  0.10042   0.954  0.000  0.000
    33H     0.05479  0.10995   0.945  0.000  0.000
    34H     0.04519  0.10298   0.955  0.000  0.000
    35H     0.23739  0.42920   0.763  0.000  0.000
    36H     0.24143  0.43263   0.759  0.000  0.000
    37H     0.25875  0.47205   0.741  0.000  0.000
    38H     0.07419  0.14240   0.926  0.000  0.000
    39H     0.07470  0.14324   0.925  0.000  0.000
    40H     0.07939  0.13287   0.921  0.000  0.000
    41H     0.07953  0.13301   0.920  0.000  0.000
    42H     0.07437  0.12803   0.926  0.000  0.000
    43H     0.10219  0.15995   0.898  0.000  0.000
    44H     0.11367  0.17080   0.886  0.000  0.000
    45H     0.11353  0.17066   0.886  0.000  0.000
    46H     0.10193  0.15972   0.898  0.000  0.000
    47H     0.41475  0.59408   0.585  0.000  0.000

Wiberg/Mayer (AO) data.
largest (>0.10) Wiberg bond orders for each atom

 ---------------------------------------------------------------------------
     #   Z sym  total        # sym  WBO       # sym  WBO       # sym  WBO
 ---------------------------------------------------------------------------
     1   6 C    3.909 --    27 H    0.976    28 H    0.975    26 H    0.965
                             2 N    0.925
     2   7 N    3.517 --     3 C    1.176    24 C    1.137     1 C    0.925
                            25 O    0.132
     3   6 C    3.920 --     8 N    1.562     2 N    1.176     4 C    0.973
     4   6 C    3.952 --     6 C    0.984     5 C    0.981     7 N    0.980
                             3 C    0.973
     5   6 C    3.975 --    29 H    0.985    31 H    0.984     4 C    0.981
                            30 H    0.981
     6   6 C    3.991 --    32 H    0.985     4 C    0.984    33 H    0.982
                            34 H    0.982
     7   7 N    2.956 --     4 C    0.980    35 H    0.930    36 H    0.928
     8   7 N    3.028 --     3 C    1.562     9 C    1.198
     9   6 C    3.964 --    22 C    1.504     8 N    1.198    10 C    0.996
    10   6 C    3.900 --    11 O    1.601    12 N    1.222     9 C    0.996
    11   8 O    1.890 --    10 C    1.601    12 N    0.165
    12   7 N    3.306 --    10 C    1.222    13 C    0.959    37 H    0.886
                            11 O    0.165
    13   6 C    3.933 --    38 H    0.968    39 H    0.967    12 N    0.959
                            14 C    0.916
    14   6 C    3.984 --    21 C    1.072    16 C    1.072    13 C    0.916
                            15 C    0.870
    15   6 C    3.950 --    42 H    0.984    41 H    0.979    40 H    0.979
                            14 C    0.870
    16   6 C    3.895 --    17 C    1.614    14 C    1.072    43 H    0.963
    17   6 C    3.983 --    16 C    1.614    18 C    1.283    44 H    0.956
    18   6 C    3.775 --    20 C    1.283    17 C    1.283    19 F    1.036
    19   9 F    1.189 --    18 C    1.036
    20   6 C    3.983 --    21 C    1.613    18 C    1.283    45 H    0.956
    21   6 C    3.895 --    20 C    1.613    14 C    1.072    46 H    0.964
    22   6 C    3.911 --     9 C    1.504    24 C    1.089    23 O    1.071
    23   8 O    2.062 --    22 C    1.071    47 H    0.796
    24   6 C    3.916 --    25 O    1.542     2 N    1.137    22 C    1.089
    25   8 O    1.890 --    24 C    1.542     2 N    0.132
    26   1 H    1.021 --     1 C    0.965
    27   1 H    1.006 --     1 C    0.976
    28   1 H    1.001 --     1 C    0.975
    29   1 H    1.002 --     5 C    0.985
    30   1 H    1.009 --     5 C    0.981
    31   1 H    1.008 --     5 C    0.984
    32   1 H    1.002 --     6 C    0.985
    33   1 H    0.998 --     6 C    0.982
    34   1 H    1.002 --     6 C    0.982
    35   1 H    0.946 --     7 N    0.930
    36   1 H    0.943 --     7 N    0.928
    37   1 H    0.944 --    12 N    0.886
    38   1 H    1.002 --    13 C    0.968
    39   1 H    1.002 --    13 C    0.967
    40   1 H    0.993 --    15 C    0.979
    41   1 H    0.993 --    15 C    0.979
    42   1 H    0.994 --    15 C    0.984
    43   1 H    0.989 --    16 C    0.963
    44   1 H    0.985 --    17 C    0.956
    45   1 H    0.985 --    20 C    0.956
    46   1 H    0.989 --    21 C    0.964
    47   1 H    0.844 --    23 O    0.796
 ---------------------------------------------------------------------------

Topologies differ in total number of bonds
Writing topology from bond orders to xtbtopo.mol

 dipole moment from electron density (au)
     X       Y       Z   
   5.0264   0.2995  -0.6333  total (Debye):   12.899

           -------------------------------------------------
          |                Geometry Summary                 |
           -------------------------------------------------

      molecular mass/u    :      349.3806376
   center of mass at/Å    :        0.3461161       0.2897042      -0.1196047
  moments of inertia/u·Å² :        0.1129542E+04   0.4686257E+04   0.5505635E+04
rotational constants/cm⁻¹ :        0.1492430E-01   0.3597249E-02   0.3061887E-02

 * 43 selected distances

     #   Z          #   Z                                           value/Å
     1   6 C        2   7 N                                       1.4655574
     2   7 N        3   6 C                                       1.3717219
     4   6 C        5   6 C                                       1.5387246 (max)
     4   6 C        6   6 C                                       1.5346154
     4   6 C        7   7 N                                       1.4564355
     3   6 C        8   7 N                                       1.2960151
     8   7 N        9   6 C                                       1.3652111
    10   6 C       11   8 O                                       1.2204041
    10   6 C       12   7 N                                       1.3574935
    12   7 N       13   6 C                                       1.4534282
    14   6 C       16   6 C                                       1.4794996
    16   6 C       17   6 C                                       1.3612255
    17   6 C       18   6 C                                       1.4032081
    18   6 C       19   9 F                                       1.3044084
    18   6 C       20   6 C                                       1.4030539
    14   6 C       21   6 C                                       1.4793174
    20   6 C       21   6 C                                       1.3612270
     9   6 C       22   6 C                                       1.3641110
    22   6 C       23   8 O                                       1.3504227
     2   7 N       24   6 C                                       1.3806741
    24   6 C       25   8 O                                       1.2290445
     1   6 C       26   1 H                                       1.0864741
     1   6 C       27   1 H                                       1.0899773
     1   6 C       28   1 H                                       1.0903490
     5   6 C       29   1 H                                       1.0884655
     5   6 C       30   1 H                                       1.0891222
     5   6 C       31   1 H                                       1.0886468
     6   6 C       32   1 H                                       1.0893735
     6   6 C       33   1 H                                       1.0891048
     6   6 C       34   1 H                                       1.0878441
     7   7 N       35   1 H                                       1.0090993
     7   7 N       36   1 H                                       1.0087486
    12   7 N       37   1 H                                       1.0046942
    13   6 C       38   1 H                                       1.0948393
    13   6 C       39   1 H                                       1.0952743
    15   6 C       40   1 H                                       1.0877205
    15   6 C       41   1 H                                       1.0876876
    15   6 C       42   1 H                                       1.0873311
    16   6 C       43   1 H                                       1.0839790
    17   6 C       44   1 H                                       1.0832640
    20   6 C       45   1 H                                       1.0833399
    21   6 C       46   1 H                                       1.0840517
    23   8 O       47   1 H                                       0.9798576 (min)

 * 7 distinct bonds (by element types)

   Z      Z             #   av. dist./Å        max./Å        min./Å
   1 H    6 C          18     1.0881580     1.0952743     1.0832640
   6 C    6 C           9     1.4361092     1.5387246     1.3612255
   1 H    7 N           3     1.0075140     1.0090993     1.0046942
   6 C    7 N           8     1.3933171     1.4655574     1.2960151
   1 H    8 O           1     0.9798576     0.9798576     0.9798576
   6 C    8 O           3     1.2666238     1.3504227     1.2204041
   6 C    9 F           1     1.3044084     1.3044084     1.3044084


optimized geometry written to: xtbopt.xyz


           -------------------------------------------------
          | TOTAL ENERGY              -79.475014279483 Eh   |
          | GRADIENT NORM               0.000527400387 Eh/α |
          | HOMO-LUMO GAP               0.144971670479 eV   |
           -------------------------------------------------

------------------------------------------------------------------------
 * finished run on 2023/06/20 at 15:26:58.774     
------------------------------------------------------------------------
 total:
 * wall-time:     0 d,  0 h,  0 min,  3.101 sec
 *  cpu-time:     0 d,  0 h,  0 min,  2.928 sec
 * ratio c/w:     0.944 speedup
 SCF:
 * wall-time:     0 d,  0 h,  0 min,  0.291 sec
 *  cpu-time:     0 d,  0 h,  0 min,  0.199 sec
 * ratio c/w:     0.683 speedup
 ANC optimizer:
 * wall-time:     0 d,  0 h,  0 min,  2.686 sec
 *  cpu-time:     0 d,  0 h,  0 min,  2.675 sec
 * ratio c/w:     0.996 speedup

