      -----------------------------------------------------------      
     |                   =====================                   |     
     |                           x T B                           |     
     |                   =====================                   |     
     |                         S. Grimme                         |     
     |          Mulliken Center for Theoretical Chemistry        |     
     |                    University of Bonn                     |     
      -----------------------------------------------------------      

   * xtb version 6.5.1 (579679a) compiled by 'ehlert@majestix' on 2022-07-11

   xtb is free software: you can redistribute it and/or modify it under
   the terms of the GNU Lesser General Public License as published by
   the Free Software Foundation, either version 3 of the License, or
   (at your option) any later version.
   
   xtb is distributed in the hope that it will be useful,
   but WITHOUT ANY WARRANTY; without even the implied warranty of
   MERCHANTABILITY or FITNESS FOR A PARTICULAR PURPOSE.  See the
   GNU Lesser General Public License for more details.
   
   Cite this work as:
   * C. Bannwarth, E. Caldeweyher, S. Ehlert, A. Hansen, P. Pracht,
     J. Seibert, S. Spicher, S. Grimme, WIREs Comput. Mol. Sci., 2020, 11,
     e01493. DOI: 10.1002/wcms.1493
   
   for GFN2-xTB:
   * C. Bannwarth, S. Ehlert and S. Grimme., J. Chem. Theory Comput., 2019,
     15, 1652-1671. DOI: 10.1021/acs.jctc.8b01176
   for GFN1-xTB:
   * S. Grimme, C. Bannwarth, P. Shushkov, J. Chem. Theory Comput., 2017,
     13, 1989-2009. DOI: 10.1021/acs.jctc.7b00118
   for GFN0-xTB:
   * P. Pracht, E. Caldeweyher, S. Ehlert, S. Grimme, ChemRxiv, 2019, preprint.
     DOI: 10.26434/chemrxiv.8326202.v1
   for GFN-FF:
   * S. Spicher and S. Grimme, Angew. Chem. Int. Ed., 2020, 59, 15665-15673.
     DOI: 10.1002/anie.202004239
   
   for ALPB and GBSA implicit solvation:
   * S. Ehlert, M. Stahn, S. Spicher, S. Grimme, J. Chem. Theory Comput.,
     2021, 17, 4250-4261. DOI: 10.1021/acs.jctc.1c00471
   
   for DFT-D4:
   * E. Caldeweyher, C. Bannwarth and S. Grimme, J. Chem. Phys., 2017,
     147, 034112. DOI: 10.1063/1.4993215
   * E. Caldeweyher, S. Ehlert, A. Hansen, H. Neugebauer, S. Spicher,
     C. Bannwarth and S. Grimme, J. Chem. Phys., 2019, 150, 154122.
     DOI: 10.1063/1.5090222
   * E. Caldeweyher, J.-M. Mewes, S. Ehlert and S. Grimme, Phys. Chem. Chem. Phys.
     2020, 22, 8499-8512. DOI: 10.1039/D0CP00502A
   
   for sTDA-xTB:
   * S. Grimme and C. Bannwarth, J. Chem. Phys., 2016, 145, 054103.
     DOI: 10.1063/1.4959605
   
   in the mass-spec context:
   * V. Asgeirsson, C. Bauer and S. Grimme, Chem. Sci., 2017, 8, 4879.
     DOI: 10.1039/c7sc00601b
   * J. Koopman and S. Grimme, ACS Omega 2019, 4, 12, 15120-15133.
     DOI: 10.1021/acsomega.9b02011
   
   for metadynamics refer to:
   * S. Grimme, J. Chem. Theory Comput., 2019, 155, 2847-2862
     DOI: 10.1021/acs.jctc.9b00143
   
   for SPH calculations refer to:
   * S. Spicher and S. Grimme, J. Chem. Theory Comput., 2021, 17, 1701-1714
     DOI: 10.1021/acs.jctc.0c01306
   
   with help from (in alphabetical order)
   P. Atkinson, C. Bannwarth, F. Bohle, G. Brandenburg, E. Caldeweyher
   M. Checinski, S. Dohm, S. Ehlert, S. Ehrlich, I. Gerasimov, C. Hölzer
   A. Katbashev, J. Koopman, C. Lavigne, S. Lehtola, F. März, M. Müller,
   F. Musil, H. Neugebauer, J. Pisarek, C. Plett, P. Pracht, F. Pultar,
   J. Seibert, P. Shushkov, S. Spicher, M. Stahn, M. Steiner, T. Strunk,
   J. Stückrath, T. Rose, and J. Unsleber
   
 * started run on 2023/06/20 at 17:32:18.727     

           -------------------------------------------------
          |                Calculation Setup                |
           -------------------------------------------------

          program call               : /lustre/hpc/kemi/ree/PhD/git/ReactivityQM/dep/xtb-6.5.1/bin/xtb --gfn 1 /lustre/hpc/kemi/ree/PhD/git/ReactivityQM/calculations/R02deprot/reac01/conf20/R02deprot_reac01_conf20_gfn1.xyz --opt --vfukui --chrg -1 --uhf 0 --alpb DMSO
          hostname                   : node308
          coordinate file            : /lustre/hpc/kemi/ree/PhD/git/ReactivityQM/calculations/R02deprot/reac01/conf20/R02deprot_reac01_conf20_gfn1.xyz
          omp threads                :                     1

   ID    Z sym.   atoms
    1    6 C      1, 3, 5, 7-10, 12, 14, 17, 18, 21, 23
    2    8 O      2, 4, 13, 19, 22, 24
    3    7 N      6, 11, 15, 16, 20
    4    1 H      25-38

           -------------------------------------------------
          |                 G F N 1 - x T B                 |
           -------------------------------------------------

        Reference                      10.1021/acs.jctc.7b00118
      * Hamiltonian:
        H0-scaling (s, p, d)           1.850000    2.250000    2.000000
        zeta-weighting                 0.000000
      * Dispersion:
        s8                             2.400000
        a1                             0.630000
        a2                             5.000000
        s9                             0.000000
      * Repulsion:
        kExp                           1.500000
        rExp                           1.000000
      * Coulomb:
        alpha                          2.000000
        third order                    atomic
        anisotropic                    false
      * Halogen bond correction:
        rad-scale                      1.300000
        damping                        0.440000

      * Solvation model:               ALPB
        Solvent                        DMSO
        Parameter file                 internal GFN1-xTB/ALPB
        Dielectric constant                4.6680E+01
        Reference state                gsolv [1 M gas/solution]
        Free energy shift                  7.6243E-03 Eh       4.7843E+00 kcal/mol
        Temperature                        2.9815E+02 K
        Density                            1.1000E+00 kg/L
        Solvent mass                       7.8130E+01 g/mol
        Interaction kernel             P16
        Born radius scaling (c1)           1.7672E+00
        Born radii integrator          GBOBC
        Born offset                        0.0000E+00 a0       0.0000E+00 AA
        H-bond correction              true
        Ion screening                  false
        Surface tension                    1.0000E-05 Eh       1.5569E+01 dyn/cm
        Grid points                               230 per atom

          ...................................................
          :                      SETUP                      :
          :.................................................:
          :  # basis functions                 124          :
          :  # atomic orbitals                 124          :
          :  # shells                           76          :
          :  # electrons                       128          :
          :  # halogen bonds                     0          :
          :  max. iterations                   250          :
          :  Hamiltonian                  GFN1-xTB          :
          :  restarted?                      false          :
          :  GBSA solvation                   true          :
          :  PC potential                    false          :
          :  electronic temp.          300.0000000     K    :
          :  accuracy                    1.0000000          :
          :  -> integral cutoff          0.2500000E+02      :
          :  -> integral neglect         0.1000000E-07      :
          :  -> SCF convergence          0.1000000E-05 Eh   :
          :  -> wf. convergence          0.2000000E-04 e    :
          :  Broyden damping             0.4000000          :
          ...................................................

 iter      E             dE          RMSdq      gap      omega  full diag
   1    -80.0474801 -0.800475E+02  0.866E+00    2.90       0.0  T
   2    -80.2939910 -0.246511E+00  0.517E+00    2.11       1.0  T
   3    -80.2840436  0.994738E-02  0.156E+00    1.70       1.0  T
   4    -80.3066994 -0.226559E-01  0.148E-01    1.43       1.0  T
   5    -80.3072750 -0.575541E-03  0.414E-02    1.52       1.0  T
   6    -80.3073005 -0.254784E-04  0.117E-02    1.55       1.4  T
   7    -80.3073023 -0.181446E-05  0.349E-03    1.56       4.7  T
   8    -80.3073025 -0.243384E-06  0.919E-04    1.57      17.7  T
   9    -80.3073025 -0.139600E-07  0.411E-04    1.57      39.5  T
  10    -80.3073025 -0.103124E-08  0.134E-04    1.57     121.2  T
  11    -80.3073025 -0.232475E-09  0.275E-05    1.57     589.8  T

   *** convergence criteria satisfied after 11 iterations ***

         #    Occupation            Energy/Eh            Energy/eV
      -------------------------------------------------------------
         1        2.0000           -0.8565522             -23.3080
       ...           ...                  ...                  ...
        58        2.0000           -0.4387578             -11.9392
        59        2.0000           -0.4352465             -11.8437
        60        2.0000           -0.4263662             -11.6020
        61        2.0000           -0.4195384             -11.4162
        62        2.0000           -0.4008901             -10.9088
        63        2.0000           -0.3730272             -10.1506
        64        2.0000           -0.3653367              -9.9413 (HOMO)
        65                         -0.3077888              -8.3754 (LUMO)
        66                         -0.2785617              -7.5801
        67                         -0.2545614              -6.9270
        68                         -0.2270145              -6.1774
        69                         -0.1908024              -5.1920
       ...                                ...                  ...
       124                          0.7516734              20.4541
      -------------------------------------------------------------
                  HL-Gap            0.0575478 Eh            1.5660 eV
             Fermi-level           -0.3365628 Eh           -9.1583 eV

 SCC (total)                   0 d,  0 h,  0 min,  0.139 sec
 SCC setup                      ...        0 min,  0.002 sec (  1.417%)
 Dispersion                     ...        0 min,  0.000 sec (  0.265%)
 classical contributions        ...        0 min,  0.000 sec (  0.089%)
 integral evaluation            ...        0 min,  0.034 sec ( 24.856%)
 iterations                     ...        0 min,  0.033 sec ( 23.937%)
 molecular gradient             ...        0 min,  0.068 sec ( 48.846%)
 printout                       ...        0 min,  0.001 sec (  0.549%)

         :::::::::::::::::::::::::::::::::::::::::::::::::::::
         ::                     SUMMARY                     ::
         :::::::::::::::::::::::::::::::::::::::::::::::::::::
         :: total energy             -79.598909051518 Eh    ::
         :: total w/o Gsasa/hb       -79.576056351772 Eh    ::
         :: gradient norm              0.123493036124 Eh/a0 ::
         :: HOMO-LUMO gap              1.565955689095 eV    ::
         ::.................................................::
         :: SCC energy               -80.307302542157 Eh    ::
         :: -> electrostatic           0.439534021526 Eh    ::
         :: -> Gsolv                  -0.107854766961 Eh    ::
         ::    -> Gelec               -0.085002067215 Eh    ::
         ::    -> Gsasa               -0.024228212288 Eh    ::
         ::    -> Ghb                 -0.006248766463 Eh    ::
         ::    -> Gshift               0.007624279005 Eh    ::
         :: repulsion energy           0.730742020757 Eh    ::
         :: dispersion energy         -0.022348530119 Eh    ::
         :: halogen bond corr.         0.000000000000 Eh    ::
         :: add. restraining           0.000000000000 Eh    ::
         :: total charge              -1.000000000000 e     ::
         :::::::::::::::::::::::::::::::::::::::::::::::::::::

      ----------------------------------------------------------- 
     |                   =====================                   |
     |                        A N C O P T                        |
     |                   =====================                   |
     |               Approximate Normal Coordinate               |
     |                Rational Function Optimizer                |
      ----------------------------------------------------------- 

          ...................................................
          :                      SETUP                      :
          :.................................................:
          :   optimization level            normal          :
          :   max. optcycles                   200          :
          :   ANC micro-cycles                  20          :
          :   degrees of freedom               108          :
          :.................................................:
          :   RF solver                   davidson          :
          :   write xtbopt.log                true          :
          :   linear?                        false          :
          :   energy convergence         0.5000000E-05 Eh   :
          :   grad. convergence          0.1000000E-02 Eh/α :
          :   maximium RF displ.         1.0000000          :
          :   Hlow (freq-cutoff)         0.1000000E-01      :
          :   Hmax (freq-cutoff)         5.0000000          :
          :   S6 in model hess.         20.0000000          :
          ...................................................

generating ANC from model Hessian ...
Using Lindh-Hessian (1995)
 Shifting diagonal of input Hessian by   9.817789376830996E-003
 Lowest  eigenvalues of input Hessian
    0.000000    0.000000    0.000000    0.000000    0.000000    0.000000
    0.010000    0.010234    0.010549    0.011380    0.012023    0.012588
    0.013400    0.014359    0.015563    0.016140    0.016891    0.018519
 Highest eigenvalues
    2.003733    2.121151    2.174681    2.277668    2.323382    2.368243
 

........................................................................
.............................. CYCLE    1 ..............................
........................................................................
   1    -80.3073025 -0.803073E+02  0.930E-06    1.57       0.0  T
   2    -80.3073025 -0.189004E-11  0.460E-06    1.57    3529.2  T
   3    -80.3073025 -0.369482E-12  0.242E-06    1.57    6703.0  T
     SCC iter.                  ...        0 min,  0.009 sec
     gradient                   ...        0 min,  0.067 sec
 * total energy  :   -79.5989091 Eh     change       -0.2064837E-10 Eh
   gradient norm :     0.1234932 Eh/α   predicted     0.0000000E+00 (-100.00%)
   displ. norm   :     0.2633213 α      lambda       -0.1475151E-01
   maximum displ.:     0.1214405 α      in ANC's #21, #23, #24, ...

........................................................................
.............................. CYCLE    2 ..............................
........................................................................
   1    -80.3187923 -0.803188E+02  0.889E-02    1.77       0.0  T
   2    -80.3191103 -0.317928E-03  0.412E-02    1.76       1.0  T
   3    -80.3191486 -0.383828E-04  0.154E-02    1.76       1.1  T
   4    -80.3191488 -0.165376E-06  0.496E-03    1.76       3.3  T
   5    -80.3191489 -0.131014E-06  0.737E-04    1.76      22.0  T
   6    -80.3191490 -0.128755E-07  0.294E-04    1.76      55.1  T
   7    -80.3191490 -0.119547E-08  0.104E-04    1.76     156.1  T
   8    -80.3191490 -0.136552E-09  0.290E-05    1.76     559.4  T
     SCC iter.                  ...        0 min,  0.023 sec
     gradient                   ...        0 min,  0.068 sec
 * total energy  :   -79.6094611 Eh     change       -0.1055200E-01 Eh
   gradient norm :     0.0624425 Eh/α   predicted    -0.7893610E-02 ( -25.19%)
   displ. norm   :     0.2647979 α      lambda       -0.6122019E-02
   maximum displ.:     0.1451517 α      in ANC's #21, #2, #24, ...

........................................................................
.............................. CYCLE    3 ..............................
........................................................................
   1    -80.3295979 -0.803296E+02  0.810E-02    1.93       0.0  T
   2    -80.3298465 -0.248662E-03  0.358E-02    1.93       1.0  T
   3    -80.3298773 -0.307535E-04  0.121E-02    1.93       1.3  T
   4    -80.3298774 -0.769866E-07  0.489E-03    1.93       3.3  T
   5    -80.3298775 -0.124493E-06  0.768E-04    1.93      21.1  T
   6    -80.3298775 -0.883618E-08  0.279E-04    1.93      58.2  T
   7    -80.3298775 -0.158109E-08  0.106E-04    1.93     153.3  T
   8    -80.3298775 -0.130854E-09  0.256E-05    1.93     634.1  T
     SCC iter.                  ...        0 min,  0.019 sec
     gradient                   ...        0 min,  0.037 sec
 * total energy  :   -79.6129960 Eh     change       -0.3534979E-02 Eh
   gradient norm :     0.0179369 Eh/α   predicted    -0.3276780E-02 (  -7.30%)
   displ. norm   :     0.1659842 α      lambda       -0.7297469E-03
   maximum displ.:     0.0882405 α      in ANC's #2, #7, #21, ...

........................................................................
.............................. CYCLE    4 ..............................
........................................................................
   1    -80.3317421 -0.803317E+02  0.209E-02    1.96       0.0  T
   2    -80.3317565 -0.144072E-04  0.949E-03    1.96       1.7  T
   3    -80.3317583 -0.178885E-05  0.409E-03    1.96       4.0  T
   4    -80.3317583 -0.324783E-08  0.149E-03    1.96      10.9  T
   5    -80.3317583 -0.197104E-07  0.293E-04    1.96      55.3  T
   6    -80.3317583 -0.155511E-08  0.906E-05    1.96     179.0  T
   7    -80.3317583 -0.207436E-09  0.291E-05    1.96     557.4  T
     SCC iter.                  ...        0 min,  0.015 sec
     gradient                   ...        0 min,  0.038 sec
 * total energy  :   -79.6135372 Eh     change       -0.5411237E-03 Eh
   gradient norm :     0.0097587 Eh/α   predicted    -0.3750527E-03 ( -30.69%)
   displ. norm   :     0.2632768 α      lambda       -0.6243179E-03
   maximum displ.:     0.1623389 α      in ANC's #2, #7, #3, ...

........................................................................
.............................. CYCLE    5 ..............................
........................................................................
   1    -80.3329467 -0.803329E+02  0.191E-02    1.97       0.0  T
   2    -80.3329571 -0.104289E-04  0.864E-03    1.97       1.9  T
   3    -80.3329584 -0.125712E-05  0.452E-03    1.98       3.6  T
   4    -80.3329584 -0.216516E-07  0.137E-03    1.98      11.8  T
   5    -80.3329584 -0.250637E-07  0.309E-04    1.98      52.4  T
   6    -80.3329585 -0.203011E-08  0.767E-05    1.98     211.4  T
   7    -80.3329585 -0.142236E-09  0.260E-05    1.98     624.8  T
     SCC iter.                  ...        0 min,  0.016 sec
     gradient                   ...        0 min,  0.038 sec
 * total energy  :   -79.6139663 Eh     change       -0.4291288E-03 Eh
   gradient norm :     0.0070141 Eh/α   predicted    -0.3337982E-03 ( -22.21%)
   displ. norm   :     0.2632755 α      lambda       -0.3392732E-03
   maximum displ.:     0.1723944 α      in ANC's #2, #7, #3, ...

........................................................................
.............................. CYCLE    6 ..............................
........................................................................
   1    -80.3331482 -0.803331E+02  0.101E-02    1.98       0.0  T
   2    -80.3331506 -0.239294E-05  0.421E-03    1.98       3.9  T
   3    -80.3331509 -0.291299E-06  0.246E-03    1.98       6.6  T
   4    -80.3331509 -0.243912E-07  0.737E-04    1.98      22.0  T
   5    -80.3331509 -0.481191E-08  0.153E-04    1.98     106.1  T
   6    -80.3331509 -0.527024E-09  0.379E-05    1.98     427.6  T
     SCC iter.                  ...        0 min,  0.013 sec
     gradient                   ...        0 min,  0.038 sec
 * total energy  :   -79.6142311 Eh     change       -0.2648584E-03 Eh
   gradient norm :     0.0083736 Eh/α   predicted    -0.1813948E-03 ( -31.51%)
   displ. norm   :     0.3129576 α      lambda       -0.3437762E-03
   maximum displ.:     0.2079009 α      in ANC's #2, #3, #7, ...

........................................................................
.............................. CYCLE    7 ..............................
........................................................................
   1    -80.3329232 -0.803329E+02  0.737E-03    1.97       0.0  T
   2    -80.3329246 -0.136286E-05  0.305E-03    1.97       5.3  T
   3    -80.3329247 -0.142594E-06  0.170E-03    1.97       9.6  T
   4    -80.3329247 -0.127230E-07  0.569E-04    1.97      28.5  T
   5    -80.3329247 -0.175847E-08  0.111E-04    1.97     146.6  T
   6    -80.3329247 -0.293298E-09  0.263E-05    1.97     615.8  T
     SCC iter.                  ...        0 min,  0.013 sec
     gradient                   ...        0 min,  0.037 sec
 * total energy  :   -79.6145119 Eh     change       -0.2807137E-03 Eh
   gradient norm :     0.0082754 Eh/α   predicted    -0.1887273E-03 ( -32.77%)
   displ. norm   :     0.3345683 α      lambda       -0.3418892E-03
   maximum displ.:     0.2296087 α      in ANC's #2, #3, #7, ...

........................................................................
.............................. CYCLE    8 ..............................
........................................................................
   1    -80.3326797 -0.803327E+02  0.649E-03    1.97       0.0  T
   2    -80.3326815 -0.172991E-05  0.308E-03    1.97       5.3  T
   3    -80.3326816 -0.106066E-06  0.150E-03    1.97      10.8  T
   4    -80.3326816 -0.407510E-09  0.574E-04    1.97      28.2  T
   5    -80.3326816 -0.214024E-08  0.110E-04    1.97     146.9  T
   6    -80.3326816 -0.387757E-09  0.257E-05    1.97     631.1  T
     SCC iter.                  ...        0 min,  0.013 sec
     gradient                   ...        0 min,  0.038 sec
 * total energy  :   -79.6147865 Eh     change       -0.2746035E-03 Eh
   gradient norm :     0.0067908 Eh/α   predicted    -0.1900808E-03 ( -30.78%)
   displ. norm   :     0.3116750 α      lambda       -0.2707373E-03
   maximum displ.:     0.2256886 α      in ANC's #2, #3, #7, ...

........................................................................
.............................. CYCLE    9 ..............................
........................................................................
   1    -80.3329535 -0.803330E+02  0.622E-03    1.97       0.0  T
   2    -80.3329550 -0.149390E-05  0.288E-03    1.97       5.6  T
   3    -80.3329550 -0.821658E-07  0.156E-03    1.97      10.4  T
   4    -80.3329551 -0.170016E-08  0.425E-04    1.97      38.2  T
   5    -80.3329551 -0.108291E-08  0.845E-05    1.97     192.0  T
   6    -80.3329551 -0.161805E-09  0.199E-05    1.97     816.8  T
     SCC iter.                  ...        0 min,  0.014 sec
     gradient                   ...        0 min,  0.039 sec
 * total energy  :   -79.6150035 Eh     change       -0.2170618E-03 Eh
   gradient norm :     0.0054336 Eh/α   predicted    -0.1485187E-03 ( -31.58%)
   displ. norm   :     0.2679161 α      lambda       -0.1951088E-03
   maximum displ.:     0.2013936 α      in ANC's #2, #3, #7, ...

........................................................................
.............................. CYCLE   10 ..............................
........................................................................
   1    -80.3336161 -0.803336E+02  0.596E-03    1.97       0.0  T
   2    -80.3336173 -0.119349E-05  0.258E-03    1.97       6.3  T
   3    -80.3336174 -0.904945E-07  0.146E-03    1.97      11.1  T
   4    -80.3336174 -0.275429E-08  0.428E-04    1.97      37.9  T
   5    -80.3336174 -0.218192E-08  0.108E-04    1.97     150.6  T
   6    -80.3336174 -0.268770E-09  0.231E-05    1.97     703.6  T
     SCC iter.                  ...        0 min,  0.014 sec
     gradient                   ...        0 min,  0.039 sec
 * total energy  :   -79.6151671 Eh     change       -0.1635942E-03 Eh
   gradient norm :     0.0044327 Eh/α   predicted    -0.1045615E-03 ( -36.08%)
   displ. norm   :     0.2597892 α      lambda       -0.1707113E-03
   maximum displ.:     0.1967226 α      in ANC's #2, #3, #10, ...

........................................................................
.............................. CYCLE   11 ..............................
........................................................................
   1    -80.3343224 -0.803343E+02  0.563E-03    1.98       0.0  T
   2    -80.3343235 -0.109864E-05  0.249E-03    1.98       6.5  T
   3    -80.3343236 -0.115403E-06  0.127E-03    1.98      12.8  T
   4    -80.3343236 -0.206347E-08  0.413E-04    1.98      39.2  T
   5    -80.3343236 -0.156358E-08  0.947E-05    1.98     171.3  T
   6    -80.3343236 -0.195143E-09  0.221E-05    1.98     735.0  T
     SCC iter.                  ...        0 min,  0.014 sec
     gradient                   ...        0 min,  0.039 sec
 * total energy  :   -79.6153167 Eh     change       -0.1495498E-03 Eh
   gradient norm :     0.0037760 Eh/α   predicted    -0.9111837E-04 ( -39.07%)
   displ. norm   :     0.2967317 α      lambda       -0.1752852E-03
   maximum displ.:     0.2216282 α      in ANC's #2, #3, #10, ...

........................................................................
.............................. CYCLE   12 ..............................
........................................................................
   1    -80.3347019 -0.803347E+02  0.553E-03    1.99       0.0  T
   2    -80.3347030 -0.106011E-05  0.261E-03    1.99       6.2  T
   3    -80.3347031 -0.131362E-06  0.123E-03    1.99      13.1  T
   4    -80.3347031 -0.115330E-08  0.376E-04    1.99      43.2  T
   5    -80.3347031 -0.167337E-08  0.946E-05    1.99     171.4  T
   6    -80.3347031 -0.176826E-09  0.228E-05    1.99     711.1  T
     SCC iter.                  ...        0 min,  0.014 sec
     gradient                   ...        0 min,  0.037 sec
 * total energy  :   -79.6154668 Eh     change       -0.1501757E-03 Eh
   gradient norm :     0.0036487 Eh/α   predicted    -0.9536330E-04 ( -36.50%)
   displ. norm   :     0.3154346 α      lambda       -0.1535053E-03
   maximum displ.:     0.2345212 α      in ANC's #2, #3, #4, ...

........................................................................
.............................. CYCLE   13 ..............................
........................................................................
   1    -80.3348768 -0.803349E+02  0.452E-03    1.99       0.0  T
   2    -80.3348774 -0.606050E-06  0.223E-03    1.99       7.3  T
   3    -80.3348775 -0.741799E-07  0.112E-03    2.00      14.4  T
   4    -80.3348775 -0.174349E-08  0.293E-04    2.00      55.3  T
   5    -80.3348775 -0.132785E-08  0.870E-05    2.00     186.4  T
   6    -80.3348775 -0.149967E-09  0.236E-05    2.00     686.5  T
     SCC iter.                  ...        0 min,  0.014 sec
     gradient                   ...        0 min,  0.039 sec
 * total energy  :   -79.6155929 Eh     change       -0.1260206E-03 Eh
   gradient norm :     0.0036652 Eh/α   predicted    -0.8439200E-04 ( -33.03%)
   displ. norm   :     0.2893333 α      lambda       -0.1109676E-03
   maximum displ.:     0.2154248 α      in ANC's #2, #3, #4, ...

........................................................................
.............................. CYCLE   14 ..............................
........................................................................
   1    -80.3349071 -0.803349E+02  0.323E-03    2.00       0.0  T
   2    -80.3349074 -0.253314E-06  0.154E-03    2.00      10.5  T
   3    -80.3349074 -0.226664E-07  0.839E-04    2.00      19.3  T
   4    -80.3349074 -0.173868E-08  0.221E-04    2.00      73.5  T
   5    -80.3349074 -0.572967E-09  0.613E-05    2.00     264.5  T
   6    -80.3349074 -0.842277E-10  0.202E-05    2.00     802.3  T
     SCC iter.                  ...        0 min,  0.014 sec
     gradient                   ...        0 min,  0.038 sec
 * total energy  :   -79.6156841 Eh     change       -0.9119422E-04 Eh
   gradient norm :     0.0032983 Eh/α   predicted    -0.6013112E-04 ( -34.06%)
   displ. norm   :     0.2712100 α      lambda       -0.9051785E-04
   maximum displ.:     0.2029375 α      in ANC's #2, #3, #4, ...

........................................................................
.............................. CYCLE   15 ..............................
........................................................................
   1    -80.3350271 -0.803350E+02  0.276E-03    2.00       0.0  T
   2    -80.3350273 -0.212264E-06  0.118E-03    2.01      13.7  T
   3    -80.3350273 -0.170863E-07  0.674E-04    2.01      24.1  T
   4    -80.3350273 -0.149907E-08  0.217E-04    2.01      74.8  T
   5    -80.3350273 -0.391921E-09  0.541E-05    2.01     299.7  T
   6    -80.3350273 -0.380709E-10  0.182E-05    2.01     893.6  T
     SCC iter.                  ...        0 min,  0.014 sec
     gradient                   ...        0 min,  0.039 sec
 * total energy  :   -79.6157592 Eh     change       -0.7511173E-04 Eh
   gradient norm :     0.0027156 Eh/α   predicted    -0.4858963E-04 ( -35.31%)
   displ. norm   :     0.2871399 α      lambda       -0.8848115E-04
   maximum displ.:     0.2154287 α      in ANC's #2, #3, #4, ...

........................................................................
.............................. CYCLE   16 ..............................
........................................................................
   1    -80.3350246 -0.803350E+02  0.318E-03    2.01       0.0  T
   2    -80.3350249 -0.312178E-06  0.132E-03    2.01      12.3  T
   3    -80.3350250 -0.348268E-07  0.684E-04    2.01      23.7  T
   4    -80.3350250 -0.193390E-08  0.255E-04    2.01      63.7  T
   5    -80.3350250 -0.369567E-09  0.633E-05    2.01     256.2  T
   6    -80.3350250 -0.634799E-10  0.204E-05    2.01     796.0  T
     SCC iter.                  ...        0 min,  0.015 sec
     gradient                   ...        0 min,  0.040 sec
 * total energy  :   -79.6158300 Eh     change       -0.7083271E-04 Eh
   gradient norm :     0.0024072 Eh/α   predicted    -0.4788875E-04 ( -32.39%)
   displ. norm   :     0.3231559 α      lambda       -0.8952781E-04
   maximum displ.:     0.2424065 α      in ANC's #2, #3, #4, ...

........................................................................
.............................. CYCLE   17 ..............................
........................................................................
   1    -80.3349402 -0.803349E+02  0.377E-03    2.01       0.0  T
   2    -80.3349406 -0.427211E-06  0.158E-03    2.02      10.3  T
   3    -80.3349407 -0.580625E-07  0.751E-04    2.02      21.6  T
   4    -80.3349407 -0.277298E-08  0.274E-04    2.02      59.3  T
   5    -80.3349407 -0.427633E-09  0.736E-05    2.02     220.4  T
   6    -80.3349407 -0.869278E-10  0.221E-05    2.02     735.7  T
     SCC iter.                  ...        0 min,  0.014 sec
     gradient                   ...        0 min,  0.039 sec
 * total energy  :   -79.6159042 Eh     change       -0.7424059E-04 Eh
   gradient norm :     0.0026880 Eh/α   predicted    -0.4944069E-04 ( -33.40%)
   displ. norm   :     0.4013494 α      lambda       -0.9773765E-04
   maximum displ.:     0.2995651 α      in ANC's #2, #3, #1, ...

........................................................................
.............................. CYCLE   18 ..............................
........................................................................
   1    -80.3343495 -0.803343E+02  0.435E-03    2.02       0.0  T
   2    -80.3343500 -0.494641E-06  0.183E-03    2.02       8.8  T
   3    -80.3343501 -0.726314E-07  0.915E-04    2.02      17.7  T
   4    -80.3343501 -0.612164E-08  0.303E-04    2.02      53.6  T
   5    -80.3343501 -0.490530E-09  0.895E-05    2.02     181.3  T
   6    -80.3343501 -0.113104E-09  0.237E-05    2.02     685.0  T
     SCC iter.                  ...        0 min,  0.015 sec
     gradient                   ...        0 min,  0.056 sec
 * total energy  :   -79.6159761 Eh     change       -0.7187935E-04 Eh
   gradient norm :     0.0034459 Eh/α   predicted    -0.5674739E-04 ( -21.05%)
   displ. norm   :     0.2843820 α      lambda       -0.6479185E-04
   maximum displ.:     0.2076536 α      in ANC's #2, #1, #3, ...

........................................................................
.............................. CYCLE   19 ..............................
........................................................................
   1    -80.3351102 -0.803351E+02  0.366E-03    2.03       0.0  T
   2    -80.3351106 -0.301987E-06  0.177E-03    2.03       9.1  T
   3    -80.3351106 -0.301809E-07  0.982E-04    2.03      16.5  T
   4    -80.3351106 -0.510995E-08  0.271E-04    2.03      59.9  T
   5    -80.3351106 -0.807148E-09  0.739E-05    2.03     219.7  T
   6    -80.3351106 -0.806466E-10  0.203E-05    2.03     797.7  T
     SCC iter.                  ...        0 min,  0.015 sec
     gradient                   ...        0 min,  0.039 sec
 * total energy  :   -79.6160222 Eh     change       -0.4611404E-04 Eh
   gradient norm :     0.0034113 Eh/α   predicted    -0.3502335E-04 ( -24.05%)
   displ. norm   :     0.3222059 α      lambda       -0.6007703E-04
   maximum displ.:     0.2316710 α      in ANC's #2, #1, #3, ...

........................................................................
.............................. CYCLE   20 ..............................
........................................................................
   1    -80.3335665 -0.803336E+02  0.518E-03    2.03       0.0  T
   2    -80.3335669 -0.317151E-06  0.258E-03    2.04       6.3  T
   3    -80.3335669 -0.122296E-07  0.109E-03    2.04      14.8  T
   4    -80.3335669 -0.448297E-08  0.292E-04    2.04      55.6  T
   5    -80.3335669 -0.162765E-08  0.792E-05    2.04     204.9  T
   6    -80.3335669 -0.124999E-09  0.140E-05    2.04    1157.8  T
     SCC iter.                  ...        0 min,  0.014 sec
     gradient                   ...        0 min,  0.038 sec
 * total energy  :   -79.6160523 Eh     change       -0.3004159E-04 Eh
   gradient norm :     0.0042701 Eh/α   predicted    -0.3316078E-04 (  10.38%)
   displ. norm   :     0.1006894 α      lambda       -0.5942748E-04
   maximum displ.:     0.0733425 α      in ANC's #1, #2, #5, ...
 * RMSD in coord.:     0.7708449 α      energy gain  -0.1714323E-01 Eh

generating ANC from model Hessian ...
Using Lindh-Hessian (1995)
 Shifting diagonal of input Hessian by   9.785179396961380E-003
 Lowest  eigenvalues of input Hessian
    0.000000    0.000000    0.000000    0.000000    0.000000    0.000000
    0.010000    0.010297    0.010508    0.011470    0.011815    0.012707
    0.013268    0.014125    0.015552    0.016792    0.017456    0.018774
 Highest eigenvalues
    2.028119    2.154539    2.180094    2.294631    2.379518    2.408652
 

........................................................................
.............................. CYCLE   21 ..............................
........................................................................
   1    -80.3357950 -0.803358E+02  0.480E-03    2.04       0.0  T
   2    -80.3357954 -0.374490E-06  0.220E-03    2.04       7.4  T
   3    -80.3357954 -0.204830E-07  0.121E-03    2.04      13.4  T
   4    -80.3357954 -0.396152E-08  0.250E-04    2.04      65.0  T
   5    -80.3357954 -0.847450E-09  0.584E-05    2.04     278.0  T
   6    -80.3357954 -0.527223E-10  0.186E-05    2.04     871.4  T
     SCC iter.                  ...        0 min,  0.014 sec
     gradient                   ...        0 min,  0.037 sec
 * total energy  :   -79.6160943 Eh     change       -0.4198121E-04 Eh
   gradient norm :     0.0025059 Eh/α   predicted     0.0000000E+00 (-100.00%)
   displ. norm   :     0.0387106 α      lambda       -0.2218182E-04
   maximum displ.:     0.0249271 α      in ANC's #1, #7, #5, ...

........................................................................
.............................. CYCLE   22 ..............................
........................................................................
   1    -80.3355889 -0.803356E+02  0.165E-03    2.04       0.0  T
   2    -80.3355890 -0.952076E-07  0.747E-04    2.04      21.7  T
   3    -80.3355890 -0.120690E-07  0.345E-04    2.04      47.0  T
   4    -80.3355890 -0.259092E-09  0.130E-04    2.04     124.8  T
   5    -80.3355890 -0.110219E-09  0.352E-05    2.04     461.5  T
     SCC iter.                  ...        0 min,  0.012 sec
     gradient                   ...        0 min,  0.037 sec
 * total energy  :   -79.6161192 Eh     change       -0.2496040E-04 Eh
   gradient norm :     0.0014335 Eh/α   predicted    -0.1403688E-04 ( -43.76%)
   displ. norm   :     0.2553066 α      lambda       -0.9552600E-04
   maximum displ.:     0.1519310 α      in ANC's #1, #7, #5, ...

........................................................................
.............................. CYCLE   23 ..............................
........................................................................
   1    -80.3344510 -0.803345E+02  0.849E-03    2.04       0.0  T
   2    -80.3344533 -0.230583E-05  0.392E-03    2.04       4.1  T
   3    -80.3344536 -0.379169E-06  0.172E-03    2.04       9.4  T
   4    -80.3344537 -0.592391E-08  0.597E-04    2.04      27.2  T
   5    -80.3344537 -0.293798E-08  0.141E-04    2.04     115.0  T
   6    -80.3344537 -0.414943E-09  0.239E-05    2.04     680.1  T
     SCC iter.                  ...        0 min,  0.014 sec
     gradient                   ...        0 min,  0.037 sec
 * total energy  :   -79.6161903 Eh     change       -0.7103520E-04 Eh
   gradient norm :     0.0041572 Eh/α   predicted    -0.4915373E-04 ( -30.80%)
   displ. norm   :     0.0487221 α      lambda       -0.2833463E-04
   maximum displ.:     0.0352353 α      in ANC's #1, #5, #3, ...

........................................................................
.............................. CYCLE   24 ..............................
........................................................................
   1    -80.3350323 -0.803350E+02  0.131E-03    2.04       0.0  T
   2    -80.3350323 -0.630174E-07  0.789E-04    2.04      20.6  T
   3    -80.3350323 -0.949051E-08  0.402E-04    2.04      40.3  T
   4    -80.3350323 -0.125212E-09  0.113E-04    2.04     143.7  T
   5    -80.3350323 -0.109253E-09  0.240E-05    2.04     675.6  T
     SCC iter.                  ...        0 min,  0.012 sec
     gradient                   ...        0 min,  0.038 sec
 * total energy  :   -79.6162154 Eh     change       -0.2513247E-04 Eh
   gradient norm :     0.0030531 Eh/α   predicted    -0.1420609E-04 ( -43.48%)
   displ. norm   :     0.1327020 α      lambda       -0.7053328E-04
   maximum displ.:     0.0945291 α      in ANC's #1, #5, #3, ...

........................................................................
.............................. CYCLE   25 ..............................
........................................................................
   1    -80.3363136 -0.803363E+02  0.381E-03    2.04       0.0  T
   2    -80.3363142 -0.591171E-06  0.220E-03    2.04       7.4  T
   3    -80.3363143 -0.104504E-06  0.102E-03    2.04      15.9  T
   4    -80.3363143 -0.109479E-08  0.333E-04    2.04      48.7  T
   5    -80.3363143 -0.682974E-09  0.654E-05    2.04     248.2  T
   6    -80.3363143 -0.128338E-09  0.159E-05    2.04    1022.2  T
     SCC iter.                  ...        0 min,  0.014 sec
     gradient                   ...        0 min,  0.037 sec
 * total energy  :   -79.6162655 Eh     change       -0.5013082E-04 Eh
   gradient norm :     0.0015949 Eh/α   predicted    -0.3588815E-04 ( -28.41%)
   displ. norm   :     0.2226216 α      lambda       -0.4083797E-04
   maximum displ.:     0.1571627 α      in ANC's #1, #5, #3, ...

........................................................................
.............................. CYCLE   26 ..............................
........................................................................
   1    -80.3364092 -0.803364E+02  0.315E-03    2.03       0.0  T
   2    -80.3364096 -0.435333E-06  0.145E-03    2.03      11.2  T
   3    -80.3364096 -0.402015E-07  0.628E-04    2.03      25.8  T
   4    -80.3364096 -0.990752E-09  0.321E-04    2.03      50.6  T
   5    -80.3364096 -0.561542E-09  0.739E-05    2.03     219.6  T
   6    -80.3364096 -0.105160E-09  0.140E-05    2.03    1155.6  T
     SCC iter.                  ...        0 min,  0.014 sec
     gradient                   ...        0 min,  0.037 sec
 * total energy  :   -79.6163109 Eh     change       -0.4540385E-04 Eh
   gradient norm :     0.0033520 Eh/α   predicted    -0.2087160E-04 ( -54.03%)
   displ. norm   :     0.1200334 α      lambda       -0.3542674E-04
   maximum displ.:     0.0856834 α      in ANC's #1, #5, #3, ...

........................................................................
.............................. CYCLE   27 ..............................
........................................................................
   1    -80.3361820 -0.803362E+02  0.858E-04    2.03       0.0  T
   2    -80.3361820 -0.223359E-07  0.426E-04    2.03      38.1  T
   3    -80.3361820 -0.226002E-08  0.209E-04    2.03      77.6  T
   4    -80.3361820 -0.879368E-10  0.622E-05    2.03     260.8  T
   5    -80.3361820 -0.190283E-10  0.115E-05    2.03    1414.3  T
     SCC iter.                  ...        0 min,  0.012 sec
     gradient                   ...        0 min,  0.037 sec
 * total energy  :   -79.6163439 Eh     change       -0.3294435E-04 Eh
   gradient norm :     0.0030018 Eh/α   predicted    -0.1796944E-04 ( -45.46%)
   displ. norm   :     0.1841216 α      lambda       -0.6339370E-04
   maximum displ.:     0.1309118 α      in ANC's #1, #5, #3, ...

........................................................................
.............................. CYCLE   28 ..............................
........................................................................
   1    -80.3356775 -0.803357E+02  0.196E-03    2.03       0.0  T
   2    -80.3356777 -0.155166E-06  0.112E-03    2.03      14.5  T
   3    -80.3356777 -0.182712E-07  0.551E-04    2.03      29.4  T
   4    -80.3356777 -0.182965E-09  0.159E-04    2.03     101.9  T
   5    -80.3356777 -0.178503E-09  0.327E-05    2.03     495.4  T
     SCC iter.                  ...        0 min,  0.012 sec
     gradient                   ...        0 min,  0.037 sec
 * total energy  :   -79.6163980 Eh     change       -0.5413106E-04 Eh
   gradient norm :     0.0018215 Eh/α   predicted    -0.3277216E-04 ( -39.46%)
   displ. norm   :     0.3358357 α      lambda       -0.6181556E-04
   maximum displ.:     0.2436708 α      in ANC's #1, #5, #2, ...

........................................................................
.............................. CYCLE   29 ..............................
........................................................................
   1    -80.3341442 -0.803341E+02  0.362E-03    2.04       0.0  T
   2    -80.3341446 -0.404756E-06  0.193E-03    2.04       8.4  T
   3    -80.3341446 -0.326552E-07  0.105E-03    2.04      15.4  T
   4    -80.3341446 -0.189749E-08  0.266E-04    2.04      60.9  T
   5    -80.3341446 -0.379046E-09  0.470E-05    2.04     344.9  T
   6    -80.3341446 -0.548397E-10  0.131E-05    2.04    1235.8  T
     SCC iter.                  ...        0 min,  0.013 sec
     gradient                   ...        0 min,  0.037 sec
 * total energy  :   -79.6164566 Eh     change       -0.5863070E-04 Eh
   gradient norm :     0.0038798 Eh/α   predicted    -0.3245796E-04 ( -44.64%)
   displ. norm   :     0.0889559 α      lambda       -0.3010325E-04
   maximum displ.:     0.0712161 α      in ANC's #1, #2, #5, ...

........................................................................
.............................. CYCLE   30 ..............................
........................................................................
   1    -80.3348833 -0.803349E+02  0.240E-03    2.04       0.0  T
   2    -80.3348835 -0.252320E-06  0.116E-03    2.04      13.9  T
   3    -80.3348835 -0.171703E-07  0.631E-04    2.04      25.7  T
   4    -80.3348835 -0.473193E-09  0.270E-04    2.04      60.2  T
   5    -80.3348835 -0.494410E-09  0.425E-05    2.04     381.9  T
   6    -80.3348835 -0.717932E-10  0.967E-06    2.04    1678.3  T
     SCC iter.                  ...        0 min,  0.014 sec
     gradient                   ...        0 min,  0.037 sec
 * total energy  :   -79.6164815 Eh     change       -0.2491044E-04 Eh
   gradient norm :     0.0025777 Eh/α   predicted    -0.1517794E-04 ( -39.07%)
   displ. norm   :     0.1358944 α      lambda       -0.4434031E-04
   maximum displ.:     0.1089742 α      in ANC's #1, #2, #4, ...

........................................................................
.............................. CYCLE   31 ..............................
........................................................................
   1    -80.3359934 -0.803360E+02  0.229E-03    2.04       0.0  T
   2    -80.3359935 -0.123715E-06  0.111E-03    2.04      14.6  T
   3    -80.3359935 -0.118253E-07  0.619E-04    2.04      26.2  T
   4    -80.3359935 -0.659057E-09  0.120E-04    2.04     135.1  T
   5    -80.3359935 -0.144823E-09  0.335E-05    2.04     483.8  T
     SCC iter.                  ...        0 min,  0.011 sec
     gradient                   ...        0 min,  0.037 sec
 * total energy  :   -79.6165188 Eh     change       -0.3729803E-04 Eh
   gradient norm :     0.0019060 Eh/α   predicted    -0.2258070E-04 ( -39.46%)
   displ. norm   :     0.2756407 α      lambda       -0.4832181E-04
   maximum displ.:     0.2171019 α      in ANC's #1, #2, #4, ...

........................................................................
.............................. CYCLE   32 ..............................
........................................................................
   1    -80.3361545 -0.803362E+02  0.243E-03    2.04       0.0  T
   2    -80.3361547 -0.184387E-06  0.132E-03    2.04      12.3  T
   3    -80.3361548 -0.229853E-07  0.627E-04    2.04      25.9  T
   4    -80.3361548 -0.557932E-09  0.189E-04    2.04      85.7  T
   5    -80.3361548 -0.290697E-09  0.474E-05    2.04     342.3  T
     SCC iter.                  ...        0 min,  0.011 sec
     gradient                   ...        0 min,  0.037 sec
 * total energy  :   -79.6165743 Eh     change       -0.5547132E-04 Eh
   gradient norm :     0.0018220 Eh/α   predicted    -0.2498206E-04 ( -54.96%)
   displ. norm   :     0.1998932 α      lambda       -0.2769808E-04
   maximum displ.:     0.1626502 α      in ANC's #1, #2, #4, ...

........................................................................
.............................. CYCLE   33 ..............................
........................................................................
   1    -80.3360344 -0.803360E+02  0.216E-03    2.04       0.0  T
   2    -80.3360346 -0.151776E-06  0.873E-04    2.04      18.6  T
   3    -80.3360346 -0.397617E-08  0.478E-04    2.04      33.9  T
   4    -80.3360346 -0.914611E-10  0.153E-04    2.04     105.8  T
   5    -80.3360346 -0.293824E-09  0.283E-05    2.04     572.7  T
     SCC iter.                  ...        0 min,  0.016 sec
     gradient                   ...        0 min,  0.069 sec
 * total energy  :   -79.6166092 Eh     change       -0.3486686E-04 Eh
   gradient norm :     0.0018399 Eh/α   predicted    -0.1409895E-04 ( -59.56%)
   displ. norm   :     0.1723938 α      lambda       -0.2444610E-04
   maximum displ.:     0.1430848 α      in ANC's #1, #4, #2, ...

........................................................................
.............................. CYCLE   34 ..............................
........................................................................
   1    -80.3358591 -0.803359E+02  0.191E-03    2.04       0.0  T
   2    -80.3358592 -0.106710E-06  0.845E-04    2.04      19.2  T
   3    -80.3358592 -0.138716E-07  0.436E-04    2.04      37.2  T
   4    -80.3358592 -0.789242E-09  0.131E-04    2.04     124.2  T
   5    -80.3358592 -0.147551E-09  0.339E-05    2.04     478.9  T
     SCC iter.                  ...        0 min,  0.017 sec
     gradient                   ...        0 min,  0.070 sec
 * total energy  :   -79.6166420 Eh     change       -0.3283771E-04 Eh
   gradient norm :     0.0013563 Eh/α   predicted    -0.1238595E-04 ( -62.28%)
   displ. norm   :     0.1938452 α      lambda       -0.2876645E-04
   maximum displ.:     0.1648235 α      in ANC's #1, #4, #2, ...

........................................................................
.............................. CYCLE   35 ..............................
........................................................................
   1    -80.3361455 -0.803361E+02  0.239E-03    2.04       0.0  T
   2    -80.3361457 -0.133742E-06  0.108E-03    2.04      15.1  T
   3    -80.3361457 -0.197266E-07  0.563E-04    2.04      28.8  T
   4    -80.3361457 -0.104052E-08  0.153E-04    2.04     106.1  T
   5    -80.3361457 -0.323638E-09  0.367E-05    2.04     442.0  T
     SCC iter.                  ...        0 min,  0.017 sec
     gradient                   ...        0 min,  0.092 sec
 * total energy  :   -79.6166798 Eh     change       -0.3783538E-04 Eh
   gradient norm :     0.0009745 Eh/α   predicted    -0.1462483E-04 ( -61.35%)
   displ. norm   :     0.2228019 α      lambda       -0.2962069E-04
   maximum displ.:     0.1897587 α      in ANC's #1, #4, #7, ...

........................................................................
.............................. CYCLE   36 ..............................
........................................................................
   1    -80.3355704 -0.803356E+02  0.227E-03    2.04       0.0  T
   2    -80.3355705 -0.756534E-07  0.105E-03    2.04      15.4  T
   3    -80.3355705 -0.951236E-08  0.579E-04    2.04      28.0  T
   4    -80.3355705 -0.147909E-08  0.125E-04    2.04     129.8  T
   5    -80.3355705 -0.284942E-09  0.368E-05    2.04     440.8  T
     SCC iter.                  ...        0 min,  0.016 sec
     gradient                   ...        0 min,  0.091 sec
 * total energy  :   -79.6167184 Eh     change       -0.3853110E-04 Eh
   gradient norm :     0.0015391 Eh/α   predicted    -0.1514155E-04 ( -60.70%)
   displ. norm   :     0.2071046 α      lambda       -0.2852092E-04
   maximum displ.:     0.1797690 α      in ANC's #1, #7, #4, ...

........................................................................
.............................. CYCLE   37 ..............................
........................................................................
   1    -80.3361065 -0.803361E+02  0.208E-03    2.04       0.0  T
   2    -80.3361067 -0.123681E-06  0.995E-04    2.04      16.3  T
   3    -80.3361067 -0.107891E-07  0.526E-04    2.04      30.8  T
   4    -80.3361067 -0.939906E-09  0.160E-04    2.04     101.6  T
   5    -80.3361067 -0.279186E-09  0.369E-05    2.04     439.0  T
     SCC iter.                  ...        0 min,  0.012 sec
     gradient                   ...        0 min,  0.037 sec
 * total energy  :   -79.6167545 Eh     change       -0.3614069E-04 Eh
   gradient norm :     0.0016341 Eh/α   predicted    -0.1453297E-04 ( -59.79%)
   displ. norm   :     0.2515399 α      lambda       -0.3110354E-04
   maximum displ.:     0.2192884 α      in ANC's #1, #7, #5, ...

........................................................................
.............................. CYCLE   38 ..............................
........................................................................
   1    -80.3360394 -0.803360E+02  0.185E-03    2.04       0.0  T
   2    -80.3360395 -0.979047E-07  0.868E-04    2.04      18.7  T
   3    -80.3360395 -0.107618E-07  0.442E-04    2.04      36.7  T
   4    -80.3360395 -0.369468E-09  0.126E-04    2.04     128.7  T
   5    -80.3360395 -0.241030E-09  0.296E-05    2.04     547.3  T
     SCC iter.                  ...        0 min,  0.012 sec
     gradient                   ...        0 min,  0.038 sec
 * total energy  :   -79.6167946 Eh     change       -0.4012102E-04 Eh
   gradient norm :     0.0014165 Eh/α   predicted    -0.1599313E-04 ( -60.14%)
   displ. norm   :     0.2080164 α      lambda       -0.2477221E-04
   maximum displ.:     0.1818382 α      in ANC's #1, #7, #5, ...

........................................................................
.............................. CYCLE   39 ..............................
........................................................................
   1    -80.3360588 -0.803361E+02  0.152E-03    2.04       0.0  T
   2    -80.3360588 -0.589097E-07  0.710E-04    2.04      22.8  T
   3    -80.3360588 -0.583282E-08  0.399E-04    2.04      40.6  T
   4    -80.3360588 -0.525063E-09  0.105E-04    2.04     155.0  T
   5    -80.3360588 -0.160369E-09  0.245E-05    2.04     663.3  T
     SCC iter.                  ...        0 min,  0.016 sec
     gradient                   ...        0 min,  0.067 sec
 * total energy  :   -79.6168268 Eh     change       -0.3217562E-04 Eh
   gradient norm :     0.0011132 Eh/α   predicted    -0.1262491E-04 ( -60.76%)
   displ. norm   :     0.2010417 α      lambda       -0.2429469E-04
   maximum displ.:     0.1787909 α      in ANC's #1, #3, #7, ...

........................................................................
.............................. CYCLE   40 ..............................
........................................................................
   1    -80.3368257 -0.803368E+02  0.262E-03    2.04       0.0  T
   2    -80.3368258 -0.828024E-07  0.135E-03    2.04      12.0  T
   3    -80.3368258 -0.518891E-08  0.692E-04    2.04      23.5  T
   4    -80.3368258 -0.193762E-08  0.152E-04    2.04     106.7  T
   5    -80.3368258 -0.312312E-09  0.302E-05    2.04     536.8  T
     SCC iter.                  ...        0 min,  0.016 sec
     gradient                   ...        0 min,  0.061 sec
 * total energy  :   -79.6168535 Eh     change       -0.2673181E-04 Eh
   gradient norm :     0.0018914 Eh/α   predicted    -0.1237031E-04 ( -53.72%)
   displ. norm   :     0.2080620 α      lambda       -0.2347009E-04
   maximum displ.:     0.1828219 α      in ANC's #1, #3, #8, ...

........................................................................
.............................. CYCLE   41 ..............................
........................................................................
   1    -80.3364020 -0.803364E+02  0.319E-03    2.04       0.0  T
   2    -80.3364021 -0.105627E-06  0.173E-03    2.04       9.4  T
   3    -80.3364021 -0.663633E-08  0.896E-04    2.04      18.1  T
   4    -80.3364021 -0.476902E-08  0.129E-04    2.04     125.4  T
   5    -80.3364021 -0.351974E-09  0.349E-05    2.04     465.4  T
     SCC iter.                  ...        0 min,  0.015 sec
     gradient                   ...        0 min,  0.037 sec
 * total energy  :   -79.6168758 Eh     change       -0.2222766E-04 Eh
   gradient norm :     0.0018941 Eh/α   predicted    -0.1196286E-04 ( -46.18%)
   displ. norm   :     0.0970310 α      lambda       -0.1267927E-04
   maximum displ.:     0.0869450 α      in ANC's #1, #5, #3, ...

........................................................................
.............................. CYCLE   42 ..............................
........................................................................
   1    -80.3363064 -0.803363E+02  0.233E-03    2.04       0.0  T
   2    -80.3363066 -0.239156E-06  0.112E-03    2.04      14.5  T
   3    -80.3363066 -0.273604E-07  0.609E-04    2.04      26.6  T
   4    -80.3363066 -0.149163E-08  0.235E-04    2.04      68.9  T
   5    -80.3363066 -0.280735E-09  0.317E-05    2.04     511.0  T
   6    -80.3363066 -0.203357E-10  0.962E-06    2.04    1685.7  T
     SCC iter.                  ...        0 min,  0.014 sec
     gradient                   ...        0 min,  0.038 sec
 * total energy  :   -79.6168897 Eh     change       -0.1390310E-04 Eh
   gradient norm :     0.0014590 Eh/α   predicted    -0.6370703E-05 ( -54.18%)
   displ. norm   :     0.1031759 α      lambda       -0.1191434E-04
   maximum displ.:     0.0921780 α      in ANC's #1, #3, #5, ...
 * RMSD in coord.:     0.5754855 α      energy gain  -0.8374008E-03 Eh

generating ANC from model Hessian ...
Using Lindh-Hessian (1995)
 Shifting diagonal of input Hessian by   9.771079916217852E-003
 Lowest  eigenvalues of input Hessian
    0.000000    0.000000    0.000000    0.000000    0.000000    0.000000
    0.010000    0.010302    0.010444    0.011425    0.011908    0.012531
    0.013218    0.014116    0.015681    0.016735    0.017638    0.018779
 Highest eigenvalues
    2.027731    2.151985    2.178798    2.295413    2.378947    2.409041
 

........................................................................
.............................. CYCLE   43 ..............................
........................................................................
   1    -80.3365897 -0.803366E+02  0.147E-03    2.04       0.0  T
   2    -80.3365897 -0.315116E-07  0.730E-04    2.04      22.2  T
   3    -80.3365897 -0.176486E-08  0.392E-04    2.04      41.4  T
   4    -80.3365897 -0.384119E-09  0.735E-05    2.04     220.7  T
   5    -80.3365897 -0.833040E-10  0.135E-05    2.04    1203.8  T
     SCC iter.                  ...        0 min,  0.012 sec
     gradient                   ...        0 min,  0.041 sec
 * total energy  :   -79.6169048 Eh     change       -0.1507348E-04 Eh
   gradient norm :     0.0012012 Eh/α   predicted     0.0000000E+00 (-100.00%)
   displ. norm   :     0.0260999 α      lambda       -0.6106965E-05
   maximum displ.:     0.0198348 α      in ANC's #1, #7, #15, ...

........................................................................
.............................. CYCLE   44 ..............................
........................................................................
   1    -80.3362339 -0.803362E+02  0.128E-03    2.04       0.0  T
   2    -80.3362340 -0.537840E-07  0.557E-04    2.04      29.1  T
   3    -80.3362340 -0.307713E-08  0.318E-04    2.04      51.1  T
   4    -80.3362340 -0.963212E-10  0.792E-05    2.04     204.9  T
   5    -80.3362340 -0.118135E-09  0.156E-05    2.04    1040.3  T
     SCC iter.                  ...        0 min,  0.039 sec
     gradient                   ...        0 min,  0.148 sec
 * total energy  :   -79.6169118 Eh     change       -0.7035428E-05 Eh
   gradient norm :     0.0005325 Eh/α   predicted    -0.3080469E-05 ( -56.21%)
   displ. norm   :     0.0655681 α      lambda       -0.1010676E-04
   maximum displ.:     0.0455634 α      in ANC's #1, #7, #8, ...

........................................................................
.............................. CYCLE   45 ..............................
........................................................................
   1    -80.3359177 -0.803359E+02  0.173E-03    2.04       0.0  T
   2    -80.3359178 -0.101969E-06  0.691E-04    2.04      23.5  T
   3    -80.3359178 -0.735771E-08  0.388E-04    2.04      41.9  T
   4    -80.3359178 -0.212665E-09  0.125E-04    2.04     129.9  T
   5    -80.3359178 -0.194007E-09  0.247E-05    2.04     656.6  T
     SCC iter.                  ...        0 min,  0.017 sec
     gradient                   ...        0 min,  0.067 sec
 * total energy  :   -79.6169236 Eh     change       -0.1181136E-04 Eh
   gradient norm :     0.0013312 Eh/α   predicted    -0.5064905E-05 ( -57.12%)
   displ. norm   :     0.1131461 α      lambda       -0.1395750E-04
   maximum displ.:     0.0762776 α      in ANC's #1, #7, #8, ...

........................................................................
.............................. CYCLE   46 ..............................
........................................................................
   1    -80.3358772 -0.803359E+02  0.159E-03    2.04       0.0  T
   2    -80.3358773 -0.602185E-07  0.661E-04    2.04      24.6  T
   3    -80.3358773 -0.568998E-08  0.365E-04    2.04      44.5  T
   4    -80.3358773 -0.266269E-09  0.103E-04    2.04     157.2  T
   5    -80.3358773 -0.847820E-10  0.198E-05    2.04     818.3  T
     SCC iter.                  ...        0 min,  0.017 sec
     gradient                   ...        0 min,  0.043 sec
 * total energy  :   -79.6169388 Eh     change       -0.1520577E-04 Eh
   gradient norm :     0.0017923 Eh/α   predicted    -0.7018999E-05 ( -53.84%)
   displ. norm   :     0.1179194 α      lambda       -0.1201674E-04
   maximum displ.:     0.0800006 α      in ANC's #1, #7, #8, ...

........................................................................
.............................. CYCLE   47 ..............................
........................................................................
   1    -80.3359690 -0.803360E+02  0.102E-03    2.03       0.0  T
   2    -80.3359690 -0.238692E-07  0.436E-04    2.03      37.2  T
   3    -80.3359690 -0.123846E-08  0.238E-04    2.03      68.3  T
   4    -80.3359690 -0.897131E-10  0.741E-05    2.03     219.0  T
   5    -80.3359690 -0.657536E-10  0.135E-05    2.03    1200.7  T
     SCC iter.                  ...        0 min,  0.012 sec
     gradient                   ...        0 min,  0.038 sec
 * total energy  :   -79.6169526 Eh     change       -0.1381455E-04 Eh
   gradient norm :     0.0015939 Eh/α   predicted    -0.6047055E-05 ( -56.23%)
   displ. norm   :     0.1249701 α      lambda       -0.1192799E-04
   maximum displ.:     0.0859321 α      in ANC's #1, #8, #3, ...

........................................................................
.............................. CYCLE   48 ..............................
........................................................................
   1    -80.3362022 -0.803362E+02  0.125E-03    2.03       0.0  T
   2    -80.3362023 -0.649396E-07  0.455E-04    2.03      35.7  T
   3    -80.3362023 -0.258494E-08  0.232E-04    2.03      69.8  T
   4    -80.3362023 -0.622720E-10  0.853E-05    2.03     190.2  T
   5    -80.3362023 -0.635225E-10  0.182E-05    2.03     890.5  T
     SCC iter.                  ...        0 min,  0.012 sec
     gradient                   ...        0 min,  0.038 sec
 * total energy  :   -79.6169667 Eh     change       -0.1412898E-04 Eh
   gradient norm :     0.0010726 Eh/α   predicted    -0.6005526E-05 ( -57.49%)
   displ. norm   :     0.1395146 α      lambda       -0.1267967E-04
   maximum displ.:     0.0958388 α      in ANC's #1, #3, #8, ...

........................................................................
.............................. CYCLE   49 ..............................
........................................................................
   1    -80.3364893 -0.803365E+02  0.164E-03    2.03       0.0  T
   2    -80.3364894 -0.951031E-07  0.677E-04    2.03      24.0  T
   3    -80.3364894 -0.577276E-08  0.343E-04    2.03      47.3  T
   4    -80.3364894 -0.137021E-09  0.115E-04    2.03     141.0  T
   5    -80.3364894 -0.945022E-10  0.218E-05    2.03     743.7  T
     SCC iter.                  ...        0 min,  0.012 sec
     gradient                   ...        0 min,  0.038 sec
 * total energy  :   -79.6169810 Eh     change       -0.1424439E-04 Eh
   gradient norm :     0.0008444 Eh/α   predicted    -0.6397729E-05 ( -55.09%)
   displ. norm   :     0.1381521 α      lambda       -0.1124820E-04
   maximum displ.:     0.0942534 α      in ANC's #1, #3, #8, ...

........................................................................
.............................. CYCLE   50 ..............................
........................................................................
   1    -80.3365237 -0.803365E+02  0.153E-03    2.03       0.0  T
   2    -80.3365237 -0.579177E-07  0.682E-04    2.03      23.8  T
   3    -80.3365237 -0.406806E-08  0.370E-04    2.03      43.9  T
   4    -80.3365237 -0.283180E-09  0.109E-04    2.03     148.8  T
   5    -80.3365237 -0.117694E-09  0.233E-05    2.03     695.3  T
     SCC iter.                  ...        0 min,  0.012 sec
     gradient                   ...        0 min,  0.040 sec
 * total energy  :   -79.6169942 Eh     change       -0.1324336E-04 Eh
   gradient norm :     0.0010220 Eh/α   predicted    -0.5676115E-05 ( -57.14%)
   displ. norm   :     0.1460827 α      lambda       -0.1089256E-04
   maximum displ.:     0.0980729 α      in ANC's #1, #3, #8, ...

........................................................................
.............................. CYCLE   51 ..............................
........................................................................
   1    -80.3364639 -0.803365E+02  0.141E-03    2.03       0.0  T
   2    -80.3364640 -0.301540E-07  0.667E-04    2.03      24.3  T
   3    -80.3364640 -0.141509E-08  0.362E-04    2.03      44.8  T
   4    -80.3364640 -0.198170E-09  0.757E-05    2.03     214.4  T
   5    -80.3364640 -0.873115E-10  0.168E-05    2.03     964.0  T
     SCC iter.                  ...        0 min,  0.011 sec
     gradient                   ...        0 min,  0.039 sec
 * total energy  :   -79.6170076 Eh     change       -0.1336146E-04 Eh
   gradient norm :     0.0010518 Eh/α   predicted    -0.5500193E-05 ( -58.84%)
   displ. norm   :     0.1366027 α      lambda       -0.1057124E-04
   maximum displ.:     0.0898688 α      in ANC's #1, #3, #8, ...

........................................................................
.............................. CYCLE   52 ..............................
........................................................................
   1    -80.3365002 -0.803365E+02  0.128E-03    2.03       0.0  T
   2    -80.3365002 -0.303787E-07  0.571E-04    2.03      28.4  T
   3    -80.3365002 -0.126327E-08  0.320E-04    2.03      50.7  T
   4    -80.3365002 -0.134477E-09  0.644E-05    2.03     251.7  T
   5    -80.3365002 -0.931237E-10  0.165E-05    2.03     982.5  T
     SCC iter.                  ...        0 min,  0.015 sec
     gradient                   ...        0 min,  0.061 sec
 * total energy  :   -79.6170209 Eh     change       -0.1331976E-04 Eh
   gradient norm :     0.0009965 Eh/α   predicted    -0.5333296E-05 ( -59.96%)
   displ. norm   :     0.1555017 α      lambda       -0.1186029E-04
   maximum displ.:     0.1002091 α      in ANC's #1, #3, #2, ...

........................................................................
.............................. CYCLE   53 ..............................
........................................................................
   1    -80.3362977 -0.803363E+02  0.148E-03    2.03       0.0  T
   2    -80.3362977 -0.656956E-07  0.604E-04    2.03      26.9  T
   3    -80.3362977 -0.510366E-08  0.300E-04    2.03      54.0  T
   4    -80.3362977 -0.748770E-10  0.897E-05    2.03     180.9  T
   5    -80.3362977 -0.888321E-10  0.219E-05    2.03     741.1  T
     SCC iter.                  ...        0 min,  0.015 sec
     gradient                   ...        0 min,  0.068 sec
 * total energy  :   -79.6170360 Eh     change       -0.1511134E-04 Eh
   gradient norm :     0.0008169 Eh/α   predicted    -0.5995855E-05 ( -60.32%)
   displ. norm   :     0.1785315 α      lambda       -0.1341194E-04
   maximum displ.:     0.1125161 α      in ANC's #1, #3, #7, ...

........................................................................
.............................. CYCLE   54 ..............................
........................................................................
   1    -80.3362931 -0.803363E+02  0.118E-03    2.03       0.0  T
   2    -80.3362931 -0.322819E-07  0.583E-04    2.03      27.8  T
   3    -80.3362931 -0.241839E-08  0.310E-04    2.03      52.3  T
   4    -80.3362931 -0.869989E-10  0.724E-05    2.03     224.2  T
   5    -80.3362931 -0.542570E-10  0.162E-05    2.03    1002.7  T
     SCC iter.                  ...        0 min,  0.015 sec
     gradient                   ...        0 min,  0.068 sec
 * total energy  :   -79.6170528 Eh     change       -0.1682098E-04 Eh
   gradient norm :     0.0009871 Eh/α   predicted    -0.6804425E-05 ( -59.55%)
   displ. norm   :     0.2160066 α      lambda       -0.1521327E-04
   maximum displ.:     0.1359022 α      in ANC's #1, #3, #4, ...

........................................................................
.............................. CYCLE   55 ..............................
........................................................................
   1    -80.3360905 -0.803361E+02  0.169E-03    2.03       0.0  T
   2    -80.3360906 -0.573276E-07  0.751E-04    2.03      21.6  T
   3    -80.3360906 -0.622657E-08  0.402E-04    2.03      40.4  T
   4    -80.3360906 -0.190397E-09  0.765E-05    2.03     211.9  T
   5    -80.3360906 -0.131593E-09  0.241E-05    2.03     674.5  T
     SCC iter.                  ...        0 min,  0.014 sec
     gradient                   ...        0 min,  0.041 sec
 * total energy  :   -79.6170711 Eh     change       -0.1826497E-04 Eh
   gradient norm :     0.0012617 Eh/α   predicted    -0.7768867E-05 ( -57.47%)
   displ. norm   :     0.2562506 α      lambda       -0.1617097E-04
   maximum displ.:     0.1598487 α      in ANC's #1, #3, #4, ...

........................................................................
.............................. CYCLE   56 ..............................
........................................................................
   1    -80.3360520 -0.803361E+02  0.190E-03    2.03       0.0  T
   2    -80.3360520 -0.493660E-07  0.831E-04    2.03      19.5  T
   3    -80.3360520 -0.427221E-08  0.478E-04    2.03      33.9  T
   4    -80.3360520 -0.702514E-09  0.963E-05    2.03     168.4  T
   5    -80.3360520 -0.264833E-09  0.275E-05    2.03     590.5  T
     SCC iter.                  ...        0 min,  0.016 sec
     gradient                   ...        0 min,  0.067 sec
 * total energy  :   -79.6170884 Eh     change       -0.1725451E-04 Eh
   gradient norm :     0.0013310 Eh/α   predicted    -0.8325130E-05 ( -51.75%)
   displ. norm   :     0.1785961 α      lambda       -0.1173050E-04
   maximum displ.:     0.1125208 α      in ANC's #1, #3, #4, ...

........................................................................
.............................. CYCLE   57 ..............................
........................................................................
   1    -80.3362609 -0.803363E+02  0.175E-03    2.03       0.0  T
   2    -80.3362610 -0.511461E-07  0.754E-04    2.03      21.5  T
   3    -80.3362610 -0.741001E-08  0.443E-04    2.03      36.6  T
   4    -80.3362610 -0.972733E-09  0.935E-05    2.03     173.4  T
   5    -80.3362610 -0.136382E-09  0.218E-05    2.03     744.2  T
     SCC iter.                  ...        0 min,  0.016 sec
     gradient                   ...        0 min,  0.106 sec
 * total energy  :   -79.6171021 Eh     change       -0.1371764E-04 Eh
   gradient norm :     0.0011639 Eh/α   predicted    -0.5951855E-05 ( -56.61%)
   displ. norm   :     0.1126829 α      lambda       -0.1180006E-04
   maximum displ.:     0.0660374 α      in ANC's #1, #4, #3, ...

........................................................................
.............................. CYCLE   58 ..............................
........................................................................
   1    -80.3367548 -0.803368E+02  0.197E-03    2.03       0.0  T
   2    -80.3367549 -0.988151E-07  0.738E-04    2.03      22.0  T
   3    -80.3367549 -0.995924E-08  0.347E-04    2.03      46.7  T
   4    -80.3367549 -0.211827E-09  0.117E-04    2.03     138.9  T
   5    -80.3367549 -0.144141E-09  0.250E-05    2.03     649.9  T
     SCC iter.                  ...        0 min,  0.015 sec
     gradient                   ...        0 min,  0.069 sec
 * total energy  :   -79.6171168 Eh     change       -0.1473848E-04 Eh
   gradient norm :     0.0007515 Eh/α   predicted    -0.5934047E-05 ( -59.74%)
   displ. norm   :     0.1726342 α      lambda       -0.1567862E-04
   maximum displ.:     0.1023958 α      in ANC's #1, #4, #3, ...

........................................................................
.............................. CYCLE   59 ..............................
........................................................................
   1    -80.3363588 -0.803364E+02  0.195E-03    2.03       0.0  T
   2    -80.3363589 -0.838225E-07  0.902E-04    2.03      18.0  T
   3    -80.3363589 -0.113930E-07  0.475E-04    2.03      34.1  T
   4    -80.3363589 -0.338233E-09  0.114E-04    2.03     142.1  T
   5    -80.3363589 -0.225498E-09  0.267E-05    2.03     606.7  T
     SCC iter.                  ...        0 min,  0.011 sec
     gradient                   ...        0 min,  0.036 sec
 * total energy  :   -79.6171356 Eh     change       -0.1876880E-04 Eh
   gradient norm :     0.0011890 Eh/α   predicted    -0.7944711E-05 ( -57.67%)
   displ. norm   :     0.2037834 α      lambda       -0.1665559E-04
   maximum displ.:     0.1232543 α      in ANC's #4, #1, #3, ...

........................................................................
.............................. CYCLE   60 ..............................
........................................................................
   1    -80.3365848 -0.803366E+02  0.341E-03    2.04       0.0  T
   2    -80.3365850 -0.251645E-06  0.137E-03    2.03      11.8  T
   3    -80.3365851 -0.325339E-07  0.718E-04    2.04      22.6  T
   4    -80.3365851 -0.673666E-09  0.115E-04    2.04     140.5  T
   5    -80.3365851 -0.187313E-09  0.215E-05    2.04     755.7  T
     SCC iter.                  ...        0 min,  0.011 sec
     gradient                   ...        0 min,  0.047 sec
 * total energy  :   -79.6171512 Eh     change       -0.1559265E-04 Eh
   gradient norm :     0.0019863 Eh/α   predicted    -0.8485044E-05 ( -45.58%)
   displ. norm   :     0.1216908 α      lambda       -0.9055019E-05
   maximum displ.:     0.0724823 α      in ANC's #1, #4, #5, ...

........................................................................
.............................. CYCLE   61 ..............................
........................................................................
   1    -80.3364290 -0.803364E+02  0.197E-03    2.03       0.0  T
   2    -80.3364291 -0.685460E-07  0.889E-04    2.04      18.3  T
   3    -80.3364291 -0.101163E-07  0.510E-04    2.04      31.8  T
   4    -80.3364291 -0.607272E-09  0.722E-05    2.04     224.7  T
   5    -80.3364291 -0.129248E-09  0.201E-05    2.04     806.4  T
     SCC iter.                  ...        0 min,  0.012 sec
     gradient                   ...        0 min,  0.036 sec
 * total energy  :   -79.6171611 Eh     change       -0.9912517E-05 Eh
   gradient norm :     0.0012015 Eh/α   predicted    -0.4558543E-05 ( -54.01%)
   displ. norm   :     0.1107089 α      lambda       -0.1204115E-04
   maximum displ.:     0.0557313 α      in ANC's #5, #1, #4, ...

........................................................................
.............................. CYCLE   62 ..............................
........................................................................
   1    -80.3369004 -0.803369E+02  0.229E-03    2.04       0.0  T
   2    -80.3369005 -0.122114E-06  0.981E-04    2.04      16.5  T
   3    -80.3369006 -0.212425E-07  0.528E-04    2.04      30.8  T
   4    -80.3369006 -0.125651E-08  0.135E-04    2.04     120.0  T
   5    -80.3369006 -0.145931E-09  0.234E-05    2.04     693.2  T
     SCC iter.                  ...        0 min,  0.011 sec
     gradient                   ...        0 min,  0.062 sec
 * total energy  :   -79.6171756 Eh     change       -0.1452218E-04 Eh
   gradient norm :     0.0008562 Eh/α   predicted    -0.6055374E-05 ( -58.30%)
   displ. norm   :     0.2104052 α      lambda       -0.1820552E-04
   maximum displ.:     0.1099992 α      in ANC's #5, #1, #2, ...

........................................................................
.............................. CYCLE   63 ..............................
........................................................................
   1    -80.3362758 -0.803363E+02  0.371E-03    2.04       0.0  T
   2    -80.3362761 -0.351248E-06  0.159E-03    2.04      10.2  T
   3    -80.3362762 -0.580273E-07  0.795E-04    2.04      20.4  T
   4    -80.3362762 -0.258134E-08  0.242E-04    2.04      66.9  T
   5    -80.3362762 -0.399282E-09  0.579E-05    2.04     280.1  T
   6    -80.3362762 -0.764970E-10  0.123E-05    2.04    1313.8  T
     SCC iter.                  ...        0 min,  0.013 sec
     gradient                   ...        0 min,  0.037 sec
 * total energy  :   -79.6171926 Eh     change       -0.1701244E-04 Eh
   gradient norm :     0.0013739 Eh/α   predicted    -0.9284338E-05 ( -45.43%)
   displ. norm   :     0.0680885 α      lambda       -0.6468148E-05
   maximum displ.:     0.0337224 α      in ANC's #5, #1, #2, ...

........................................................................
.............................. CYCLE   64 ..............................
........................................................................
   1    -80.3364247 -0.803364E+02  0.111E-03    2.04       0.0  T
   2    -80.3364248 -0.488021E-07  0.485E-04    2.04      33.5  T
   3    -80.3364248 -0.228096E-08  0.261E-04    2.04      62.1  T
   4    -80.3364248 -0.556213E-10  0.123E-04    2.04     131.9  T
   5    -80.3364248 -0.149498E-09  0.136E-05    2.04    1196.2  T
     SCC iter.                  ...        0 min,  0.011 sec
     gradient                   ...        0 min,  0.036 sec
 * total energy  :   -79.6172004 Eh     change       -0.7814183E-05 Eh
   gradient norm :     0.0011776 Eh/α   predicted    -0.3244727E-05 ( -58.48%)
   displ. norm   :     0.1102548 α      lambda       -0.1151565E-04
   maximum displ.:     0.0523421 α      in ANC's #2, #1, #7, ...

........................................................................
.............................. CYCLE   65 ..............................
........................................................................
   1    -80.3365781 -0.803366E+02  0.112E-03    2.04       0.0  T
   2    -80.3365781 -0.282088E-07  0.533E-04    2.04      30.4  T
   3    -80.3365781 -0.467162E-08  0.290E-04    2.04      55.9  T
   4    -80.3365781 -0.260059E-09  0.605E-05    2.04     268.0  T
   5    -80.3365781 -0.437126E-10  0.159E-05    2.04    1017.3  T
     SCC iter.                  ...        0 min,  0.011 sec
     gradient                   ...        0 min,  0.036 sec
 * total energy  :   -79.6172138 Eh     change       -0.1337330E-04 Eh
   gradient norm :     0.0010131 Eh/α   predicted    -0.5791894E-05 ( -56.69%)
   displ. norm   :     0.1236611 α      lambda       -0.1046007E-04
   maximum displ.:     0.0643764 α      in ANC's #1, #2, #7, ...

........................................................................
.............................. CYCLE   66 ..............................
........................................................................
   1    -80.3363915 -0.803364E+02  0.184E-03    2.04       0.0  T
   2    -80.3363915 -0.731083E-07  0.824E-04    2.04      19.7  T
   3    -80.3363916 -0.151276E-07  0.444E-04    2.04      36.5  T
   4    -80.3363916 -0.849980E-09  0.924E-05    2.04     175.6  T
   5    -80.3363916 -0.741096E-10  0.197E-05    2.04     824.0  T
     SCC iter.                  ...        0 min,  0.011 sec
     gradient                   ...        0 min,  0.036 sec
[...]
 N  C  Rav=1.3452 sigma=0.0503  Rmin=1.2964  Rmax=1.4618     8
 N  N  Rav=1.3655 sigma=0.0000  Rmin=1.3655  Rmax=1.3655     1
 O  H  Rav=0.9813 sigma=0.0000  Rmin=0.9813  Rmax=0.9813     1
 O  C  Rav=1.3128 sigma=0.0694  Rmin=1.2163  Rmax=1.4244     8
 
 selected bond angles (degree)
 --------------------
H25-C1-O2=110.52               H26-C1-O2=106.90               H26-C1-H25=110.05              H27-C1-O2=110.35               
H27-C1-H25=109.00              H27-C1-H26=110.01              C3-O2-C1=116.23                O4-C3-O2=121.70                
C5-C3-O2=113.73                C5-C3-O4=124.56                N6-C5-C3=114.40                C23-C5-C3=126.24               
C23-C5-N6=119.36               C7-N6-C5=117.63                C8-C7-N6=115.36                N20-C7-N6=127.58               
N20-C7-C8=117.05               C9-C8-C7=109.44                C10-C8-C7=108.83               C10-C8-C9=110.76               
N11-C8-C7=107.39               N11-C8-C9=109.98               N11-C8-C10=110.36              H28-C9-C8=110.00               
H29-C9-C8=110.75               H29-C9-H28=109.08              H30-C9-C8=108.87               H30-C9-H28=108.90              
H30-C9-H29=109.23              H31-C10-C8=110.04              H32-C10-C8=108.78              H32-C10-H31=108.93             
H33-C10-C8=110.79              H33-C10-H31=109.09             H33-C10-H32=109.16             
 
 selected dihedral angles (degree)
 ---------------------------------
C3-O2-C1-H25=300.08           C3-O2-C1-H26=180.33           C3-O2-C1-H27= 60.72           O4-C3-O2-C1=  1.02            
C5-C3-O2-C1=181.40            N6-C5-C3-O2=178.14            N6-C5-C3-O4=358.53            C23-C5-C3-O2=358.71           
C23-C5-C3-O4=179.10           C7-N6-C5-C3=181.33            C7-N6-C5-C23=  0.80           C8-C7-N6-C5=180.13            
N20-C7-N6-C5=359.47           C9-C8-C7-N6=304.87            C9-C8-C7-N20=125.45           C10-C8-C7-N6= 66.03           
C10-C8-C7-N20=246.61          N11-C8-C7-N6=185.51           N11-C8-C7-N20=  6.09          H28-C9-C8-C7=296.14           
H28-C9-C8-C10=176.15          H28-C9-C8-N11= 53.89          H29-C9-C8-C7=175.50           H29-C9-C8-C10= 55.50          
H29-C9-C8-N11=293.25          H30-C9-C8-C7= 55.39           H30-C9-C8-C10=295.40          H30-C9-C8-N11=173.14          
H31-C10-C8-C7= 63.80          H31-C10-C8-C9=184.16          H31-C10-C8-N11=306.19         H32-C10-C8-C7=304.53          
H32-C10-C8-C9= 64.89          H32-C10-C8-N11=186.92         H33-C10-C8-C7=184.52          H33-C10-C8-C9=304.88          
H33-C10-C8-N11= 66.91         
           -------------------------------------------------
          |                Final Singlepoint                |
           -------------------------------------------------

          ...................................................
          :                      SETUP                      :
          :.................................................:
          :  # basis functions                 124          :
          :  # atomic orbitals                 124          :
          :  # shells                           76          :
          :  # electrons                       128          :
          :  # halogen bonds                     0          :
          :  max. iterations                   250          :
          :  Hamiltonian                  GFN1-xTB          :
          :  restarted?                      false          :
          :  GBSA solvation                   true          :
          :  PC potential                    false          :
          :  electronic temp.          300.0000000     K    :
          :  accuracy                    1.0000000          :
          :  -> integral cutoff          0.2500000E+02      :
          :  -> integral neglect         0.1000000E-07      :
          :  -> SCF convergence          0.1000000E-05 Eh   :
          :  -> wf. convergence          0.2000000E-04 e    :
          :  Broyden damping             0.4000000          :
          ...................................................

 iter      E             dE          RMSdq      gap      omega  full diag
   1    -80.3366291 -0.803366E+02  0.691E-06    2.04       0.0  T
   2    -80.3366291 -0.952127E-12  0.285E-06    2.04    5688.1  T
   3    -80.3366291 -0.270006E-12  0.133E-06    2.04   12226.8  T

   *** convergence criteria satisfied after 3 iterations ***

         #    Occupation            Energy/Eh            Energy/eV
      -------------------------------------------------------------
         1        2.0000           -0.8562959             -23.3010
       ...           ...                  ...                  ...
        58        2.0000           -0.4405550             -11.9881
        59        2.0000           -0.4371210             -11.8947
        60        2.0000           -0.4301737             -11.7056
        61        2.0000           -0.4193015             -11.4098
        62        2.0000           -0.4023912             -10.9496
        63        2.0000           -0.3753572             -10.2140
        64        2.0000           -0.3713736             -10.1056 (HOMO)
        65                         -0.2964123              -8.0658 (LUMO)
        66                         -0.2766372              -7.5277
        67                         -0.2493424              -6.7850
        68                         -0.2281775              -6.2090
        69                         -0.1902680              -5.1775
       ...                                ...                  ...
       124                          0.7427723              20.2119
      -------------------------------------------------------------
                  HL-Gap            0.0749612 Eh            2.0398 eV
             Fermi-level           -0.3338930 Eh           -9.0857 eV

 SCC (total)                   0 d,  0 h,  0 min,  0.189 sec
 SCC setup                      ...        0 min,  0.002 sec (  0.795%)
 Dispersion                     ...        0 min,  0.000 sec (  0.149%)
 classical contributions        ...        0 min,  0.000 sec (  0.046%)
 integral evaluation            ...        0 min,  0.043 sec ( 22.837%)
 iterations                     ...        0 min,  0.027 sec ( 14.251%)
 molecular gradient             ...        0 min,  0.116 sec ( 61.511%)
 printout                       ...        0 min,  0.001 sec (  0.389%)

         :::::::::::::::::::::::::::::::::::::::::::::::::::::
         ::                     SUMMARY                     ::
         :::::::::::::::::::::::::::::::::::::::::::::::::::::
         :: total energy             -79.617235354927 Eh    ::
         :: total w/o Gsasa/hb       -79.594973342372 Eh    ::
         :: gradient norm              0.000292628068 Eh/a0 ::
         :: HOMO-LUMO gap              2.039799110714 eV    ::
         ::.................................................::
         :: SCC energy               -80.336629143648 Eh    ::
         :: -> electrostatic           0.442761169642 Eh    ::
         :: -> Gsolv                  -0.104888475385 Eh    ::
         ::    -> Gelec               -0.082626462829 Eh    ::
         ::    -> Gsasa               -0.024243778863 Eh    ::
         ::    -> Ghb                 -0.005642512697 Eh    ::
         ::    -> Gshift               0.007624279005 Eh    ::
         :: repulsion energy           0.741989058700 Eh    ::
         :: dispersion energy         -0.022595269979 Eh    ::
         :: halogen bond corr.         0.000000000000 Eh    ::
         :: add. restraining           0.000000000000 Eh    ::
         :: total charge              -1.000000000000 e     ::
         :::::::::::::::::::::::::::::::::::::::::::::::::::::

           -------------------------------------------------
          |                Property Printout                |
           -------------------------------------------------

    * Orbital Energies and Occupations

         #    Occupation            Energy/Eh            Energy/eV
      -------------------------------------------------------------
         1        2.0000           -0.8562959             -23.3010
       ...           ...                  ...                  ...
        52        2.0000           -0.4742950             -12.9062
        53        2.0000           -0.4714041             -12.8276
        54        2.0000           -0.4689926             -12.7619
        55        2.0000           -0.4530367             -12.3278
        56        2.0000           -0.4500713             -12.2471
        57        2.0000           -0.4491396             -12.2217
        58        2.0000           -0.4405550             -11.9881
        59        2.0000           -0.4371210             -11.8947
        60        2.0000           -0.4301737             -11.7056
        61        2.0000           -0.4193015             -11.4098
        62        2.0000           -0.4023912             -10.9496
        63        2.0000           -0.3753572             -10.2140
        64        2.0000           -0.3713736             -10.1056 (HOMO)
        65                         -0.2964123              -8.0658 (LUMO)
        66                         -0.2766372              -7.5277
        67                         -0.2493424              -6.7850
        68                         -0.2281775              -6.2090
        69                         -0.1902680              -5.1775
        70                         -0.1849200              -5.0319
        71                         -0.1387348              -3.7752
        72                         -0.1274047              -3.4669
        73                         -0.1084891              -2.9521
        74                         -0.1049513              -2.8559
        75                         -0.1023688              -2.7856
       ...                                ...                  ...
       124                          0.7427723              20.2119
      -------------------------------------------------------------
                  HL-Gap            0.0749612 Eh            2.0398 eV
             Fermi-level           -0.3338930 Eh           -9.0857 eV

  Mulliken/CM5 charges         n(s)   n(p)   n(d)
     1C     0.16833  0.04831   0.975  2.857  0.000
     2O    -0.42244 -0.50596   1.687  4.736  0.000
     3C     0.56137  0.62717   0.980  2.459  0.000
     4O    -0.58961 -0.63354   1.730  4.859  0.000
     5C     0.06099  0.13791   1.037  2.902  0.000
     6N    -0.43284 -0.61492   1.544  3.889  0.000
     7C     0.27794  0.43405   1.015  2.708  0.000
     8C     0.15266  0.19491   1.062  2.785  0.000
     9C    -0.09567 -0.23408   1.015  3.081  0.000
    10C    -0.09532 -0.23400   1.015  3.080  0.000
    11N    -0.32426 -0.67295   1.432  3.892  0.000
    12C     0.45911  0.57021   0.973  2.568  0.000
    13O    -0.60094 -0.64407   1.730  4.871  0.000
    14C     0.33057  0.45622   1.014  2.656  0.000
    15N    -0.23592 -0.33953   1.568  3.668  0.000
    16N    -0.27762 -0.38535   1.566  3.711  0.000
    17C     0.38808  0.49684   1.005  2.607  0.000
    18C    -0.11014 -0.24757   1.011  3.099  0.000
    19O    -0.35566 -0.41175   1.696  4.660  0.000
    20N    -0.47995 -0.66171   1.542  3.938  0.000
    21C     0.42754  0.53460   0.985  2.587  0.000
    22O    -0.66595 -0.71049   1.742  4.924  0.000
    23C     0.19660  0.22965   1.037  2.766  0.000
    24O    -0.53514 -0.72364   1.707  4.828  0.000
    25H     0.04149  0.10327   0.959  0.000  0.000
    26H     0.04306  0.10342   0.957  0.000  0.000
    27H     0.04133  0.10300   0.959  0.000  0.000
    28H     0.03176  0.08864   0.968  0.000  0.000
    29H     0.04079  0.09972   0.959  0.000  0.000
    30H     0.03600  0.09421   0.964  0.000  0.000
    31H     0.03272  0.08953   0.967  0.000  0.000
    32H     0.03561  0.09291   0.964  0.000  0.000
    33H     0.04175  0.10072   0.958  0.000  0.000
    34H     0.24961  0.46443   0.750  0.000  0.000
    35H     0.07690  0.13133   0.923  0.000  0.000
    36H     0.06532  0.12122   0.935  0.000  0.000
    37H     0.07641  0.13093   0.924  0.000  0.000
    38H     0.38552  0.56638   0.614  0.000  0.000

Wiberg/Mayer (AO) data.
largest (>0.10) Wiberg bond orders for each atom

 ---------------------------------------------------------------------------
     #   Z sym  total        # sym  WBO       # sym  WBO       # sym  WBO
 ---------------------------------------------------------------------------
     1   6 C    3.888 --    26 H    0.987    27 H    0.980    25 H    0.980
                             2 O    0.913
     2   8 O    2.183 --     3 C    1.082     1 C    0.913     4 O    0.123
     3   6 C    3.837 --     4 O    1.632     2 O    1.082     5 C    1.028
     4   8 O    1.894 --     3 C    1.632     2 O    0.123
     5   6 C    3.963 --    23 C    1.480     6 N    1.198     3 C    1.028
     6   7 N    2.997 --     7 C    1.472     5 C    1.198
     7   6 C    3.958 --     6 N    1.472    20 N    1.359     8 C    0.970
     8   6 C    3.929 --     9 C    0.985    10 C    0.983     7 C    0.970
                            11 N    0.923
     9   6 C    3.993 --    28 H    0.987     8 C    0.985    29 H    0.984
                            30 H    0.984
    10   6 C    3.993 --    31 H    0.986    32 H    0.985    33 H    0.983
                             8 C    0.983
    11   7 N    3.392 --    12 C    1.310     8 C    0.923    34 H    0.870
                            13 O    0.187
    12   6 C    3.925 --    13 O    1.552    11 N    1.310    14 C    0.982
    13   8 O    1.873 --    12 C    1.552    11 N    0.187
    14   6 C    3.867 --    15 N    1.627    19 O    1.050    12 C    0.982
    15   7 N    2.994 --    14 C    1.627    16 N    1.191
    16   7 N    2.979 --    17 C    1.617    15 N    1.191
    17   6 C    3.872 --    16 N    1.617    19 O    1.074    18 C    1.030
    18   6 C    3.988 --    17 C    1.030    36 H    0.983    37 H    0.965
                            35 H    0.964
    19   8 O    2.317 --    17 C    1.074    14 C    1.050
    20   7 N    3.014 --     7 C    1.359    21 C    1.247    22 O    0.125
    21   6 C    3.930 --    22 O    1.473    20 N    1.247    23 C    1.072
    22   8 O    1.810 --    21 C    1.473    20 N    0.125
    23   6 C    3.906 --     5 C    1.480    21 C    1.072    24 O    1.072
    24   8 O    2.048 --    23 C    1.072    38 H    0.814
    25   1 H    1.011 --     1 C    0.980
    26   1 H    1.013 --     1 C    0.987
    27   1 H    1.011 --     1 C    0.980
    28   1 H    1.006 --     9 C    0.987
    29   1 H    1.012 --     9 C    0.984
    30   1 H    1.017 --     9 C    0.984
    31   1 H    1.005 --    10 C    0.986
    32   1 H    1.013 --    10 C    0.985
    33   1 H    1.012 --    10 C    0.983
    34   1 H    0.971 --    11 N    0.870
    35   1 H    0.997 --    18 C    0.964
    36   1 H    1.000 --    18 C    0.983
    37   1 H    0.998 --    18 C    0.965
    38   1 H    0.875 --    24 O    0.814
 ---------------------------------------------------------------------------

Topologies differ in total number of bonds
Writing topology from bond orders to xtbtopo.mol

 dipole moment from electron density (au)
     X       Y       Z   
   0.3391   2.2100   0.0035  total (Debye):    5.683

           -------------------------------------------------
          |                Geometry Summary                 |
           -------------------------------------------------

      molecular mass/u    :      336.2806828
   center of mass at/Å    :        0.1254657       0.0602456      -0.1694979
  moments of inertia/u·Å² :        0.9759081E+03   0.4560063E+04   0.5400182E+04
rotational constants/cm⁻¹ :        0.1727379E-01   0.3696798E-02   0.3121679E-02

 * 34 selected distances

     #   Z          #   Z                                           value/Å
     1   6 C        2   8 O                                       1.4243898
     2   8 O        3   6 C                                       1.3443846
     3   6 C        4   8 O                                       1.2162555
     5   6 C        6   7 N                                       1.3714195
     6   7 N        7   6 C                                       1.3133029
     8   6 C        9   6 C                                       1.5345025
     8   6 C       10   6 C                                       1.5353378 (max)
     8   6 C       11   7 N                                       1.4617643
    11   7 N       12   6 C                                       1.3343972
    12   6 C       13   8 O                                       1.2260664
    14   6 C       15   7 N                                       1.2977995
    16   7 N       17   6 C                                       1.2964001
    17   6 C       18   6 C                                       1.4795984
    14   6 C       19   8 O                                       1.3506463
    17   6 C       19   8 O                                       1.3427408
     7   6 C       20   7 N                                       1.3326594
    20   7 N       21   6 C                                       1.3541933
    21   6 C       22   8 O                                       1.2461949
     5   6 C       23   6 C                                       1.3703827
    23   6 C       24   8 O                                       1.3518594
     1   6 C       25   1 H                                       1.0935097
     1   6 C       26   1 H                                       1.0885213
     1   6 C       27   1 H                                       1.0936302
     9   6 C       28   1 H                                       1.0894556
     9   6 C       29   1 H                                       1.0888407
     9   6 C       30   1 H                                       1.0896569
    10   6 C       31   1 H                                       1.0894284
    10   6 C       32   1 H                                       1.0897291
    10   6 C       33   1 H                                       1.0889264
    11   7 N       34   1 H                                       1.0180356
    18   6 C       35   1 H                                       1.0898947
    18   6 C       36   1 H                                       1.0868693
    18   6 C       37   1 H                                       1.0897980
    24   8 O       38   1 H                                       0.9812725 (min)

 * 6 distinct bonds (by element types)

   Z      Z             #   av. dist./Å        max./Å        min./Å
   1 H    6 C          12     1.0898550     1.0936302     1.0868693
   6 C    6 C           4     1.4799553     1.5353378     1.3703827
   1 H    7 N           1     1.0180356     1.0180356     1.0180356
   6 C    7 N           8     1.3452420     1.4617643     1.2964001
   1 H    8 O           1     0.9812725     0.9812725     0.9812725
   6 C    8 O           8     1.3128172     1.4243898     1.2162555


optimized geometry written to: xtbopt.xyz


           -------------------------------------------------
          | TOTAL ENERGY              -79.617235354927 Eh   |
          | GRADIENT NORM               0.000292628068 Eh/α |
          | HOMO-LUMO GAP               2.039799110714 eV   |
           -------------------------------------------------

------------------------------------------------------------------------
 * finished run on 2023/06/20 at 17:32:25.166     
------------------------------------------------------------------------
 total:
 * wall-time:     0 d,  0 h,  0 min,  6.439 sec
 *  cpu-time:     0 d,  0 h,  0 min,  5.961 sec
 * ratio c/w:     0.926 speedup
 SCF:
 * wall-time:     0 d,  0 h,  0 min,  0.139 sec
 *  cpu-time:     0 d,  0 h,  0 min,  0.134 sec
 * ratio c/w:     0.964 speedup
 ANC optimizer:
 * wall-time:     0 d,  0 h,  0 min,  6.219 sec
 *  cpu-time:     0 d,  0 h,  0 min,  5.785 sec
 * ratio c/w:     0.930 speedup

