38
 energy: -79.617235354927 gnorm: 0.000292628068 xtb: 6.5.1 (579679a)
C           -6.50850846631475        0.72949202984025        0.09393314225528
O           -5.14532901942634        1.01808875521766       -0.20159978131450
C           -4.26020058713723        0.04161372501543        0.06375617849744
O           -4.60991490834621       -1.03326288607883        0.51277448188149
C           -2.85852150414748        0.41152997021346       -0.23298792397555
N           -1.93967237651644       -0.56033813234804        0.07029390653613
C           -0.67262805380435       -0.28850330502207       -0.14293975386932
C            0.30368713156732       -1.40633258076828        0.20935712463790
C            0.09196422753632       -1.82817547480447        1.66946653067310
C            0.06508688118703       -2.58991575394965       -0.73904277389313
N            1.65510477995235       -0.87777051871655        0.03315582690234
C            2.77641426724138       -1.56963854902994        0.24434082624910
O            2.84319373813915       -2.74611791688907        0.58297822821531
C            4.01103458571857       -0.75889230831878        0.03396110691769
N            5.24181822451934       -1.16144214262466        0.12003369201732
N            6.03062684847026       -0.07474109121933       -0.12811385266693
C            5.23142975090959        0.92216801700763       -0.34745159265676
C            5.59608323315017        2.32250512354362       -0.65615021445545
O            3.94209329819810        0.55727375485516       -0.26133385774443
N           -0.15442334649014        0.83536438078392       -0.63727380573813
C           -0.99804741206339        1.83897233997084       -0.97625573270709
O           -0.63739273641008        2.93214770661437       -1.45364148691717
C           -2.42830095988339        1.60363785007813       -0.75427228276099
O           -3.22822067343957        2.63723454170428       -1.09971387908066
H           -6.84999669911233       -0.13662641254250       -0.47964143612788
H           -7.08542310403552        1.61048770149247       -0.18155631721038
H           -6.63050649806718        0.52077146390730        1.16050663348144
H            0.33012409584152       -0.99919091177370        2.33503219457498
H            0.72344891431288       -2.67889644221317        1.92061340281126
H           -0.95308876530878       -2.10355885575616        1.80867924531206
H            0.28944591202149       -2.29790446826846       -1.76434586800670
H           -0.98226948236010       -2.88423009425302       -0.67632853555779
H            0.69157091863510       -3.43732528151834       -0.46486158472929
H            1.69807877267989        0.09248034311747       -0.27206999416552
H            5.19844881052051        2.60755612888448       -1.63006142172705
H            6.67817761870573        2.42411673501604       -0.66176536342612
H            5.17113608349888        2.99213730331407        0.09129356709461
H           -2.62652449994251        3.33528825551776       -1.43672762933412
