47
 energy: -80.229936997085 gnorm: 0.000396327334 xtb: 6.5.1 (579679a)
C           -4.59969053330332       -0.64212728320156        0.87881876300317
N           -3.17761964915280       -0.90724259446009        0.66256850403146
C           -2.42165145313363       -0.27839695522679       -0.30904344827621
C           -2.96846031650470        0.85538789269902       -1.17053972424941
C           -1.90421598876675        1.25330614381132       -2.20809955635701
C           -3.29271204708162        2.08253301599719       -0.30514931112968
N           -4.18709749915766        0.43163732003881       -1.86926184044845
N           -1.17913984493528       -0.60117024421996       -0.48800284644717
C           -0.57097943186786       -1.55465968021960        0.27081650844119
C            0.88194000747767       -1.85064835127859       -0.09789238823023
C            0.97895401308288       -2.11410289981245       -1.61349833906074
O            1.36983202726030       -2.96020556765074        0.59978295372606
N            1.66754142275857       -0.62725085442278        0.22762737220724
C            3.12131769511942       -0.85849450117968        0.18397856034163
C            3.84197163619893        0.40582349262810        0.57838798076614
C            3.78861693396820        0.86550847562307        1.89416718451797
C            4.42950770530053        2.03913204261363        2.26502628978345
C            5.12648125568406        2.73905778744863        1.29689032200490
F            5.75249098989207        3.87942286045888        1.64675861835212
C            5.20868140707454        2.31320329153274       -0.01538123256720
C            4.55553728856591        1.13926891331387       -0.36735896572181
C           -1.21800878936231       -2.21146514918366        1.31240731777107
O           -0.66829416148279       -3.08751343580012        2.07062021752699
C           -2.63966846506376       -1.85569008102136        1.52383666426862
O           -3.36434407147729       -2.35591101829726        2.39737963701006
H           -5.10348275605344       -1.58984116571966        1.08181599176215
H           -4.73122141157948        0.01228068548619        1.74303527655907
H           -5.04177340917549       -0.18824104311356       -0.00301917211247
H           -1.63123414182253        0.39248680835837       -2.81729550444941
H           -1.00831263502243        1.62513590000907       -1.71110596406267
H           -2.30063139839236        2.03268908767494       -2.85693779501482
H           -3.58111944914356        2.91687933812732       -0.94325045506284
H           -4.11243628804508        1.88058113555817        0.38122451430226
H           -2.41519108130446        2.37274902413955        0.27208355180449
H           -3.95230688044566       -0.26112669150886       -2.56825457096939
H           -4.57916361236104        1.22645372588925       -2.35289394983338
H            1.99312687899559       -2.39505146531096       -1.89203251829330
H            0.68500045839656       -1.21949429446649       -2.16003364170575
H            0.30907913955913       -2.93230295794860       -1.87477802377417
H            1.43687446787842       -0.37985984630344        1.19087595572775
H            3.40690106534168       -1.67526415623312        0.86431248125845
H            3.40984410412002       -1.13970735751321       -0.83293229463708
H            3.24348558968197        0.30074154552623        2.64245502770455
H            4.39305003158545        2.40535848846571        3.28276447007248
H            5.76850509602938        2.88718653060098       -0.74191451395260
H            4.61051397204312        0.79164947556984       -1.39314717098649
H            0.66950312862060       -3.16270738747499        1.32418606437816
