      -----------------------------------------------------------      
     |                   =====================                   |     
     |                           x T B                           |     
     |                   =====================                   |     
     |                         S. Grimme                         |     
     |          Mulliken Center for Theoretical Chemistry        |     
     |                    University of Bonn                     |     
      -----------------------------------------------------------      

   * xtb version 6.5.1 (579679a) compiled by 'ehlert@majestix' on 2022-07-11

   xtb is free software: you can redistribute it and/or modify it under
   the terms of the GNU Lesser General Public License as published by
   the Free Software Foundation, either version 3 of the License, or
   (at your option) any later version.
   
   xtb is distributed in the hope that it will be useful,
   but WITHOUT ANY WARRANTY; without even the implied warranty of
   MERCHANTABILITY or FITNESS FOR A PARTICULAR PURPOSE.  See the
   GNU Lesser General Public License for more details.
   
   Cite this work as:
   * C. Bannwarth, E. Caldeweyher, S. Ehlert, A. Hansen, P. Pracht,
     J. Seibert, S. Spicher, S. Grimme, WIREs Comput. Mol. Sci., 2020, 11,
     e01493. DOI: 10.1002/wcms.1493
   
   for GFN2-xTB:
   * C. Bannwarth, S. Ehlert and S. Grimme., J. Chem. Theory Comput., 2019,
     15, 1652-1671. DOI: 10.1021/acs.jctc.8b01176
   for GFN1-xTB:
   * S. Grimme, C. Bannwarth, P. Shushkov, J. Chem. Theory Comput., 2017,
     13, 1989-2009. DOI: 10.1021/acs.jctc.7b00118
   for GFN0-xTB:
   * P. Pracht, E. Caldeweyher, S. Ehlert, S. Grimme, ChemRxiv, 2019, preprint.
     DOI: 10.26434/chemrxiv.8326202.v1
   for GFN-FF:
   * S. Spicher and S. Grimme, Angew. Chem. Int. Ed., 2020, 59, 15665-15673.
     DOI: 10.1002/anie.202004239
   
   for ALPB and GBSA implicit solvation:
   * S. Ehlert, M. Stahn, S. Spicher, S. Grimme, J. Chem. Theory Comput.,
     2021, 17, 4250-4261. DOI: 10.1021/acs.jctc.1c00471
   
   for DFT-D4:
   * E. Caldeweyher, C. Bannwarth and S. Grimme, J. Chem. Phys., 2017,
     147, 034112. DOI: 10.1063/1.4993215
   * E. Caldeweyher, S. Ehlert, A. Hansen, H. Neugebauer, S. Spicher,
     C. Bannwarth and S. Grimme, J. Chem. Phys., 2019, 150, 154122.
     DOI: 10.1063/1.5090222
   * E. Caldeweyher, J.-M. Mewes, S. Ehlert and S. Grimme, Phys. Chem. Chem. Phys.
     2020, 22, 8499-8512. DOI: 10.1039/D0CP00502A
   
   for sTDA-xTB:
   * S. Grimme and C. Bannwarth, J. Chem. Phys., 2016, 145, 054103.
     DOI: 10.1063/1.4959605
   
   in the mass-spec context:
   * V. Asgeirsson, C. Bauer and S. Grimme, Chem. Sci., 2017, 8, 4879.
     DOI: 10.1039/c7sc00601b
   * J. Koopman and S. Grimme, ACS Omega 2019, 4, 12, 15120-15133.
     DOI: 10.1021/acsomega.9b02011
   
   for metadynamics refer to:
   * S. Grimme, J. Chem. Theory Comput., 2019, 155, 2847-2862
     DOI: 10.1021/acs.jctc.9b00143
   
   for SPH calculations refer to:
   * S. Spicher and S. Grimme, J. Chem. Theory Comput., 2021, 17, 1701-1714
     DOI: 10.1021/acs.jctc.0c01306
   
   with help from (in alphabetical order)
   P. Atkinson, C. Bannwarth, F. Bohle, G. Brandenburg, E. Caldeweyher
   M. Checinski, S. Dohm, S. Ehlert, S. Ehrlich, I. Gerasimov, C. Hölzer
   A. Katbashev, J. Koopman, C. Lavigne, S. Lehtola, F. März, M. Müller,
   F. Musil, H. Neugebauer, J. Pisarek, C. Plett, P. Pracht, F. Pultar,
   J. Seibert, P. Shushkov, S. Spicher, M. Stahn, M. Steiner, T. Strunk,
   J. Stückrath, T. Rose, and J. Unsleber
   
 * started run on 2023/06/20 at 14:52:30.424     

           -------------------------------------------------
          |                Calculation Setup                |
           -------------------------------------------------

          program call               : /lustre/hpc/kemi/ree/PhD/git/ReactivityQM/dep/xtb-6.5.1/bin/xtb --gfn 1 /lustre/hpc/kemi/ree/PhD/git/ReactivityQM/calculations/RaltegravirCLI/reac01prodE02/conf09/RaltegravirCLI_reac01prodE02_conf09_gfn1.xyz --opt --vfukui --chrg -1 --uhf 0 --alpb DMSO
          hostname                   : node308
          coordinate file            : /lustre/hpc/kemi/ree/PhD/git/ReactivityQM/calculations/RaltegravirCLI/reac01prodE02/conf09/RaltegravirCLI_reac01prodE02_conf09_gfn1.xyz
          omp threads                :                     1

   ID    Z sym.   atoms
    1    6 C      1-3, 6, 7
    2    7 N      4, 5
    3    8 O      8, 10
    4   17 Cl     9
    5    1 H      11-16

           -------------------------------------------------
          |                 G F N 1 - x T B                 |
           -------------------------------------------------

        Reference                      10.1021/acs.jctc.7b00118
      * Hamiltonian:
        H0-scaling (s, p, d)           1.850000    2.250000    2.000000
        zeta-weighting                 0.000000
      * Dispersion:
        s8                             2.400000
        a1                             0.630000
        a2                             5.000000
        s9                             0.000000
      * Repulsion:
        kExp                           1.500000
        rExp                           1.000000
      * Coulomb:
        alpha                          2.000000
        third order                    atomic
        anisotropic                    false
      * Halogen bond correction:
        rad-scale                      1.300000
        damping                        0.440000

      * Solvation model:               ALPB
        Solvent                        DMSO
        Parameter file                 internal GFN1-xTB/ALPB
        Dielectric constant                4.6680E+01
        Reference state                gsolv [1 M gas/solution]
        Free energy shift                  7.6243E-03 Eh       4.7843E+00 kcal/mol
        Temperature                        2.9815E+02 K
        Density                            1.1000E+00 kg/L
        Solvent mass                       7.8130E+01 g/mol
        Interaction kernel             P16
        Born radius scaling (c1)           1.7672E+00
        Born radii integrator          GBOBC
        Born offset                        0.0000E+00 a0       0.0000E+00 AA
        H-bond correction              true
        Ion screening                  false
        Surface tension                    1.0000E-05 Eh       1.5569E+01 dyn/cm
        Grid points                               230 per atom

          ...................................................
          :                      SETUP                      :
          :.................................................:
          :  # basis functions                  58          :
          :  # atomic orbitals                  57          :
          :  # shells                           33          :
          :  # electrons                        56          :
          :  # halogen bonds                     4          :
          :  max. iterations                   250          :
          :  Hamiltonian                  GFN1-xTB          :
          :  restarted?                      false          :
          :  GBSA solvation                   true          :
          :  PC potential                    false          :
          :  electronic temp.          300.0000000     K    :
          :  accuracy                    1.0000000          :
          :  -> integral cutoff          0.2500000E+02      :
          :  -> integral neglect         0.1000000E-07      :
          :  -> SCF convergence          0.1000000E-05 Eh   :
          :  -> wf. convergence          0.2000000E-04 e    :
          :  Broyden damping             0.4000000          :
          ...................................................

 iter      E             dE          RMSdq      gap      omega  full diag
   1    -34.3113658 -0.343114E+02  0.830E+00    2.20       0.0  T
   2    -34.4039002 -0.925344E-01  0.497E+00    2.02       1.0  T
   3    -34.3835564  0.203438E-01  0.175E+00    2.12       1.0  T
   4    -34.4065219 -0.229655E-01  0.494E-01    2.09       1.0  T
   5    -34.4116467 -0.512483E-02  0.829E-02    2.04       1.0  T
   6    -34.4117207 -0.739240E-04  0.136E-02    2.03       1.8  T
   7    -34.4117223 -0.165460E-05  0.456E-03    2.03       5.5  T
   8    -34.4117224 -0.732226E-07  0.212E-03    2.03      11.8  T
   9    -34.4117224  0.600274E-08  0.933E-04    2.03      26.8  T
  10    -34.4117224 -0.819951E-08  0.172E-04    2.03     145.7  T
  11    -34.4117224 -0.193104E-09  0.370E-05    2.03     675.4  T

   *** convergence criteria satisfied after 11 iterations ***

         #    Occupation            Energy/Eh            Energy/eV
      -------------------------------------------------------------
         1        2.0000           -0.8853058             -24.0904
       ...           ...                  ...                  ...
        22        2.0000           -0.4537842             -12.3481
        23        2.0000           -0.4528240             -12.3220
        24        2.0000           -0.4490595             -12.2195
        25        2.0000           -0.4340114             -11.8101
        26        2.0000           -0.4182803             -11.3820
        27        2.0000           -0.3829926             -10.4218
        28        2.0000           -0.3336123              -9.0781 (HOMO)
        29                         -0.2590450              -7.0490 (LUMO)
        30                         -0.1618612              -4.4045
        31                         -0.1571505              -4.2763
        32                         -0.1097256              -2.9858
        33                         -0.1043520              -2.8396
       ...                                ...                  ...
        57                          0.6546477              17.8139
      -------------------------------------------------------------
                  HL-Gap            0.0745673 Eh            2.0291 eV
             Fermi-level           -0.2963286 Eh           -8.0635 eV

 SCC (total)                   0 d,  0 h,  0 min,  0.046 sec
 SCC setup                      ...        0 min,  0.001 sec (  1.305%)
 Dispersion                     ...        0 min,  0.000 sec (  0.176%)
 classical contributions        ...        0 min,  0.000 sec (  0.092%)
 integral evaluation            ...        0 min,  0.005 sec ( 10.791%)
 iterations                     ...        0 min,  0.009 sec ( 20.019%)
 molecular gradient             ...        0 min,  0.019 sec ( 42.328%)
 printout                       ...        0 min,  0.012 sec ( 25.200%)

         :::::::::::::::::::::::::::::::::::::::::::::::::::::
         ::                     SUMMARY                     ::
         :::::::::::::::::::::::::::::::::::::::::::::::::::::
         :: total energy             -34.164665634215 Eh    ::
         :: total w/o Gsasa/hb       -34.156793515298 Eh    ::
         :: gradient norm              0.073619370249 Eh/a0 ::
         :: HOMO-LUMO gap              2.029078639040 eV    ::
         ::.................................................::
         :: SCC energy               -34.411722383101 Eh    ::
         :: -> electrostatic           0.217220851488 Eh    ::
         :: -> Gsolv                  -0.088727062920 Eh    ::
         ::    -> Gelec               -0.080854944003 Eh    ::
         ::    -> Gsasa               -0.014957241086 Eh    ::
         ::    -> Ghb                 -0.000539156836 Eh    ::
         ::    -> Gshift               0.007624279005 Eh    ::
         :: repulsion energy           0.254588185121 Eh    ::
         :: dispersion energy         -0.007531436235 Eh    ::
         :: halogen bond corr.         0.000000000000 Eh    ::
         :: add. restraining           0.000000000000 Eh    ::
         :: total charge              -1.000000000000 e     ::
         :::::::::::::::::::::::::::::::::::::::::::::::::::::

      ----------------------------------------------------------- 
     |                   =====================                   |
     |                        A N C O P T                        |
     |                   =====================                   |
     |               Approximate Normal Coordinate               |
     |                Rational Function Optimizer                |
      ----------------------------------------------------------- 

          ...................................................
          :                      SETUP                      :
          :.................................................:
          :   optimization level            normal          :
          :   max. optcycles                   200          :
          :   ANC micro-cycles                  20          :
          :   degrees of freedom                42          :
          :.................................................:
          :   RF solver                   davidson          :
          :   write xtbopt.log                true          :
          :   linear?                        false          :
          :   energy convergence         0.5000000E-05 Eh   :
          :   grad. convergence          0.1000000E-02 Eh/α :
          :   maximium RF displ.         1.0000000          :
          :   Hlow (freq-cutoff)         0.1000000E-01      :
          :   Hmax (freq-cutoff)         5.0000000          :
          :   S6 in model hess.         20.0000000          :
          ...................................................

generating ANC from model Hessian ...
Using Lindh-Hessian (1995)
 Shifting diagonal of input Hessian by   7.185478959306929E-003
 Lowest  eigenvalues of input Hessian
    0.000000    0.000000    0.000000    0.000000    0.000000    0.000000
    0.010000    0.014200    0.017186    0.017723    0.018382    0.022260
    0.027433    0.044503    0.053124    0.053400    0.064712    0.065741
 Highest eigenvalues
    1.308732    1.383260    1.582738    1.799477    1.958610    2.156649
 

........................................................................
.............................. CYCLE    1 ..............................
........................................................................
   1    -34.4117224 -0.344117E+02  0.515E-06    2.03       0.0  T
   2    -34.4117224 -0.170530E-12  0.238E-06    2.03   10522.4  T
   3    -34.4117224  0.710543E-14  0.170E-06    2.03   14695.4  T
     SCC iter.                  ...        0 min,  0.015 sec
     gradient                   ...        0 min,  0.036 sec
 * total energy  :   -34.1646656 Eh     change       -0.1865175E-10 Eh
   gradient norm :     0.0736197 Eh/α   predicted     0.0000000E+00 (-100.00%)
   displ. norm   :     0.1435313 α      lambda       -0.5499093E-02
   maximum displ.:     0.0694147 α      in ANC's #8, #9, #24, ...

........................................................................
.............................. CYCLE    2 ..............................
........................................................................
   1    -34.4205411 -0.344205E+02  0.990E-02    2.01       0.0  T
   2    -34.4206404 -0.993123E-04  0.852E-02    2.03       1.0  T
   3    -34.4207321 -0.917498E-04  0.323E-02    2.02       1.0  T
   4    -34.4207319  0.241118E-06  0.135E-02    2.02       1.9  T
   5    -34.4207333 -0.144750E-05  0.379E-03    2.02       6.6  T
   6    -34.4207334 -0.239160E-07  0.138E-03    2.02      18.1  T
   7    -34.4207334 -0.205276E-07  0.988E-05    2.02     253.1  T
   8    -34.4207334 -0.102773E-09  0.383E-05    2.02     652.2  T
     SCC iter.                  ...        0 min,  0.018 sec
     gradient                   ...        0 min,  0.023 sec
 * total energy  :   -34.1688128 Eh     change       -0.4147216E-02 Eh
   gradient norm :     0.0449138 Eh/α   predicted    -0.2806191E-02 ( -32.34%)
   displ. norm   :     0.1347187 α      lambda       -0.3574743E-02
   maximum displ.:     0.0639897 α      in ANC's #8, #24, #9, ...

........................................................................
.............................. CYCLE    3 ..............................
........................................................................
   1    -34.4280161 -0.344280E+02  0.141E-01    2.02       0.0  T
   2    -34.4281689 -0.152797E-03  0.965E-02    2.04       1.0  T
   3    -34.4282706 -0.101699E-03  0.405E-02    2.03       1.0  T
   4    -34.4282796 -0.906166E-05  0.133E-02    2.03       1.9  T
   5    -34.4282809 -0.129172E-05  0.464E-03    2.03       5.4  T
   6    -34.4282810 -0.290560E-07  0.163E-03    2.03      15.4  T
   7    -34.4282810 -0.291017E-07  0.191E-04    2.03     130.8  T
   8    -34.4282810 -0.363599E-09  0.615E-05    2.03     406.6  T
     SCC iter.                  ...        0 min,  0.018 sec
     gradient                   ...        0 min,  0.031 sec
 * total energy  :   -34.1708908 Eh     change       -0.2078000E-02 Eh
   gradient norm :     0.0191606 Eh/α   predicted    -0.1819812E-02 ( -12.42%)
   displ. norm   :     0.0386564 α      lambda       -0.4725117E-03
   maximum displ.:     0.0155329 α      in ANC's #1, #31, #29, ...

........................................................................
.............................. CYCLE    4 ..............................
........................................................................
   1    -34.4292543 -0.344293E+02  0.634E-02    2.05       0.0  T
   2    -34.4292857 -0.314545E-04  0.256E-02    2.04       1.0  T
   3    -34.4292882 -0.242918E-05  0.160E-02    2.04       1.6  T
   4    -34.4292910 -0.286387E-05  0.476E-03    2.04       5.3  T
   5    -34.4292913 -0.300217E-06  0.127E-03    2.04      19.8  T
   6    -34.4292913 -0.475301E-08  0.463E-04    2.04      54.0  T
   7    -34.4292913 -0.373184E-09  0.111E-04    2.04     225.8  T
   8    -34.4292913 -0.120274E-09  0.274E-05    2.04     911.6  T
     SCC iter.                  ...        0 min,  0.029 sec
     gradient                   ...        0 min,  0.031 sec
 * total energy  :   -34.1712403 Eh     change       -0.3494358E-03 Eh
   gradient norm :     0.0117746 Eh/α   predicted    -0.2366079E-03 ( -32.29%)
   displ. norm   :     0.0535731 α      lambda       -0.3461980E-03
   maximum displ.:     0.0260946 α      in ANC's #6, #1, #3, ...

........................................................................
.............................. CYCLE    5 ..............................
........................................................................
   1    -34.4297353 -0.344297E+02  0.706E-02    2.08       0.0  T
   2    -34.4297780 -0.427005E-04  0.278E-02    2.07       1.0  T
   3    -34.4297811 -0.305148E-05  0.119E-02    2.07       2.1  T
   4    -34.4297816 -0.543747E-06  0.586E-03    2.07       4.3  T
   5    -34.4297821 -0.459214E-06  0.133E-03    2.07      18.8  T
   6    -34.4297821 -0.281643E-08  0.772E-04    2.07      32.4  T
   7    -34.4297821 -0.264269E-08  0.116E-04    2.07     215.4  T
   8    -34.4297821 -0.124516E-09  0.312E-05    2.07     801.5  T
     SCC iter.                  ...        0 min,  0.018 sec
     gradient                   ...        0 min,  0.031 sec
 * total energy  :   -34.1714497 Eh     change       -0.2093721E-03 Eh
   gradient norm :     0.0054156 Eh/α   predicted    -0.1735945E-03 ( -17.09%)
   displ. norm   :     0.0268194 α      lambda       -0.5090968E-04
   maximum displ.:     0.0157569 α      in ANC's #6, #3, #1, ...

........................................................................
.............................. CYCLE    6 ..............................
........................................................................
   1    -34.4299351 -0.344299E+02  0.247E-02    2.09       0.0  T
   2    -34.4299414 -0.628145E-05  0.178E-02    2.08       1.4  T
   3    -34.4299452 -0.382642E-05  0.527E-03    2.08       4.7  T
   4    -34.4299453 -0.489718E-07  0.323E-03    2.08       7.7  T
   5    -34.4299454 -0.908550E-07  0.880E-04    2.08      28.4  T
   6    -34.4299454 -0.311717E-08  0.348E-04    2.08      71.8  T
   7    -34.4299454 -0.720682E-09  0.426E-05    2.08     587.3  T
   8    -34.4299454 -0.759570E-11  0.126E-05    2.08    1991.9  T
     SCC iter.                  ...        0 min,  0.018 sec
     gradient                   ...        0 min,  0.031 sec
 * total energy  :   -34.1714807 Eh     change       -0.3107303E-04 Eh
   gradient norm :     0.0028448 Eh/α   predicted    -0.2547395E-04 ( -18.02%)
   displ. norm   :     0.0171736 α      lambda       -0.1446948E-04
   maximum displ.:     0.0086326 α      in ANC's #3, #6, #7, ...

........................................................................
.............................. CYCLE    7 ..............................
........................................................................
   1    -34.4300779 -0.344301E+02  0.116E-02    2.09       0.0  T
   2    -34.4300795 -0.166114E-05  0.116E-02    2.09       2.2  T
   3    -34.4300816 -0.201055E-05  0.347E-03    2.09       7.2  T
   4    -34.4300816 -0.189682E-07  0.148E-03    2.09      16.8  T
   5    -34.4300816 -0.155791E-07  0.411E-04    2.09      60.8  T
   6    -34.4300816 -0.652172E-09  0.124E-04    2.09     201.4  T
   7    -34.4300816 -0.103462E-09  0.168E-05    2.09    1488.6  T
     SCC iter.                  ...        0 min,  0.030 sec
     gradient                   ...        0 min,  0.031 sec
 * total energy  :   -34.1714878 Eh     change       -0.7089493E-05 Eh
   gradient norm :     0.0013575 Eh/α   predicted    -0.7236228E-05 (   2.07%)
   displ. norm   :     0.0108390 α      lambda       -0.3856811E-05
   maximum displ.:     0.0059267 α      in ANC's #3, #1, #8, ...

........................................................................
.............................. CYCLE    8 ..............................
........................................................................
   1    -34.4302182 -0.344302E+02  0.348E-03    2.09       0.0  T
   2    -34.4302183 -0.165612E-06  0.386E-03    2.09       6.5  T
   3    -34.4302185 -0.193357E-06  0.155E-03    2.09      16.2  T
   4    -34.4302185 -0.432942E-08  0.545E-04    2.09      45.9  T
   5    -34.4302185 -0.180123E-08  0.325E-05    2.09     769.5  T
   6    -34.4302185 -0.131664E-10  0.797E-06    2.09    3135.0  T
     SCC iter.                  ...        0 min,  0.016 sec
     gradient                   ...        0 min,  0.031 sec
 * total energy  :   -34.1714900 Eh     change       -0.2223554E-05 Eh
   gradient norm :     0.0008168 Eh/α   predicted    -0.1929486E-05 ( -13.23%)
   displ. norm   :     0.0050719 α      lambda       -0.1021356E-05
   maximum displ.:     0.0025477 α      in ANC's #2, #6, #3, ...

   *** GEOMETRY OPTIMIZATION CONVERGED AFTER 8 ITERATIONS ***

------------------------------------------------------------------------
 total energy gain   :        -0.0068244 Eh       -4.2824 kcal/mol
 total RMSD          :         0.0759230 a0        0.0402 Å
 total power (kW/mol):        -2.2396856 (step)  -34.3397 (real)
------------------------------------------------------------------------

 ANCopt (total)                0 d,  0 h,  0 min,  0.522 sec
 optimizer setup                ...        0 min,  0.001 sec (  0.145%)
 model hessian                  ...        0 min,  0.006 sec (  1.173%)
 ANC generation                 ...        0 min,  0.000 sec (  0.079%)
 coordinate transformation      ...        0 min,  0.000 sec (  0.019%)
 single point calculation       ...        0 min,  0.498 sec ( 95.374%)
 optimization log               ...        0 min,  0.002 sec (  0.356%)
 hessian update                 ...        0 min,  0.013 sec (  2.460%)
 rational function              ...        0 min,  0.001 sec (  0.245%)

================
 final structure:
================
16
 xtb: 6.5.1 (579679a)
C           -1.30217584576190        1.11633419023416        1.27968908894841
C           -0.62874957496911        0.09449679761768        0.35458953800160
C           -1.60048436088721       -1.02195804609131       -0.04855933677742
N           -0.13823726814775        0.77842409373422       -0.85552449827257
N            1.12928374158029        0.63801285902134       -0.91247937128827
C            1.58572754666013       -0.07545295383764        0.13291731691859
C            2.88611181907605       -0.43544858306518        0.41310625777471
O            3.38480308186249       -1.07933748517868        1.32056744633067
Cl           4.03513713011751        0.21732914368351       -0.88344384872488
O            0.52479251594623       -0.45115217313036        0.97315749853985
H           -0.58613012659851        1.89294071854388        1.54344892402306
H           -2.14947950593145        1.56967540375245        0.76995516687428
H           -1.64744931756682        0.62729469630154        2.18848435828321
H           -2.44866530620695       -0.59596196216266       -0.57995494827114
H           -1.95552115198617       -1.54628344239609        0.83650055725109
H           -1.08896337718689       -1.72891325702692       -0.69976014961114
 
 Bond Distances (Angstroems)
 ---------------------------
C1-C2=1.5341         C1-H11=1.0888        C1-H12=1.0878        C1-H13=1.0882        C2-C1=1.5341         C2-C3=1.5340         
C2-N4=1.4740         C2-O10=1.4181        C3-C2=1.5340         C3-H14=1.0878        C3-H15=1.0883        C3-H16=1.0888        
N4-C2=1.4740         N4-N5=1.2765         N5-N4=1.2765         N5-C6=1.3454         C6-N5=1.3454         C6-C7=1.3781         
C6-O10=1.4045        C7-C6=1.3781         C7-O8=1.2193         C7-Cl9=1.8513        O8-C7=1.2193         Cl9-C7=1.8513        
O10-C2=1.4181        O10-C6=1.4045        H11-C1=1.0888        H12-C1=1.0878        H13-C1=1.0882        H14-C3=1.0878        
H15-C3=1.0883        H16-C3=1.0888        
 C  H  Rav=1.0883 sigma=0.0004  Rmin=1.0878  Rmax=1.0888     6
 C  C  Rav=1.4821 sigma=0.0735  Rmin=1.3781  Rmax=1.5341     3
 N  C  Rav=1.4097 sigma=0.0643  Rmin=1.3454  Rmax=1.4740     2
 N  N  Rav=1.2765 sigma=0.0000  Rmin=1.2765  Rmax=1.2765     1
 O  C  Rav=1.3473 sigma=0.0907  Rmin=1.2193  Rmax=1.4181     3
 Cl C  Rav=1.8513 sigma=0.0000  Rmin=1.8513  Rmax=1.8513     1
 
 selected bond angles (degree)
 --------------------
H11-C1-C2=109.42               H12-C1-C2=109.69               H12-C1-H11=109.18              H13-C1-C2=110.09               
H13-C1-H11=109.08              H13-C1-H12=109.36              C3-C2-C1=111.42                N4-C2-C1=109.40                
N4-C2-C3=109.43                O10-C2-C1=110.51               O10-C2-C3=110.48               O10-C2-N4=105.42               
H14-C3-C2=109.71               H15-C3-C2=110.09               H15-C3-H14=109.37              H16-C3-C2=109.40               
H16-C3-H14=109.17              H16-C3-H15=109.08              N5-N4-C2=108.42                C6-N5-N4=111.13                
C7-C6-N5=128.07                O10-C6-N5=110.51               O10-C6-C7=121.42               O8-C7-C6=132.47                
Cl9-C7-C6=110.56               Cl9-C7-O8=116.97               C6-O10-C2=104.51               
 
 selected dihedral angles (degree)
 ---------------------------------
C3-C2-C1-H11=180.11           C3-C2-C1-H12=299.85           C3-C2-C1-H13= 60.24           N4-C2-C1-H11=301.24           
N4-C2-C1-H12= 60.98           N4-C2-C1-H13=181.37           O10-C2-C1-H11= 56.88          O10-C2-C1-H12=176.62          
O10-C2-C1-H13=297.01          H14-C3-C2-C1= 60.49           H14-C3-C2-N4=299.38           H14-C3-C2-O10=183.73          
H15-C3-C2-C1=300.08           H15-C3-C2-N4=178.97           H15-C3-C2-O10= 63.32          H16-C3-C2-C1=180.22           
H16-C3-C2-N4= 59.12           H16-C3-C2-O10=303.47          N5-N4-C2-C1=118.80            N5-N4-C2-C3=241.13            
N5-N4-C2-O10=359.95           C6-N5-N4-C2=  0.00            C7-C6-N5-N4=179.76            O10-C6-N5-N4=  0.00           
O8-C7-C6-N5=180.53            O8-C7-C6-O10=  0.26           Cl9-C7-C6-N5=  0.38           Cl9-C7-C6-O10=180.11          
C6-O10-C2-C1=241.95           C6-O10-C2-C3=118.18           C6-O10-C2-N4=  0.05           C2-O10-C6-N5=359.96           
C2-O10-C6-C7=180.19           
           -------------------------------------------------
          |                Final Singlepoint                |
           -------------------------------------------------

          ...................................................
          :                      SETUP                      :
          :.................................................:
          :  # basis functions                  58          :
          :  # atomic orbitals                  57          :
          :  # shells                           33          :
          :  # electrons                        56          :
          :  # halogen bonds                     4          :
          :  max. iterations                   250          :
          :  Hamiltonian                  GFN1-xTB          :
          :  restarted?                      false          :
          :  GBSA solvation                   true          :
          :  PC potential                    false          :
          :  electronic temp.          300.0000000     K    :
          :  accuracy                    1.0000000          :
          :  -> integral cutoff          0.2500000E+02      :
          :  -> integral neglect         0.1000000E-07      :
          :  -> SCF convergence          0.1000000E-05 Eh   :
          :  -> wf. convergence          0.2000000E-04 e    :
          :  Broyden damping             0.4000000          :
          ...................................................

 iter      E             dE          RMSdq      gap      omega  full diag
   1    -34.4302185 -0.344302E+02  0.326E-06    2.09       0.0  T
   2    -34.4302185 -0.497380E-13  0.193E-06    2.09   12980.0  T
   3    -34.4302185 -0.142109E-13  0.380E-07    2.09   65733.2  T

   *** convergence criteria satisfied after 3 iterations ***

         #    Occupation            Energy/Eh            Energy/eV
      -------------------------------------------------------------
         1        2.0000           -0.8705198             -23.6881
       ...           ...                  ...                  ...
        22        2.0000           -0.4567367             -12.4284
        23        2.0000           -0.4520439             -12.3007
        24        2.0000           -0.4486363             -12.2080
        25        2.0000           -0.4378084             -11.9134
        26        2.0000           -0.4280390             -11.6475
        27        2.0000           -0.3890620             -10.5869
        28        2.0000           -0.3415433              -9.2939 (HOMO)
        29                         -0.2648818              -7.2078 (LUMO)
        30                         -0.1781784              -4.8485
        31                         -0.1490864              -4.0568
        32                         -0.1103438              -3.0026
        33                         -0.1047565              -2.8506
       ...                                ...                  ...
        57                          0.7661547              20.8481
      -------------------------------------------------------------
                  HL-Gap            0.0766614 Eh            2.0861 eV
             Fermi-level           -0.3032125 Eh           -8.2508 eV

 SCC (total)                   0 d,  0 h,  0 min,  0.030 sec
 SCC setup                      ...        0 min,  0.001 sec (  2.246%)
 Dispersion                     ...        0 min,  0.000 sec (  0.247%)
 classical contributions        ...        0 min,  0.000 sec (  0.102%)
 integral evaluation            ...        0 min,  0.009 sec ( 29.745%)
 iterations                     ...        0 min,  0.002 sec (  7.412%)
 molecular gradient             ...        0 min,  0.017 sec ( 59.023%)
 printout                       ...        0 min,  0.000 sec (  1.094%)

         :::::::::::::::::::::::::::::::::::::::::::::::::::::
         ::                     SUMMARY                     ::
         :::::::::::::::::::::::::::::::::::::::::::::::::::::
         :: total energy             -34.171490043709 Eh    ::
         :: total w/o Gsasa/hb       -34.163610674828 Eh    ::
         :: gradient norm              0.000818070715 Eh/a0 ::
         :: HOMO-LUMO gap              2.086063675825 eV    ::
         ::.................................................::
         :: SCC energy               -34.430218548055 Eh    ::
         :: -> electrostatic           0.206133778634 Eh    ::
         :: -> Gsolv                  -0.086999397327 Eh    ::
         ::    -> Gelec               -0.079120028446 Eh    ::
         ::    -> Gsasa               -0.014942246985 Eh    ::
         ::    -> Ghb                 -0.000561400900 Eh    ::
         ::    -> Gshift               0.007624279005 Eh    ::
         :: repulsion energy           0.266294868191 Eh    ::
         :: dispersion energy         -0.007566363844 Eh    ::
         :: halogen bond corr.         0.000000000000 Eh    ::
         :: add. restraining           0.000000000000 Eh    ::
         :: total charge              -1.000000000000 e     ::
         :::::::::::::::::::::::::::::::::::::::::::::::::::::

           -------------------------------------------------
          |                Property Printout                |
           -------------------------------------------------

    * Orbital Energies and Occupations

         #    Occupation            Energy/Eh            Energy/eV
      -------------------------------------------------------------
         1        2.0000           -0.8705198             -23.6881
       ...           ...                  ...                  ...
        16        2.0000           -0.5165848             -14.0570
        17        2.0000           -0.5017753             -13.6540
        18        2.0000           -0.4945182             -13.4565
        19        2.0000           -0.4922030             -13.3935
        20        2.0000           -0.4830971             -13.1457
        21        2.0000           -0.4614138             -12.5557
        22        2.0000           -0.4567367             -12.4284
        23        2.0000           -0.4520439             -12.3007
        24        2.0000           -0.4486363             -12.2080
        25        2.0000           -0.4378084             -11.9134
        26        2.0000           -0.4280390             -11.6475
        27        2.0000           -0.3890620             -10.5869
        28        2.0000           -0.3415433              -9.2939 (HOMO)
        29                         -0.2648818              -7.2078 (LUMO)
        30                         -0.1781784              -4.8485
        31                         -0.1490864              -4.0568
        32                         -0.1103438              -3.0026
        33                         -0.1047565              -2.8506
        34                         -0.0633887              -1.7249
        35                         -0.0522146              -1.4208
        36                         -0.0341740              -0.9299
        37                         -0.0318702              -0.8672
        38                         -0.0020942              -0.0570
        39                         -0.0017427              -0.0474
       ...                                ...                  ...
        57                          0.7661547              20.8481
      -------------------------------------------------------------
                  HL-Gap            0.0766614 Eh            2.0861 eV
             Fermi-level           -0.3032125 Eh           -8.2508 eV

  Mulliken/CM5 charges         n(s)   n(p)   n(d)
     1C    -0.11032 -0.24875   1.017  3.093  0.000
     2C     0.34632  0.40974   1.032  2.622  0.000
     3C    -0.11028 -0.24872   1.017  3.093  0.000
     4N    -0.32626 -0.41538   1.593  3.733  0.000
     5N    -0.21799 -0.31472   1.558  3.660  0.000
     6C     0.23114  0.33871   0.978  2.791  0.000
     7C     0.39746  0.43993   1.023  2.580  0.000
     8O    -0.59067 -0.63132   1.736  4.854  0.000
     9Cl   -0.33860 -0.33215   1.966  5.380 -0.007
    10O    -0.47704 -0.53031   1.711  4.766  0.000
    11H     0.03611  0.09400   0.964  0.000  0.000
    12H     0.02888  0.08449   0.971  0.000  0.000
    13H     0.03313  0.08801   0.967  0.000  0.000
    14H     0.02890  0.08451   0.971  0.000  0.000
    15H     0.03309  0.08795   0.967  0.000  0.000
    16H     0.03613  0.09401   0.964  0.000  0.000

Wiberg/Mayer (AO) data.
largest (>0.10) Wiberg bond orders for each atom

 ---------------------------------------------------------------------------
     #   Z sym  total        # sym  WBO       # sym  WBO       # sym  WBO
 ---------------------------------------------------------------------------
     1   6 C    3.995 --    12 H    0.987    13 H    0.986    11 H    0.985
                             2 C    0.979
     2   6 C    3.898 --     3 C    0.979     1 C    0.979     4 N    0.972
                            10 O    0.927
     3   6 C    3.995 --    14 H    0.987    15 H    0.986    16 H    0.985
                             2 C    0.979
     4   7 N    2.947 --     5 N    1.585     2 C    0.972     7 C    0.118
                             6 C    0.116
     5   7 N    3.027 --     4 N    1.585     6 C    1.294
     6   6 C    3.856 --     7 C    1.357     5 N    1.294    10 O    0.936
                             4 N    0.116     8 O    0.109
     7   6 C    3.899 --     8 O    1.594     6 C    1.357     9 Cl   0.758
                             4 N    0.118
     8   8 O    1.949 --     7 C    1.594     9 Cl   0.116     6 C    0.109
     9  17 Cl   0.927 --     7 C    0.758     8 O    0.116
    10   8 O    2.057 --     6 C    0.936     2 C    0.927
    11   1 H    1.011 --     1 C    0.985
    12   1 H    1.008 --     1 C    0.987
    13   1 H    1.006 --     1 C    0.986
    14   1 H    1.008 --     3 C    0.987
    15   1 H    1.006 --     3 C    0.986
    16   1 H    1.011 --     3 C    0.985
 ---------------------------------------------------------------------------

Topologies differ in total number of bonds
Writing topology from bond orders to xtbtopo.mol

 dipole moment from electron density (au)
     X       Y       Z   
  -4.8850   0.2314   0.0514  total (Debye):   12.431

           -------------------------------------------------
          |                Geometry Summary                 |
           -------------------------------------------------

      molecular mass/u    :      161.5664778
   center of mass at/Å    :        1.3668095      -0.0036497       0.0638026
  moments of inertia/u·Å² :        0.1909258E+03   0.7546425E+03   0.8364903E+03
rotational constants/cm⁻¹ :        0.8829414E-01   0.2233857E-01   0.2015281E-01

 * 14 selected distances

     #   Z          #   Z                                           value/Å
     1   6 C        2   6 C                                       1.5341005 (max)
     2   6 C        3   6 C                                       1.5340370
     4   7 N        5   7 N                                       1.2765457
     5   7 N        6   6 C                                       1.3454475
     6   6 C        7   6 C                                       1.3780792
     7   6 C        8   8 O                                       1.2193326
     2   6 C       10   8 O                                       1.4181040
     6   6 C       10   8 O                                       1.4045416
     1   6 C       11   1 H                                       1.0887647
     1   6 C       12   1 H                                       1.0877824
     1   6 C       13   1 H                                       1.0882474
     3   6 C       14   1 H                                       1.0877799 (min)
     3   6 C       15   1 H                                       1.0882552
     3   6 C       16   1 H                                       1.0888077

 * 5 distinct bonds (by element types)

   Z      Z             #   av. dist./Å        max./Å        min./Å
   1 H    6 C           6     1.0882729     1.0888077     1.0877799
   6 C    6 C           3     1.4820722     1.5341005     1.3780792
   6 C    7 N           1     1.3454475     1.3454475     1.3454475
   7 N    7 N           1     1.2765457     1.2765457     1.2765457
   6 C    8 O           3     1.3473260     1.4181040     1.2193326


optimized geometry written to: xtbopt.xyz


           -------------------------------------------------
          | TOTAL ENERGY              -34.171490043709 Eh   |
          | GRADIENT NORM               0.000818070715 Eh/α |
          | HOMO-LUMO GAP               2.086063675825 eV   |
           -------------------------------------------------

------------------------------------------------------------------------
 * finished run on 2023/06/20 at 14:52:31.129     
------------------------------------------------------------------------
 total:
 * wall-time:     0 d,  0 h,  0 min,  0.705 sec
 *  cpu-time:     0 d,  0 h,  0 min,  0.353 sec
 * ratio c/w:     0.501 speedup
 SCF:
 * wall-time:     0 d,  0 h,  0 min,  0.046 sec
 *  cpu-time:     0 d,  0 h,  0 min,  0.031 sec
 * ratio c/w:     0.673 speedup
 ANC optimizer:
 * wall-time:     0 d,  0 h,  0 min,  0.579 sec
 *  cpu-time:     0 d,  0 h,  0 min,  0.299 sec
 * ratio c/w:     0.516 speedup

