      -----------------------------------------------------------      
     |                   =====================                   |     
     |                           x T B                           |     
     |                   =====================                   |     
     |                         S. Grimme                         |     
     |          Mulliken Center for Theoretical Chemistry        |     
     |                    University of Bonn                     |     
      -----------------------------------------------------------      

   * xtb version 6.5.1 (579679a) compiled by 'ehlert@majestix' on 2022-07-11

   xtb is free software: you can redistribute it and/or modify it under
   the terms of the GNU Lesser General Public License as published by
   the Free Software Foundation, either version 3 of the License, or
   (at your option) any later version.
   
   xtb is distributed in the hope that it will be useful,
   but WITHOUT ANY WARRANTY; without even the implied warranty of
   MERCHANTABILITY or FITNESS FOR A PARTICULAR PURPOSE.  See the
   GNU Lesser General Public License for more details.
   
   Cite this work as:
   * C. Bannwarth, E. Caldeweyher, S. Ehlert, A. Hansen, P. Pracht,
     J. Seibert, S. Spicher, S. Grimme, WIREs Comput. Mol. Sci., 2020, 11,
     e01493. DOI: 10.1002/wcms.1493
   
   for GFN2-xTB:
   * C. Bannwarth, S. Ehlert and S. Grimme., J. Chem. Theory Comput., 2019,
     15, 1652-1671. DOI: 10.1021/acs.jctc.8b01176
   for GFN1-xTB:
   * S. Grimme, C. Bannwarth, P. Shushkov, J. Chem. Theory Comput., 2017,
     13, 1989-2009. DOI: 10.1021/acs.jctc.7b00118
   for GFN0-xTB:
   * P. Pracht, E. Caldeweyher, S. Ehlert, S. Grimme, ChemRxiv, 2019, preprint.
     DOI: 10.26434/chemrxiv.8326202.v1
   for GFN-FF:
   * S. Spicher and S. Grimme, Angew. Chem. Int. Ed., 2020, 59, 15665-15673.
     DOI: 10.1002/anie.202004239
   
   for ALPB and GBSA implicit solvation:
   * S. Ehlert, M. Stahn, S. Spicher, S. Grimme, J. Chem. Theory Comput.,
     2021, 17, 4250-4261. DOI: 10.1021/acs.jctc.1c00471
   
   for DFT-D4:
   * E. Caldeweyher, C. Bannwarth and S. Grimme, J. Chem. Phys., 2017,
     147, 034112. DOI: 10.1063/1.4993215
   * E. Caldeweyher, S. Ehlert, A. Hansen, H. Neugebauer, S. Spicher,
     C. Bannwarth and S. Grimme, J. Chem. Phys., 2019, 150, 154122.
     DOI: 10.1063/1.5090222
   * E. Caldeweyher, J.-M. Mewes, S. Ehlert and S. Grimme, Phys. Chem. Chem. Phys.
     2020, 22, 8499-8512. DOI: 10.1039/D0CP00502A
   
   for sTDA-xTB:
   * S. Grimme and C. Bannwarth, J. Chem. Phys., 2016, 145, 054103.
     DOI: 10.1063/1.4959605
   
   in the mass-spec context:
   * V. Asgeirsson, C. Bauer and S. Grimme, Chem. Sci., 2017, 8, 4879.
     DOI: 10.1039/c7sc00601b
   * J. Koopman and S. Grimme, ACS Omega 2019, 4, 12, 15120-15133.
     DOI: 10.1021/acsomega.9b02011
   
   for metadynamics refer to:
   * S. Grimme, J. Chem. Theory Comput., 2019, 155, 2847-2862
     DOI: 10.1021/acs.jctc.9b00143
   
   for SPH calculations refer to:
   * S. Spicher and S. Grimme, J. Chem. Theory Comput., 2021, 17, 1701-1714
     DOI: 10.1021/acs.jctc.0c01306
   
   with help from (in alphabetical order)
   P. Atkinson, C. Bannwarth, F. Bohle, G. Brandenburg, E. Caldeweyher
   M. Checinski, S. Dohm, S. Ehlert, S. Ehrlich, I. Gerasimov, C. Hölzer
   A. Katbashev, J. Koopman, C. Lavigne, S. Lehtola, F. März, M. Müller,
   F. Musil, H. Neugebauer, J. Pisarek, C. Plett, P. Pracht, F. Pultar,
   J. Seibert, P. Shushkov, S. Spicher, M. Stahn, M. Steiner, T. Strunk,
   J. Stückrath, T. Rose, and J. Unsleber
   
 * started run on 2023/06/20 at 14:54:41.478     

           -------------------------------------------------
          |                Calculation Setup                |
           -------------------------------------------------

          program call               : /lustre/hpc/kemi/ree/PhD/git/ReactivityQM/dep/xtb-6.5.1/bin/xtb --gfn 1 /lustre/hpc/kemi/ree/PhD/git/ReactivityQM/calculations/R01/reac01prodN01/conf01/R01_reac01prodN01_conf01_gfn1.xyz --opt --vfukui --chrg 1 --uhf 0 --alpb DMSO
          hostname                   : node312
          coordinate file            : /lustre/hpc/kemi/ree/PhD/git/ReactivityQM/calculations/R01/reac01prodN01/conf01/R01_reac01prodN01_conf01_gfn1.xyz
          omp threads                :                     1

   ID    Z sym.   atoms
    1    6 C      1, 3, 5, 8, 9, 11
    2    8 O      2, 4, 10
    3    7 N      6, 7
    4    1 H      12-20

           -------------------------------------------------
          |                 G F N 1 - x T B                 |
           -------------------------------------------------

        Reference                      10.1021/acs.jctc.7b00118
      * Hamiltonian:
        H0-scaling (s, p, d)           1.850000    2.250000    2.000000
        zeta-weighting                 0.000000
      * Dispersion:
        s8                             2.400000
        a1                             0.630000
        a2                             5.000000
        s9                             0.000000
      * Repulsion:
        kExp                           1.500000
        rExp                           1.000000
      * Coulomb:
        alpha                          2.000000
        third order                    atomic
        anisotropic                    false
      * Halogen bond correction:
        rad-scale                      1.300000
        damping                        0.440000

      * Solvation model:               ALPB
        Solvent                        DMSO
        Parameter file                 internal GFN1-xTB/ALPB
        Dielectric constant                4.6680E+01
        Reference state                gsolv [1 M gas/solution]
        Free energy shift                  7.6243E-03 Eh       4.7843E+00 kcal/mol
        Temperature                        2.9815E+02 K
        Density                            1.1000E+00 kg/L
        Solvent mass                       7.8130E+01 g/mol
        Interaction kernel             P16
        Born radius scaling (c1)           1.7672E+00
        Born radii integrator          GBOBC
        Born offset                        0.0000E+00 a0       0.0000E+00 AA
        H-bond correction              true
        Ion screening                  false
        Surface tension                    1.0000E-05 Eh       1.5569E+01 dyn/cm
        Grid points                               230 per atom

          ...................................................
          :                      SETUP                      :
          :.................................................:
          :  # basis functions                  62          :
          :  # atomic orbitals                  62          :
          :  # shells                           40          :
          :  # electrons                        60          :
          :  # halogen bonds                     0          :
          :  max. iterations                   250          :
          :  Hamiltonian                  GFN1-xTB          :
          :  restarted?                      false          :
          :  GBSA solvation                   true          :
          :  PC potential                    false          :
          :  electronic temp.          300.0000000     K    :
          :  accuracy                    1.0000000          :
          :  -> integral cutoff          0.2500000E+02      :
          :  -> integral neglect         0.1000000E-07      :
          :  -> SCF convergence          0.1000000E-05 Eh   :
          :  -> wf. convergence          0.2000000E-04 e    :
          :  Broyden damping             0.4000000          :
          ...................................................

 iter      E             dE          RMSdq      gap      omega  full diag
   1    -37.6995148 -0.376995E+02  0.781E+00    3.11       0.0  T
   2    -37.8581335 -0.158619E+00  0.469E+00    2.48       1.0  T
   3    -37.8550769  0.305656E-02  0.193E+00    3.04       1.0  T
   4    -37.8730384 -0.179615E-01  0.209E-01    2.81       1.0  T
   5    -37.8735810 -0.542596E-03  0.774E-02    2.83       1.0  T
   6    -37.8736783 -0.972601E-04  0.210E-02    2.83       1.1  T
   7    -37.8736833 -0.502097E-05  0.624E-03    2.82       3.6  T
   8    -37.8736837 -0.370348E-06  0.149E-03    2.82      15.0  T
   9    -37.8736837 -0.312003E-07  0.503E-04    2.82      44.5  T
  10    -37.8736837 -0.235773E-08  0.886E-05    2.82     252.4  T
  11    -37.8736837 -0.110305E-09  0.308E-05    2.82     725.4  T

   *** convergence criteria satisfied after 11 iterations ***

         #    Occupation            Energy/Eh            Energy/eV
      -------------------------------------------------------------
         1        2.0000           -0.9575864             -26.0573
       ...           ...                  ...                  ...
        24        2.0000           -0.5721021             -15.5677
        25        2.0000           -0.5518306             -15.0161
        26        2.0000           -0.5331478             -14.5077
        27        2.0000           -0.5290632             -14.3965
        28        2.0000           -0.5224264             -14.2159
        29        2.0000           -0.5123756             -13.9424
        30        2.0000           -0.5075051             -13.8099 (HOMO)
        31                         -0.4037396             -10.9863 (LUMO)
        32                         -0.3322627              -9.0413
        33                         -0.2708641              -7.3706
        34                         -0.1980031              -5.3879
        35                         -0.1890528              -5.1444
       ...                                ...                  ...
        62                          0.6388530              17.3841
      -------------------------------------------------------------
                  HL-Gap            0.1037655 Eh            2.8236 eV
             Fermi-level           -0.4556223 Eh          -12.3981 eV

 SCC (total)                   0 d,  0 h,  0 min,  0.044 sec
 SCC setup                      ...        0 min,  0.001 sec (  1.983%)
 Dispersion                     ...        0 min,  0.000 sec (  0.292%)
 classical contributions        ...        0 min,  0.000 sec (  0.111%)
 integral evaluation            ...        0 min,  0.011 sec ( 25.544%)
 iterations                     ...        0 min,  0.011 sec ( 24.129%)
 molecular gradient             ...        0 min,  0.021 sec ( 47.235%)
 printout                       ...        0 min,  0.000 sec (  0.625%)

         :::::::::::::::::::::::::::::::::::::::::::::::::::::
         ::                     SUMMARY                     ::
         :::::::::::::::::::::::::::::::::::::::::::::::::::::
         :: total energy             -37.550077730987 Eh    ::
         :: total w/o Gsasa/hb       -37.540150778925 Eh    ::
         :: gradient norm              0.137422986664 Eh/a0 ::
         :: HOMO-LUMO gap              2.823603814435 eV    ::
         ::.................................................::
         :: SCC energy               -37.873683718133 Eh    ::
         :: -> electrostatic           0.224868355097 Eh    ::
         :: -> Gsolv                  -0.088347062111 Eh    ::
         ::    -> Gelec               -0.078420110048 Eh    ::
         ::    -> Gsasa               -0.014757836557 Eh    ::
         ::    -> Ghb                 -0.002793394509 Eh    ::
         ::    -> Gshift               0.007624279005 Eh    ::
         :: repulsion energy           0.332323749932 Eh    ::
         :: dispersion energy         -0.008717762786 Eh    ::
         :: halogen bond corr.         0.000000000000 Eh    ::
         :: add. restraining           0.000000000000 Eh    ::
         :: total charge               1.000000000000 e     ::
         :::::::::::::::::::::::::::::::::::::::::::::::::::::

      ----------------------------------------------------------- 
     |                   =====================                   |
     |                        A N C O P T                        |
     |                   =====================                   |
     |               Approximate Normal Coordinate               |
     |                Rational Function Optimizer                |
      ----------------------------------------------------------- 

          ...................................................
          :                      SETUP                      :
          :.................................................:
          :   optimization level            normal          :
          :   max. optcycles                   200          :
          :   ANC micro-cycles                  20          :
          :   degrees of freedom                54          :
          :.................................................:
          :   RF solver                   davidson          :
          :   write xtbopt.log                true          :
          :   linear?                        false          :
          :   energy convergence         0.5000000E-05 Eh   :
          :   grad. convergence          0.1000000E-02 Eh/α :
          :   maximium RF displ.         1.0000000          :
          :   Hlow (freq-cutoff)         0.1000000E-01      :
          :   Hmax (freq-cutoff)         5.0000000          :
          :   S6 in model hess.         20.0000000          :
          ...................................................

generating ANC from model Hessian ...
Using Lindh-Hessian (1995)
 Shifting diagonal of input Hessian by   8.570754168723237E-003
 Lowest  eigenvalues of input Hessian
    0.000000    0.000000    0.000000    0.000000    0.000000    0.000000
    0.010000    0.012342    0.013558    0.014490    0.015975    0.017933
    0.019037    0.027045    0.032919    0.035654    0.040788    0.048913
 Highest eigenvalues
    1.565100    1.638901    1.812478    1.899271    2.097165    2.351266
 

........................................................................
.............................. CYCLE    1 ..............................
........................................................................
   1    -37.8736837 -0.378737E+02  0.774E-06    2.82       0.0  T
   2    -37.8736837 -0.930811E-12  0.354E-06    2.82    6315.0  T
   3    -37.8736837 -0.142109E-12  0.169E-06    2.82   13269.7  T
     SCC iter.                  ...        0 min,  0.015 sec
     gradient                   ...        0 min,  0.034 sec
 * total energy  :   -37.5500777 Eh     change       -0.1310951E-10 Eh
   gradient norm :     0.1374228 Eh/α   predicted     0.0000000E+00 (-100.00%)
   displ. norm   :     0.3414354 α      lambda       -0.2122875E-01
   maximum displ.:     0.1338160 α      in ANC's #11, #7, #10, ...

........................................................................
.............................. CYCLE    2 ..............................
........................................................................
   1    -37.9000790 -0.379001E+02  0.103E-01    3.21       0.0  T
   2    -37.9002780 -0.199043E-03  0.579E-02    3.15       1.0  T
   3    -37.9003166 -0.385241E-04  0.248E-02    3.16       1.0  T
   4    -37.9003167 -0.133342E-06  0.605E-03    3.16       3.7  T
   5    -37.9003169 -0.242804E-06  0.217E-03    3.16      10.3  T
   6    -37.9003170 -0.487953E-07  0.388E-04    3.16      57.6  T
   7    -37.9003170 -0.122412E-08  0.201E-04    3.16     111.3  T
   8    -37.9003170 -0.132310E-09  0.637E-05    3.16     351.2  T
   9    -37.9003170 -0.177707E-10  0.107E-05    3.16    2081.1  T
     SCC iter.                  ...        0 min,  0.007 sec
     gradient                   ...        0 min,  0.022 sec
 * total energy  :   -37.5657938 Eh     change       -0.1571602E-01 Eh
   gradient norm :     0.0716811 Eh/α   predicted    -0.1187694E-01 ( -24.43%)
   displ. norm   :     0.4130268 α      lambda       -0.1161615E-01
   maximum displ.:     0.2254406 α      in ANC's #11, #7, #10, ...

........................................................................
.............................. CYCLE    3 ..............................
........................................................................
   1    -37.9200514 -0.379201E+02  0.114E-01    3.58       0.0  T
   2    -37.9203256 -0.274140E-03  0.649E-02    3.52       1.0  T
   3    -37.9203735 -0.479355E-04  0.267E-02    3.53       1.0  T
   4    -37.9203739 -0.439674E-06  0.581E-03    3.53       3.8  T
   5    -37.9203741 -0.140080E-06  0.170E-03    3.53      13.2  T
   6    -37.9203741 -0.298596E-07  0.385E-04    3.53      58.1  T
   7    -37.9203741 -0.105716E-08  0.197E-04    3.53     113.3  T
   8    -37.9203741 -0.747704E-10  0.565E-05    3.53     395.6  T
     SCC iter.                  ...        0 min,  0.006 sec
     gradient                   ...        0 min,  0.020 sec
 * total energy  :   -37.5729091 Eh     change       -0.7115321E-02 Eh
   gradient norm :     0.0188513 Eh/α   predicted    -0.6802153E-02 (  -4.40%)
   displ. norm   :     0.3215832 α      lambda       -0.2698090E-02
   maximum displ.:     0.1780051 α      in ANC's #11, #7, #3, ...

........................................................................
.............................. CYCLE    4 ..............................
........................................................................
   1    -37.9216542 -0.379217E+02  0.400E-02    3.66       0.0  T
   2    -37.9216962 -0.420127E-04  0.280E-02    3.64       1.0  T
   3    -37.9217019 -0.573955E-05  0.141E-02    3.64       1.6  T
   4    -37.9217020 -0.924813E-07  0.360E-03    3.64       6.2  T
   5    -37.9217021 -0.427838E-07  0.601E-04    3.64      37.2  T
   6    -37.9217021 -0.306069E-08  0.191E-04    3.64     117.0  T
   7    -37.9217021 -0.317804E-09  0.794E-05    3.64     281.8  T
     SCC iter.                  ...        0 min,  0.005 sec
     gradient                   ...        0 min,  0.022 sec
 * total energy  :   -37.5748853 Eh     change       -0.1976226E-02 Eh
   gradient norm :     0.0163250 Eh/α   predicted    -0.1488685E-02 ( -24.67%)
   displ. norm   :     0.3697369 α      lambda       -0.1950638E-02
   maximum displ.:     0.1868685 α      in ANC's #11, #7, #3, ...

........................................................................
.............................. CYCLE    5 ..............................
........................................................................
   1    -37.9205212 -0.379205E+02  0.323E-02    3.72       0.0  T
   2    -37.9205499 -0.287472E-04  0.226E-02    3.70       1.0  T
   3    -37.9205530 -0.308763E-05  0.117E-02    3.70       1.9  T
   4    -37.9205530 -0.583363E-08  0.403E-03    3.70       5.6  T
   5    -37.9205531 -0.552568E-07  0.460E-04    3.70      48.6  T
   6    -37.9205531 -0.152188E-08  0.149E-04    3.70     149.7  T
   7    -37.9205531 -0.137959E-09  0.552E-05    3.70     405.0  T
     SCC iter.                  ...        0 min,  0.006 sec
     gradient                   ...        0 min,  0.021 sec
 * total energy  :   -37.5761700 Eh     change       -0.1284724E-02 Eh
   gradient norm :     0.0158039 Eh/α   predicted    -0.1108686E-02 ( -13.70%)
   displ. norm   :     0.2368203 α      lambda       -0.7957792E-03
   maximum displ.:     0.1117343 α      in ANC's #3, #11, #2, ...

........................................................................
.............................. CYCLE    6 ..............................
........................................................................
   1    -37.9225552 -0.379226E+02  0.188E-02    3.72       0.0  T
   2    -37.9225614 -0.621760E-05  0.874E-03    3.72       2.6  T
   3    -37.9225621 -0.689539E-06  0.439E-03    3.72       5.1  T
   4    -37.9225621 -0.164709E-07  0.137E-03    3.72      16.3  T
   5    -37.9225621 -0.418535E-08  0.219E-04    3.72     102.1  T
   6    -37.9225621 -0.337735E-09  0.748E-05    3.72     298.9  T
   7    -37.9225621 -0.339355E-10  0.218E-05    3.72    1025.4  T
     SCC iter.                  ...        0 min,  0.006 sec
     gradient                   ...        0 min,  0.021 sec
 * total energy  :   -37.5767495 Eh     change       -0.5794716E-03 Eh
   gradient norm :     0.0134191 Eh/α   predicted    -0.4202056E-03 ( -27.48%)
   displ. norm   :     0.2567480 α      lambda       -0.6391806E-03
   maximum displ.:     0.1214548 α      in ANC's #5, #2, #3, ...

........................................................................
.............................. CYCLE    7 ..............................
........................................................................
   1    -37.9244271 -0.379244E+02  0.182E-02    3.71       0.0  T
   2    -37.9244289 -0.176913E-05  0.942E-03    3.71       2.4  T
   3    -37.9244289 -0.197351E-07  0.469E-03    3.71       4.8  T
   4    -37.9244290 -0.483778E-07  0.816E-04    3.71      27.4  T
   5    -37.9244290 -0.874947E-08  0.158E-04    3.71     141.5  T
   6    -37.9244290 -0.110369E-09  0.550E-05    3.71     406.6  T
     SCC iter.                  ...        0 min,  0.005 sec
     gradient                   ...        0 min,  0.021 sec
 * total energy  :   -37.5772138 Eh     change       -0.4643343E-03 Eh
   gradient norm :     0.0093942 Eh/α   predicted    -0.3406651E-03 ( -26.63%)
   displ. norm   :     0.2532850 α      lambda       -0.4539854E-03
   maximum displ.:     0.1430328 α      in ANC's #5, #2, #4, ...

........................................................................
.............................. CYCLE    8 ..............................
........................................................................
   1    -37.9257738 -0.379258E+02  0.190E-02    3.69       0.0  T
   2    -37.9257757 -0.192790E-05  0.111E-02    3.69       2.0  T
   3    -37.9257757 -0.256610E-07  0.447E-03    3.69       5.0  T
   4    -37.9257757 -0.171076E-07  0.986E-04    3.69      22.7  T
   5    -37.9257758 -0.957247E-08  0.174E-04    3.69     128.7  T
   6    -37.9257758 -0.197645E-09  0.518E-05    3.69     431.5  T
     SCC iter.                  ...        0 min,  0.005 sec
     gradient                   ...        0 min,  0.021 sec
 * total energy  :   -37.5775428 Eh     change       -0.3289286E-03 Eh
   gradient norm :     0.0062742 Eh/α   predicted    -0.2415589E-03 ( -26.56%)
   displ. norm   :     0.2470858 α      lambda       -0.2938867E-03
   maximum displ.:     0.1421074 α      in ANC's #5, #2, #4, ...

........................................................................
.............................. CYCLE    9 ..............................
........................................................................
   1    -37.9260124 -0.379260E+02  0.138E-02    3.68       0.0  T
   2    -37.9260142 -0.184273E-05  0.754E-03    3.68       3.0  T
   3    -37.9260143 -0.550593E-07  0.380E-03    3.68       5.9  T
   4    -37.9260143 -0.956144E-08  0.104E-03    3.68      21.5  T
   5    -37.9260143 -0.867421E-08  0.190E-04    3.68     117.7  T
   6    -37.9260143 -0.244263E-09  0.580E-05    3.68     385.5  T
     SCC iter.                  ...        0 min,  0.005 sec
     gradient                   ...        0 min,  0.021 sec
 * total energy  :   -37.5777425 Eh     change       -0.1997884E-03 Eh
   gradient norm :     0.0073081 Eh/α   predicted    -0.1559168E-03 ( -21.96%)
   displ. norm   :     0.1712093 α      lambda       -0.1815687E-03
   maximum displ.:     0.0923181 α      in ANC's #2, #5, #4, ...

........................................................................
.............................. CYCLE   10 ..............................
........................................................................
   1    -37.9275861 -0.379276E+02  0.101E-02    3.68       0.0  T
   2    -37.9275872 -0.114018E-05  0.469E-03    3.68       4.8  T
   3    -37.9275873 -0.611045E-07  0.261E-03    3.68       8.6  T
   4    -37.9275873 -0.133868E-07  0.752E-04    3.68      29.7  T
   5    -37.9275873 -0.185318E-08  0.140E-04    3.68     160.1  T
   6    -37.9275873 -0.105011E-09  0.513E-05    3.68     435.9  T
     SCC iter.                  ...        0 min,  0.005 sec
     gradient                   ...        0 min,  0.022 sec
 * total energy  :   -37.5778664 Eh     change       -0.1238175E-03 Eh
   gradient norm :     0.0073759 Eh/α   predicted    -0.9344810E-04 ( -24.53%)
   displ. norm   :     0.2059965 α      lambda       -0.1653732E-03
   maximum displ.:     0.1175646 α      in ANC's #2, #5, #4, ...

........................................................................
.............................. CYCLE   11 ..............................
........................................................................
   1    -37.9254771 -0.379255E+02  0.988E-03    3.69       0.0  T
   2    -37.9254781 -0.977959E-06  0.613E-03    3.69       3.6  T
   3    -37.9254781 -0.603924E-07  0.297E-03    3.69       7.5  T
   4    -37.9254781 -0.106711E-07  0.815E-04    3.69      27.4  T
   5    -37.9254781 -0.352999E-08  0.157E-04    3.69     142.1  T
   6    -37.9254781 -0.105004E-09  0.550E-05    3.69     406.5  T
     SCC iter.                  ...        0 min,  0.005 sec
     gradient                   ...        0 min,  0.020 sec
 * total energy  :   -37.5779685 Eh     change       -0.1021099E-03 Eh
   gradient norm :     0.0063818 Eh/α   predicted    -0.8620893E-04 ( -15.57%)
   displ. norm   :     0.1656970 α      lambda       -0.2079682E-03
   maximum displ.:     0.0908176 α      in ANC's #1, #2, #3, ...

........................................................................
.............................. CYCLE   12 ..............................
........................................................................
   1    -37.9278634 -0.379279E+02  0.144E-02    3.72       0.0  T
   2    -37.9278664 -0.296402E-05  0.933E-03    3.71       2.4  T
   3    -37.9278668 -0.467177E-06  0.480E-03    3.71       4.7  T
   4    -37.9278668 -0.129774E-08  0.685E-04    3.71      32.7  T
   5    -37.9278668 -0.146653E-08  0.134E-04    3.71     167.1  T
   6    -37.9278668 -0.824016E-10  0.350E-05    3.71     638.9  T
     SCC iter.                  ...        0 min,  0.005 sec
     gradient                   ...        0 min,  0.021 sec
 * total energy  :   -37.5780793 Eh     change       -0.1108130E-03 Eh
   gradient norm :     0.0061703 Eh/α   predicted    -0.1068423E-03 (  -3.58%)
   displ. norm   :     0.1633356 α      lambda       -0.1245016E-03
   maximum displ.:     0.0799581 α      in ANC's #1, #2, #5, ...

........................................................................
.............................. CYCLE   13 ..............................
........................................................................
   1    -37.9266334 -0.379266E+02  0.766E-03    3.72       0.0  T
   2    -37.9266336 -0.246024E-06  0.489E-03    3.72       4.6  T
   3    -37.9266336 -0.246630E-07  0.213E-03    3.72      10.5  T
   4    -37.9266336 -0.136769E-07  0.388E-04    3.72      57.6  T
   5    -37.9266336 -0.543430E-09  0.853E-05    3.72     262.0  T
   6    -37.9266336 -0.270575E-10  0.225E-05    3.72     994.4  T
     SCC iter.                  ...        0 min,  0.005 sec
     gradient                   ...        0 min,  0.021 sec
 * total energy  :   -37.5781671 Eh     change       -0.8779527E-04 Eh
   gradient norm :     0.0067314 Eh/α   predicted    -0.6391463E-04 ( -27.20%)
   displ. norm   :     0.1974131 α      lambda       -0.1899258E-03
   maximum displ.:     0.1058769 α      in ANC's #1, #7, #3, ...

........................................................................
.............................. CYCLE   14 ..............................
........................................................................
   1    -37.9251996 -0.379252E+02  0.126E-02    3.71       0.0  T
   2    -37.9252004 -0.730486E-06  0.619E-03    3.71       3.6  T
   3    -37.9252004 -0.385278E-07  0.334E-03    3.71       6.7  T
   4    -37.9252004 -0.375576E-07  0.485E-04    3.71      46.1  T
   5    -37.9252004 -0.100126E-08  0.132E-04    3.71     169.2  T
   6    -37.9252004 -0.986020E-10  0.460E-05    3.71     485.6  T
     SCC iter.                  ...        0 min,  0.005 sec
     gradient                   ...        0 min,  0.021 sec
 * total energy  :   -37.5782824 Eh     change       -0.1153236E-03 Eh
   gradient norm :     0.0074676 Eh/α   predicted    -0.9866595E-04 ( -14.44%)
   displ. norm   :     0.1637318 α      lambda       -0.1218444E-03
   maximum displ.:     0.0809205 α      in ANC's #7, #1, #2, ...

........................................................................
.............................. CYCLE   15 ..............................
........................................................................
   1    -37.9253560 -0.379254E+02  0.897E-03    3.71       0.0  T
   2    -37.9253571 -0.103657E-05  0.406E-03    3.71       5.5  T
   3    -37.9253572 -0.755384E-07  0.226E-03    3.71       9.9  T
   4    -37.9253572 -0.564825E-08  0.592E-04    3.71      37.7  T
   5    -37.9253572 -0.244465E-08  0.146E-04    3.71     153.1  T
   6    -37.9253572 -0.694484E-10  0.387E-05    3.71     577.3  T
     SCC iter.                  ...        0 min,  0.005 sec
     gradient                   ...        0 min,  0.021 sec
 * total energy  :   -37.5783695 Eh     change       -0.8710814E-04 Eh
   gradient norm :     0.0065854 Eh/α   predicted    -0.6256552E-04 ( -28.17%)
   displ. norm   :     0.1663209 α      lambda       -0.1573560E-03
   maximum displ.:     0.0809880 α      in ANC's #7, #1, #3, ...

........................................................................
.............................. CYCLE   16 ..............................
........................................................................
   1    -37.9268530 -0.379269E+02  0.116E-02    3.70       0.0  T
   2    -37.9268554 -0.246906E-05  0.738E-03    3.70       3.0  T
   3    -37.9268557 -0.232632E-06  0.380E-03    3.70       5.9  T
   4    -37.9268557  0.260591E-08  0.119E-03    3.70      18.8  T
   5    -37.9268557 -0.643286E-08  0.174E-04    3.70     128.7  T
   6    -37.9268557 -0.126391E-09  0.455E-05    3.70     491.8  T
     SCC iter.                  ...        0 min,  0.005 sec
     gradient                   ...        0 min,  0.021 sec
 * total energy  :   -37.5784668 Eh     change       -0.9731930E-04 Eh
   gradient norm :     0.0037380 Eh/α   predicted    -0.8085565E-04 ( -16.92%)
   displ. norm   :     0.2009052 α      lambda       -0.8124740E-04
   maximum displ.:     0.1069789 α      in ANC's #5, #2, #1, ...

........................................................................
.............................. CYCLE   17 ..............................
........................................................................
   1    -37.9252216 -0.379252E+02  0.864E-03    3.69       0.0  T
   2    -37.9252223 -0.713329E-06  0.472E-03    3.69       4.7  T
   3    -37.9252224 -0.465400E-07  0.226E-03    3.69       9.9  T
   4    -37.9252224 -0.100330E-07  0.593E-04    3.69      37.7  T
   5    -37.9252224 -0.143464E-08  0.157E-04    3.69     142.9  T
   6    -37.9252224 -0.110859E-09  0.494E-05    3.69     453.0  T
     SCC iter.                  ...        0 min,  0.005 sec
     gradient                   ...        0 min,  0.021 sec
 * total energy  :   -37.5785037 Eh     change       -0.3691198E-04 Eh
   gradient norm :     0.0073682 Eh/α   predicted    -0.4228159E-04 (  14.55%)
   displ. norm   :     0.0682686 α      lambda       -0.1004231E-03
   maximum displ.:     0.0458877 α      in ANC's #5, #4, #10, ...

........................................................................
.............................. CYCLE   18 ..............................
........................................................................
   1    -37.9282483 -0.379282E+02  0.963E-03    3.70       0.0  T
   2    -37.9282492 -0.914827E-06  0.501E-03    3.70       4.5  T
   3    -37.9282493 -0.348908E-07  0.257E-03    3.70       8.7  T
   4    -37.9282493 -0.823724E-08  0.504E-04    3.70      44.4  T
   5    -37.9282493 -0.151987E-08  0.121E-04    3.70     185.2  T
   6    -37.9282493 -0.168697E-09  0.262E-05    3.70     853.2  T
     SCC iter.                  ...        0 min,  0.005 sec
     gradient                   ...        0 min,  0.021 sec
 * total energy  :   -37.5785536 Eh     change       -0.4989212E-04 Eh
   gradient norm :     0.0052447 Eh/α   predicted    -0.5045001E-04 (   1.12%)
   displ. norm   :     0.1071219 α      lambda       -0.6552890E-04
   maximum displ.:     0.0675423 α      in ANC's #5, #2, #1, ...

........................................................................
.............................. CYCLE   19 ..............................
........................................................................
   1    -37.9280579 -0.379281E+02  0.569E-03    3.70       0.0  T
   2    -37.9280581 -0.219874E-06  0.325E-03    3.70       6.9  T
   3    -37.9280581 -0.154314E-07  0.163E-03    3.70      13.8  T
   4    -37.9280581 -0.605490E-08  0.296E-04    3.70      75.5  T
   5    -37.9280581 -0.465278E-09  0.963E-05    3.70     232.1  T
   6    -37.9280581 -0.498375E-10  0.314E-05    3.70     712.3  T
     SCC iter.                  ...        0 min,  0.004 sec
     gradient                   ...        0 min,  0.022 sec
 * total energy  :   -37.5786022 Eh     change       -0.4857019E-04 Eh
   gradient norm :     0.0037501 Eh/α   predicted    -0.3314246E-04 ( -31.76%)
   displ. norm   :     0.2260115 α      lambda       -0.1040003E-03
   maximum displ.:     0.1627368 α      in ANC's #5, #2, #7, ...

........................................................................
.............................. CYCLE   20 ..............................
........................................................................
   1    -37.9269243 -0.379269E+02  0.997E-03    3.71       0.0  T
   2    -37.9269253 -0.100266E-05  0.531E-03    3.71       4.2  T
   3    -37.9269253 -0.618671E-07  0.233E-03    3.71       9.6  T
   4    -37.9269253 -0.125393E-07  0.770E-04    3.71      29.0  T
   5    -37.9269253 -0.253001E-08  0.216E-04    3.71     103.4  T
   6    -37.9269253 -0.981188E-10  0.580E-05    3.71     385.3  T
   7    -37.9269253 -0.114468E-10  0.103E-05    3.71    2177.7  T
     SCC iter.                  ...        0 min,  0.004 sec
     gradient                   ...        0 min,  0.019 sec
 * total energy  :   -37.5786664 Eh     change       -0.6422815E-04 Eh
   gradient norm :     0.0044846 Eh/α   predicted    -0.5466314E-04 ( -14.89%)
   displ. norm   :     0.1083962 α      lambda       -0.8042727E-04
   maximum displ.:     0.0752084 α      in ANC's #5, #4, #1, ...
 * RMSD in coord.:     0.6708651 α      energy gain  -0.2858871E-01 Eh

generating ANC from model Hessian ...
Using Lindh-Hessian (1995)
 Shifting diagonal of input Hessian by   8.579179491414232E-003
 Lowest  eigenvalues of input Hessian
    0.000000    0.000000    0.000000    0.000000    0.000000    0.000000
    0.010000    0.012476    0.012946    0.014833    0.017168    0.018841
    0.020297    0.029439    0.033918    0.035600    0.048515    0.051128
 Highest eigenvalues
    1.643871    1.837998    1.979267    2.012502    2.185275    2.502994
 

........................................................................
.............................. CYCLE   21 ..............................
........................................................................
   1    -37.9281624 -0.379282E+02  0.634E-03    3.72       0.0  T
   2    -37.9281629 -0.458992E-06  0.439E-03    3.72       5.1  T
   3    -37.9281629 -0.608601E-07  0.229E-03    3.72       9.8  T
   4    -37.9281629 -0.205669E-08  0.382E-04    3.72      58.5  T
   5    -37.9281629 -0.561606E-09  0.109E-04    3.72     204.3  T
   6    -37.9281629 -0.400107E-10  0.233E-05    3.72     961.7  T
     SCC iter.                  ...        0 min,  0.005 sec
     gradient                   ...        0 min,  0.022 sec
 * total energy  :   -37.5787115 Eh     change       -0.4504542E-04 Eh
   gradient norm :     0.0056048 Eh/α   predicted     0.0000000E+00 (-100.00%)
   displ. norm   :     0.0351524 α      lambda       -0.3487054E-04
   maximum displ.:     0.0202841 α      in ANC's #5, #8, #1, ...

........................................................................
.............................. CYCLE   22 ..............................
........................................................................
   1    -37.9280739 -0.379281E+02  0.482E-03    3.71       0.0  T
   2    -37.9280746 -0.690449E-06  0.235E-03    3.71       9.5  T
   3    -37.9280746 -0.161426E-07  0.128E-03    3.71      17.5  T
   4    -37.9280746  0.615465E-09  0.456E-04    3.71      49.1  T
   5    -37.9280746 -0.117264E-08  0.462E-05    3.71     484.0  T
   6    -37.9280746 -0.220837E-10  0.159E-05    3.71    1408.0  T
     SCC iter.                  ...        0 min,  0.005 sec
     gradient                   ...        0 min,  0.022 sec
 * total energy  :   -37.5787500 Eh     change       -0.3850570E-04 Eh
   gradient norm :     0.0024670 Eh/α   predicted    -0.2835095E-04 ( -26.37%)
   displ. norm   :     0.0614660 α      lambda       -0.4505331E-04
   maximum displ.:     0.0415609 α      in ANC's #5, #8, #1, ...

........................................................................
.............................. CYCLE   23 ..............................
........................................................................
   1    -37.9280273 -0.379280E+02  0.596E-03    3.71       0.0  T
   2    -37.9280282 -0.983220E-06  0.311E-03    3.71       7.2  T
   3    -37.9280283 -0.349417E-07  0.162E-03    3.71      13.8  T
   4    -37.9280283  0.107644E-08  0.643E-04    3.71      34.7  T
   5    -37.9280283 -0.199348E-08  0.636E-05    3.71     351.6  T
   6    -37.9280283 -0.282512E-10  0.239E-05    3.71     936.4  T
     SCC iter.                  ...        0 min,  0.005 sec
     gradient                   ...        0 min,  0.022 sec
 * total energy  :   -37.5787836 Eh     change       -0.3363693E-04 Eh
   gradient norm :     0.0025707 Eh/α   predicted    -0.2267933E-04 ( -32.58%)
   displ. norm   :     0.1160224 α      lambda       -0.5557725E-04
   maximum displ.:     0.0847545 α      in ANC's #5, #8, #4, ...

........................................................................
.............................. CYCLE   24 ..............................
........................................................................
   1    -37.9278469 -0.379278E+02  0.646E-03    3.70       0.0  T
   2    -37.9278479 -0.992958E-06  0.372E-03    3.71       6.0  T
   3    -37.9278479 -0.643904E-07  0.183E-03    3.70      12.2  T
   4    -37.9278479  0.830283E-09  0.716E-04    3.70      31.2  T
   5    -37.9278479 -0.214504E-08  0.902E-05    3.70     247.9  T
   6    -37.9278479 -0.385896E-10  0.328E-05    3.70     682.7  T
     SCC iter.                  ...        0 min,  0.005 sec
     gradient                   ...        0 min,  0.022 sec
 * total energy  :   -37.5788262 Eh     change       -0.4259979E-04 Eh
   gradient norm :     0.0050590 Eh/α   predicted    -0.2825824E-04 ( -33.67%)
   displ. norm   :     0.2101277 α      lambda       -0.8266696E-04
   maximum displ.:     0.1612182 α      in ANC's #5, #8, #4, ...

........................................................................
.............................. CYCLE   25 ..............................
........................................................................
   1    -37.9269450 -0.379269E+02  0.736E-03    3.70       0.0  T
   2    -37.9269459 -0.884456E-06  0.442E-03    3.70       5.1  T
   3    -37.9269460 -0.102663E-06  0.209E-03    3.70      10.7  T
   4    -37.9269460 -0.817515E-09  0.643E-04    3.70      34.8  T
   5    -37.9269460 -0.168730E-08  0.135E-04    3.70     165.8  T
   6    -37.9269460 -0.556071E-10  0.386E-05    3.70     579.3  T
     SCC iter.                  ...        0 min,  0.005 sec
     gradient                   ...        0 min,  0.022 sec
 * total energy  :   -37.5788867 Eh     change       -0.6045911E-04 Eh
   gradient norm :     0.0074509 Eh/α   predicted    -0.4316053E-04 ( -28.61%)
   displ. norm   :     0.1669424 α      lambda       -0.7537500E-04
   maximum displ.:     0.1310157 α      in ANC's #5, #4, #8, ...

........................................................................
.............................. CYCLE   26 ..............................
........................................................................
   1    -37.9265930 -0.379266E+02  0.438E-03    3.69       0.0  T
   2    -37.9265932 -0.261596E-06  0.220E-03    3.70      10.1  T
   3    -37.9265933 -0.279940E-07  0.105E-03    3.69      21.2  T
   4    -37.9265933 -0.166325E-08  0.310E-04    3.70      72.2  T
   5    -37.9265933 -0.354923E-09  0.850E-05    3.70     263.2  T
   6    -37.9265933 -0.134932E-10  0.179E-05    3.70    1245.8  T
     SCC iter.                  ...        0 min,  0.005 sec
     gradient                   ...        0 min,  0.022 sec
 * total energy  :   -37.5789472 Eh     change       -0.6055434E-04 Eh
   gradient norm :     0.0068947 Eh/α   predicted    -0.3874156E-04 ( -36.02%)
   displ. norm   :     0.2272812 α      lambda       -0.1409356E-03
   maximum displ.:     0.1804744 α      in ANC's #5, #4, #8, ...

........................................................................
.............................. CYCLE   27 ..............................
........................................................................
   1    -37.9269469 -0.379269E+02  0.877E-03    3.70       0.0  T
   2    -37.9269490 -0.203929E-05  0.429E-03    3.70       5.2  T
   3    -37.9269491 -0.674398E-07  0.229E-03    3.70       9.8  T
   4    -37.9269491  0.848956E-09  0.824E-04    3.70      27.1  T
   5    -37.9269491 -0.445176E-08  0.145E-04    3.70     154.2  T
   6    -37.9269491 -0.577813E-10  0.418E-05    3.70     534.3  T
     SCC iter.                  ...        0 min,  0.006 sec
     gradient                   ...        0 min,  0.022 sec
 * total energy  :   -37.5790436 Eh     change       -0.9636478E-04 Eh
   gradient norm :     0.0057565 Eh/α   predicted    -0.7411168E-04 ( -23.09%)
   displ. norm   :     0.1388618 α      lambda       -0.9339425E-04
   maximum displ.:     0.1085136 α      in ANC's #5, #4, #8, ...

........................................................................
.............................. CYCLE   28 ..............................
........................................................................
   1    -37.9279468 -0.379279E+02  0.616E-03    3.70       0.0  T
   2    -37.9279476 -0.759021E-06  0.408E-03    3.70       5.5  T
   3    -37.9279477 -0.605135E-07  0.219E-03    3.70      10.2  T
   4    -37.9279477  0.376481E-09  0.608E-04    3.70      36.8  T
   5    -37.9279477 -0.174640E-08  0.856E-05    3.70     261.2  T
   6    -37.9279477 -0.368701E-10  0.309E-05    3.70     723.5  T
     SCC iter.                  ...        0 min,  0.005 sec
     gradient                   ...        0 min,  0.022 sec
 * total energy  :   -37.5791116 Eh     change       -0.6800174E-04 Eh
   gradient norm :     0.0058201 Eh/α   predicted    -0.4760640E-04 ( -29.99%)
   displ. norm   :     0.2972089 α      lambda       -0.1072932E-03
   maximum displ.:     0.2413432 α      in ANC's #5, #4, #8, ...

........................................................................
.............................. CYCLE   29 ..............................
........................................................................
   1    -37.9254469 -0.379254E+02  0.117E-02    3.71       0.0  T
   2    -37.9254476 -0.769366E-06  0.638E-03    3.71       3.5  T
   3    -37.9254477 -0.542911E-07  0.297E-03    3.71       7.5  T
   4    -37.9254477 -0.272993E-07  0.629E-04    3.71      35.6  T
   5    -37.9254477 -0.121670E-08  0.135E-04    3.71     165.3  T
   6    -37.9254477 -0.159247E-09  0.474E-05    3.71     471.3  T
     SCC iter.                  ...        0 min,  0.005 sec
     gradient                   ...        0 min,  0.022 sec
 * total energy  :   -37.5791387 Eh     change       -0.2710887E-04 Eh
   gradient norm :     0.0089363 Eh/α   predicted    -0.5847233E-04 ( 115.69%)
   displ. norm   :     0.0572321 α      lambda       -0.1963119E-03
   maximum displ.:     0.0262038 α      in ANC's #2, #7, #34, ...

........................................................................
.............................. CYCLE   30 ..............................
........................................................................
   1    -37.9294700 -0.379295E+02  0.116E-02    3.72       0.0  T
   2    -37.9294708 -0.748830E-06  0.711E-03    3.72       3.1  T
   3    -37.9294709 -0.106512E-06  0.385E-03    3.72       5.8  T
   4    -37.9294709 -0.156409E-07  0.328E-04    3.72      68.1  T
   5    -37.9294709 -0.113496E-08  0.777E-05    3.72     287.7  T
   6    -37.9294709 -0.359037E-10  0.260E-05    3.72     861.6  T
     SCC iter.                  ...        0 min,  0.005 sec
     gradient                   ...        0 min,  0.022 sec
 * total energy  :   -37.5792251 Eh     change       -0.8640494E-04 Eh
   gradient norm :     0.0048387 Eh/α   predicted    -0.9847816E-04 (  13.97%)
   displ. norm   :     0.1172158 α      lambda       -0.5222685E-04
   maximum displ.:     0.1000659 α      in ANC's #5, #4, #8, ...

........................................................................
.............................. CYCLE   31 ..............................
........................................................................
   1    -37.9289196 -0.379289E+02  0.484E-03    3.72       0.0  T
   2    -37.9289197 -0.148622E-06  0.240E-03    3.72       9.3  T
   3    -37.9289197 -0.421800E-08  0.977E-04    3.72      22.9  T
   4    -37.9289197 -0.148329E-08  0.228E-04    3.72      98.2  T
   5    -37.9289197 -0.314145E-09  0.622E-05    3.72     359.6  T
   6    -37.9289197 -0.161293E-10  0.196E-05    3.72    1139.6  T
     SCC iter.                  ...        0 min,  0.005 sec
     gradient                   ...        0 min,  0.022 sec
 * total energy  :   -37.5792703 Eh     change       -0.4515876E-04 Eh
   gradient norm :     0.0042285 Eh/α   predicted    -0.2647356E-04 ( -41.38%)
   displ. norm   :     0.3318143 α      lambda       -0.1385891E-03
   maximum displ.:     0.2849732 α      in ANC's #5, #4, #34, ...

........................................................................
.............................. CYCLE   32 ..............................
........................................................................
   1    -37.9258951 -0.379259E+02  0.172E-02    3.71       0.0  T
   2    -37.9258974 -0.227336E-05  0.911E-03    3.71       2.5  T
   3    -37.9258974 -0.660343E-07  0.410E-03    3.71       5.5  T
   4    -37.9258974 -0.244040E-07  0.933E-04    3.71      24.0  T
   5    -37.9258975 -0.631928E-08  0.216E-04    3.71     103.3  T
   6    -37.9258975 -0.194447E-09  0.629E-05    3.71     355.6  T
   7    -37.9258975 -0.190212E-10  0.144E-05    3.71    1551.7  T
     SCC iter.                  ...        0 min,  0.006 sec
     gradient                   ...        0 min,  0.022 sec
 * total energy  :   -37.5792595 Eh     change        0.1078661E-04 Eh
   gradient norm :     0.0102082 Eh/α   predicted    -0.7692680E-04 (-813.17%)
   displ. norm   :     0.1982739 α      lambda       -0.2324193E-03
   maximum displ.:     0.1614799 α      in ANC's #5, #4, #8, ...

........................................................................
.............................. CYCLE   33 ..............................
........................................................................
   1    -37.9288103 -0.379288E+02  0.125E-02    3.71       0.0  T
   2    -37.9288105 -0.272955E-06  0.735E-03    3.71       3.0  T
   3    -37.9288105  0.994994E-08  0.277E-03    3.71       8.1  T
   4    -37.9288106 -0.508729E-07  0.358E-04    3.71      62.4  T
   5    -37.9288106 -0.566061E-09  0.803E-05    3.71     278.4  T
   6    -37.9288106 -0.466258E-10  0.290E-05    3.71     771.7  T
     SCC iter.                  ...        0 min,  0.005 sec
     gradient                   ...        0 min,  0.022 sec
 * total energy  :   -37.5793529 Eh     change       -0.9337946E-04 Eh
   gradient norm :     0.0034847 Eh/α   predicted    -0.1207874E-03 (  29.35%)
   displ. norm   :     0.0567909 α      lambda       -0.3296016E-04
   maximum displ.:     0.0431818 α      in ANC's #5, #2, #1, ...

........................................................................
.............................. CYCLE   34 ..............................
........................................................................
   1    -37.9289854 -0.379290E+02  0.205E-03    3.71       0.0  T
   2    -37.9289854 -0.228763E-07  0.102E-03    3.71      21.9  T
   3    -37.9289854 -0.137379E-08  0.474E-04    3.71      47.2  T
   4    -37.9289854 -0.771301E-09  0.969E-05    3.71     230.8  T
   5    -37.9289854 -0.293028E-10  0.239E-05    3.71     937.5  T
     SCC iter.                  ...        0 min,  0.005 sec
     gradient                   ...        0 min,  0.022 sec
 * total energy  :   -37.5793832 Eh     change       -0.3032449E-04 Eh
   gradient norm :     0.0029623 Eh/α   predicted    -0.1653730E-04 ( -45.47%)
   displ. norm   :     0.3720511 α      lambda       -0.1821229E-03
   maximum displ.:     0.2810766 α      in ANC's #5, #1, #2, ...

........................................................................
.............................. CYCLE   35 ..............................
........................................................................
   1    -37.9268511 -0.379269E+02  0.140E-02    3.70       0.0  T
   2    -37.9268515 -0.426214E-06  0.759E-03    3.70       2.9  T
   3    -37.9268515 -0.575476E-08  0.230E-03    3.70       9.7  T
   4    -37.9268516 -0.400414E-07  0.536E-04    3.70      41.7  T
   5    -37.9268516 -0.130616E-08  0.159E-04    3.70     140.3  T
   6    -37.9268516 -0.974083E-10  0.400E-05    3.70     559.1  T
     SCC iter.                  ...        0 min,  0.005 sec
     gradient                   ...        0 min,  0.022 sec
 * total energy  :   -37.5794503 Eh     change       -0.6712302E-04 Eh
   gradient norm :     0.0065195 Eh/α   predicted    -0.1036649E-03 (  54.44%)
   displ. norm   :     0.1105065 α      lambda       -0.1056955E-03
   maximum displ.:     0.0951156 α      in ANC's #5, #4, #34, ...

........................................................................
.............................. CYCLE   36 ..............................
........................................................................
   1    -37.9290020 -0.379290E+02  0.908E-03    3.70       0.0  T
   2    -37.9290022 -0.201534E-06  0.523E-03    3.70       4.3  T
   3    -37.9290022  0.132768E-08  0.151E-03    3.70      14.8  T
   4    -37.9290022 -0.931833E-08  0.257E-04    3.70      87.1  T
   5    -37.9290022 -0.697554E-09  0.716E-05    3.70     312.5  T
   6    -37.9290022 -0.271072E-10  0.212E-05    3.70    1055.8  T
     SCC iter.                  ...        0 min,  0.005 sec
     gradient                   ...        0 min,  0.022 sec
 * total energy  :   -37.5794908 Eh     change       -0.4045674E-04 Eh
   gradient norm :     0.0016709 Eh/α   predicted    -0.5349739E-04 (  32.23%)
   displ. norm   :     0.1153138 α      lambda       -0.1991564E-04
   maximum displ.:     0.0737962 α      in ANC's #5, #1, #2, ...

........................................................................
.............................. CYCLE   37 ..............................
........................................................................
   1    -37.9287990 -0.379288E+02  0.404E-03    3.71       0.0  T
   2    -37.9287991 -0.647904E-07  0.233E-03    3.71       9.6  T
   3    -37.9287991 -0.420472E-08  0.951E-04    3.71      23.5  T
   4    -37.9287991 -0.458900E-08  0.158E-04    3.71     141.5  T
   5    -37.9287991 -0.129056E-09  0.522E-05    3.71     428.5  T
     SCC iter.                  ...        0 min,  0.005 sec
     gradient                   ...        0 min,  0.022 sec
 * total energy  :   -37.5795122 Eh     change       -0.2139385E-04 Eh
   gradient norm :     0.0012382 Eh/α   predicted    -0.1001758E-04 ( -53.18%)
   displ. norm   :     0.0992002 α      lambda       -0.1290905E-04
   maximum displ.:     0.0608194 α      in ANC's #5, #1, #3, ...

........................................................................
.............................. CYCLE   38 ..............................
........................................................................
   1    -37.9286278 -0.379286E+02  0.366E-03    3.71       0.0  T
   2    -37.9286279 -0.974773E-07  0.209E-03    3.71      10.7  T
   3    -37.9286279 -0.113855E-07  0.103E-03    3.71      21.7  T
   4    -37.9286279 -0.141483E-08  0.187E-04    3.71     119.6  T
   5    -37.9286279 -0.182794E-09  0.415E-05    3.71     539.5  T
     SCC iter.                  ...        0 min,  0.004 sec
     gradient                   ...        0 min,  0.022 sec
 * total energy  :   -37.5795234 Eh     change       -0.1123772E-04 Eh
   gradient norm :     0.0013947 Eh/α   predicted    -0.6484592E-05 ( -42.30%)
   displ. norm   :     0.0379644 α      lambda       -0.7642692E-05
   maximum displ.:     0.0248653 α      in ANC's #1, #3, #6, ...

........................................................................
.............................. CYCLE   39 ..............................
........................................................................
   1    -37.9290869 -0.379291E+02  0.188E-03    3.71       0.0  T
   2    -37.9290869 -0.257314E-07  0.102E-03    3.71      21.9  T
   3    -37.9290870 -0.271004E-08  0.536E-04    3.71      41.7  T
   4    -37.9290870 -0.349388E-09  0.108E-04    3.71     207.8  T
   5    -37.9290870 -0.710756E-10  0.231E-05    3.71     970.0  T
     SCC iter.                  ...        0 min,  0.004 sec
     gradient                   ...        0 min,  0.016 sec
 * total energy  :   -37.5795311 Eh     change       -0.7676949E-05 Eh
   gradient norm :     0.0011354 Eh/α   predicted    -0.3827755E-05 ( -50.14%)
   displ. norm   :     0.0684694 α      lambda       -0.1048163E-04
   maximum displ.:     0.0343935 α      in ANC's #2, #1, #8, ...

........................................................................
.............................. CYCLE   40 ..............................
........................................................................
   1    -37.9291836 -0.379292E+02  0.199E-03    3.71       0.0  T
   2    -37.9291837 -0.895337E-07  0.768E-04    3.71      29.1  T
   3    -37.9291837 -0.628380E-08  0.353E-04    3.71      63.3  T
   4    -37.9291837 -0.297682E-09  0.167E-04    3.71     134.0  T
   5    -37.9291837 -0.462208E-10  0.360E-05    3.71     621.9  T
     SCC iter.                  ...        0 min,  0.004 sec
     gradient                   ...        0 min,  0.022 sec
 * total energy  :   -37.5795423 Eh     change       -0.1120061E-04 Eh
   gradient norm :     0.0013679 Eh/α   predicted    -0.5257028E-05 ( -53.06%)
   displ. norm   :     0.1061758 α      lambda       -0.1216150E-04
   maximum displ.:     0.0582864 α      in ANC's #2, #1, #8, ...

........................................................................
.............................. CYCLE   41 ..............................
........................................................................
   1    -37.9285393 -0.379285E+02  0.255E-03    3.70       0.0  T
   2    -37.9285395 -0.127914E-06  0.135E-03    3.70      16.6  T
   3    -37.9285395 -0.121486E-07  0.707E-04    3.70      31.6  T
   4    -37.9285395 -0.497536E-09  0.212E-04    3.70     105.6  T
   5    -37.9285395 -0.150330E-09  0.471E-05    3.70     474.5  T
   6    -37.9285395 -0.177423E-10  0.141E-05    3.70    1580.3  T
     SCC iter.                  ...        0 min,  0.004 sec
     gradient                   ...        0 min,  0.022 sec
 * total energy  :   -37.5795513 Eh     change       -0.9014915E-05 Eh
   gradient norm :     0.0020670 Eh/α   predicted    -0.6115340E-05 ( -32.16%)
   displ. norm   :     0.0285919 α      lambda       -0.7235286E-05
   maximum displ.:     0.0215275 α      in ANC's #2, #5, #3, ...

........................................................................
.............................. CYCLE   42 ..............................
........................................................................
   1    -37.9288789 -0.379289E+02  0.179E-03    3.70       0.0  T
   2    -37.9288789 -0.473074E-07  0.881E-04    3.70      25.4  T
   3    -37.9288789 -0.282044E-08  0.464E-04    3.70      48.2  T
   4    -37.9288789 -0.148091E-09  0.122E-04    3.70     182.7  T
   5    -37.9288789 -0.866649E-10  0.246E-05    3.70     908.5  T
     SCC iter.                  ...        0 min,  0.004 sec
     gradient                   ...        0 min,  0.022 sec
 * total energy  :   -37.5795564 Eh     change       -0.5079682E-05 Eh
   gradient norm :     0.0011932 Eh/α   predicted    -0.3622200E-05 ( -28.69%)
   displ. norm   :     0.0457524 α      lambda       -0.5257432E-05
   maximum displ.:     0.0296186 α      in ANC's #2, #3, #1, ...
 * RMSD in coord.:     0.4252669 α      energy gain  -0.8899412E-03 Eh

generating ANC from model Hessian ...
Using Lindh-Hessian (1995)
 Shifting diagonal of input Hessian by   8.583074672707452E-003
 Lowest  eigenvalues of input Hessian
    0.000000    0.000000    0.000000    0.000000    0.000000    0.000000
    0.010000    0.012535    0.013361    0.014797    0.017684    0.019218
    0.020869    0.029195    0.034322    0.036162    0.048257    0.052023
 Highest eigenvalues
    1.646097    1.848265    1.974758    2.021654    2.191967    2.504013
 

........................................................................
.............................. CYCLE   43 ..............................
........................................................................
   1    -37.9291733 -0.379292E+02  0.305E-03    3.71       0.0  T
   2    -37.9291735 -0.188473E-06  0.135E-03    3.70      16.5  T
   3    -37.9291735 -0.155547E-07  0.691E-04    3.70      32.4  T
   4    -37.9291735 -0.394785E-09  0.241E-04    3.70      92.7  T
   5    -37.9291735 -0.136467E-09  0.454E-05    3.70     492.6  T
   6    -37.9291735 -0.340989E-10  0.124E-05    3.70    1796.7  T
     SCC iter.                  ...        0 min,  0.005 sec
     gradient                   ...        0 min,  0.024 sec
 * total energy  :   -37.5795606 Eh     change       -0.4223845E-05 Eh
   gradient norm :     0.0010780 Eh/α   predicted     0.0000000E+00 (-100.00%)
   displ. norm   :     0.0099995 α      lambda       -0.1713417E-05
   maximum displ.:     0.0047195 α      in ANC's #3, #4, #2, ...

........................................................................
.............................. CYCLE   44 ..............................
........................................................................
   1    -37.9290085 -0.379290E+02  0.110E-03    3.71       0.0  T
   2    -37.9290085 -0.162892E-07  0.598E-04    3.71      37.4  T
   3    -37.9290085 -0.940837E-09  0.338E-04    3.71      66.1  T
   4    -37.9290085 -0.252740E-10  0.552E-05    3.71     404.9  T
   5    -37.9290085 -0.345040E-10  0.829E-06    3.71    2697.5  T
     SCC iter.                  ...        0 min,  0.004 sec
     gradient                   ...        0 min,  0.022 sec
 * total energy  :   -37.5795625 Eh     change       -0.1884208E-05 Eh
   gradient norm :     0.0004010 Eh/α   predicted    -0.1017080E-05 ( -46.02%)
   displ. norm   :     0.0145333 α      lambda       -0.1112321E-05
   maximum displ.:     0.0067051 α      in ANC's #2, #3, #4, ...

   *** GEOMETRY OPTIMIZATION CONVERGED AFTER 44 ITERATIONS ***

------------------------------------------------------------------------
 total energy gain   :        -0.0294848 Eh      -18.5020 kcal/mol
 total RMSD          :         0.8504267 a0        0.4500 Å
 total power (kW/mol):        -1.7593685 (step)  -44.8965 (real)
------------------------------------------------------------------------

 ANCopt (total)                0 d,  0 h,  0 min,  1.724 sec
 optimizer setup                ...        0 min,  0.001 sec (  0.042%)
 model hessian                  ...        0 min,  0.020 sec (  1.150%)
 ANC generation                 ...        0 min,  0.002 sec (  0.109%)
 coordinate transformation      ...        0 min,  0.001 sec (  0.035%)
 single point calculation       ...        0 min,  1.670 sec ( 96.835%)
 optimization log               ...        0 min,  0.022 sec (  1.268%)
 hessian update                 ...        0 min,  0.001 sec (  0.036%)
 rational function              ...        0 min,  0.005 sec (  0.315%)

================
 final structure:
================
20
 xtb: 6.5.1 (579679a)
C            3.86472479559695       -0.66651486144480        0.21721761419888
O            2.48775719762163       -1.04344042735601        0.01722630280546
C            1.59645672822438       -0.08874015735926        0.08249815472232
O            1.80358185380952        1.07731267854327        0.29141796165558
C            0.22134872919391       -0.63878371115318       -0.14213538513985
N           -0.16167934985755       -1.83772914839993       -0.36831859045931
N           -1.51865353917409       -1.84875724795103       -0.49649830968047
C           -1.96381916067877       -0.65833264270561       -0.34906038203873
C           -3.34968552062965       -0.17153421011966       -0.39351277111404
O           -0.89083459006677        0.20684227575597       -0.11226882730017
C           -0.89218180592861        1.65659584105557        0.10581405942892
H            3.99385517800062       -0.29838134127370        1.23586075294040
H            4.45126236029982       -1.56709329091753        0.05194265768827
H            4.13520189179649        0.11385735289915       -0.49529995321868
H           -4.00827433476024       -1.01555751065075       -0.59231423190993
H           -3.62179108208863        0.28738457407317        0.55768047270687
H           -3.46751798171291        0.57625943116421       -1.17839041135051
H           -0.47492217235560        1.83602493802186        1.09431146645696
H           -0.27878628115461        2.10187120835792       -0.67451777611828
H           -1.92604391613590        1.97871624946017        0.03925919572648
 
 Bond Distances (Angstroems)
 ---------------------------
C1-O2=1.4416         C1-H12=1.0908        C1-H13=1.0874        C1-H14=1.0908        O2-C1=1.4416         O2-C3=1.3077         
C3-O2=1.3077         C3-O4=1.2026         C3-C5=1.4980         O4-C3=1.2026         C5-C3=1.4980         C5-N6=1.2788         
C5-O10=1.3975        N6-C5=1.2788         N6-N7=1.3631         N7-N6=1.3631         N7-C8=1.2795         C8-N7=1.2795         
C8-C9=1.4695         C8-O10=1.3985        C9-C8=1.4695         C9-H15=1.0889        C9-H16=1.0906        C9-H17=1.0905        
O10-C5=1.3975        O10-C8=1.3985        O10-C11=1.4661       C11-O10=1.4661       C11-H18=1.0879       C11-H19=1.0879       
C11-H20=1.0849       H12-C1=1.0908        H13-C1=1.0874        H14-C1=1.0908        H15-C9=1.0889        H16-C9=1.0906        
H17-C9=1.0905        H18-C11=1.0879       H19-C11=1.0879       H20-C11=1.0849       
 C  H  Rav=1.0888 sigma=0.0019  Rmin=1.0849  Rmax=1.0908     9
 C  C  Rav=1.4838 sigma=0.0142  Rmin=1.4695  Rmax=1.4980     2
 N  C  Rav=1.2791 sigma=0.0003  Rmin=1.2788  Rmax=1.2795     2
 N  N  Rav=1.3631 sigma=0.0000  Rmin=1.3631  Rmax=1.3631     1
 O  C  Rav=1.3690 sigma=0.0893  Rmin=1.2026  Rmax=1.4661     6
 
 selected bond angles (degree)
 --------------------
H12-C1-O2=109.32               H13-C1-O2=106.12               H13-C1-H12=110.95              H14-C1-O2=109.47               
H14-C1-H12=109.83              H14-C1-H13=111.07              C3-O2-C1=116.95                O4-C3-O2=126.81                
C5-C3-O2=110.49                C5-C3-O4=122.70                N6-C5-C3=130.22                O10-C5-C3=120.34               
O10-C5-N6=109.43               N7-N6-C5=108.81                C8-N7-N6=109.15                C9-C8-N7=129.26                
O10-C8-N7=109.16               O10-C8-C9=121.58               H15-C9-C8=108.61               H16-C9-C8=110.38               
H16-C9-H15=109.54              H17-C9-C8=110.54               H17-C9-H15=109.56              H17-C9-H16=108.19              
C8-O10-C5=103.45               C11-O10-C5=127.03              C11-O10-C8=129.51              
 
 selected dihedral angles (degree)
 ---------------------------------
C3-O2-C1-H12= 64.49           C3-O2-C1-H13=184.21           C3-O2-C1-H14=304.15           O4-C3-O2-C1=  0.08            
C5-C3-O2-C1=180.13            N6-C5-C3-O2=  0.26            N6-C5-C3-O4=180.31            O10-C5-C3-O2=179.81           
O10-C5-C3-O4=359.86           N7-N6-C5-C3=179.55            N7-N6-C5-O10=359.96           C8-N7-N6-C5=  0.00            
C9-C8-N7-N6=180.37            O10-C8-N7-N6=  0.00           H15-C9-C8-N7=359.48           H15-C9-C8-O10=179.87          
H16-C9-C8-N7=119.59           H16-C9-C8-O10=299.98          H17-C9-C8-N7=239.26           H17-C9-C8-O10= 59.64          
C8-O10-C5-C3=180.41           C8-O10-C5-N6=  0.05           C11-O10-C5-C3=  0.93          C11-O10-C5-N6=180.57          
C5-O10-C8-N7=359.96           C5-O10-C8-C9=179.64           C11-O10-C8-N7=179.42          C11-O10-C8-C9=359.10          
           -------------------------------------------------
          |                Final Singlepoint                |
           -------------------------------------------------

          ...................................................
          :                      SETUP                      :
          :.................................................:
          :  # basis functions                  62          :
          :  # atomic orbitals                  62          :
          :  # shells                           40          :
          :  # electrons                        60          :
          :  # halogen bonds                     0          :
          :  max. iterations                   250          :
          :  Hamiltonian                  GFN1-xTB          :
          :  restarted?                      false          :
          :  GBSA solvation                   true          :
          :  PC potential                    false          :
          :  electronic temp.          300.0000000     K    :
          :  accuracy                    1.0000000          :
          :  -> integral cutoff          0.2500000E+02      :
          :  -> integral neglect         0.1000000E-07      :
          :  -> SCF convergence          0.1000000E-05 Eh   :
          :  -> wf. convergence          0.2000000E-04 e    :
          :  Broyden damping             0.4000000          :
          ...................................................

 iter      E             dE          RMSdq      gap      omega  full diag
   1    -37.9290085 -0.379290E+02  0.322E-06    3.71       0.0  T
   2    -37.9290085 -0.852651E-13  0.126E-06    3.71   17697.2  T
   3    -37.9290085 -0.142109E-13  0.576E-07    3.71   38814.5  T

   *** convergence criteria satisfied after 3 iterations ***

         #    Occupation            Energy/Eh            Energy/eV
      -------------------------------------------------------------
         1        2.0000           -0.9755267             -26.5454
       ...           ...                  ...                  ...
        24        2.0000           -0.5624591             -15.3053
        25        2.0000           -0.5501729             -14.9710
        26        2.0000           -0.5416269             -14.7384
        27        2.0000           -0.5296400             -14.4122
        28        2.0000           -0.5286926             -14.3865
        29        2.0000           -0.5195767             -14.1384
        30        2.0000           -0.5141717             -13.9913 (HOMO)
        31                         -0.3780020             -10.2860 (LUMO)
        32                         -0.3209874              -8.7345
        33                         -0.2591472              -7.0518
        34                         -0.1947613              -5.2997
        35                         -0.1789190              -4.8686
       ...                                ...                  ...
        62                          0.7174757              19.5235
      -------------------------------------------------------------
                  HL-Gap            0.1361697 Eh            3.7054 eV
             Fermi-level           -0.4460868 Eh          -12.1386 eV

 SCC (total)                   0 d,  0 h,  0 min,  0.025 sec
 SCC setup                      ...        0 min,  0.001 sec (  2.267%)
 Dispersion                     ...        0 min,  0.000 sec (  0.250%)
 classical contributions        ...        0 min,  0.000 sec (  0.131%)
 integral evaluation            ...        0 min,  0.007 sec ( 29.508%)
 iterations                     ...        0 min,  0.002 sec (  7.076%)
 molecular gradient             ...        0 min,  0.015 sec ( 59.874%)
 printout                       ...        0 min,  0.000 sec (  0.746%)

         :::::::::::::::::::::::::::::::::::::::::::::::::::::
         ::                     SUMMARY                     ::
         :::::::::::::::::::::::::::::::::::::::::::::::::::::
         :: total energy             -37.579562486917 Eh    ::
         :: total w/o Gsasa/hb       -37.569414987957 Eh    ::
         :: gradient norm              0.000405218111 Eh/a0 ::
         :: HOMO-LUMO gap              3.705367149193 eV    ::
         ::.................................................::
         :: SCC energy               -37.929008493939 Eh    ::
         :: -> electrostatic           0.227309940111 Eh    ::
         :: -> Gsolv                  -0.089888147109 Eh    ::
         ::    -> Gelec               -0.079740648150 Eh    ::
         ::    -> Gsasa               -0.014980295091 Eh    ::
         ::    -> Ghb                 -0.002791482873 Eh    ::
         ::    -> Gshift               0.007624279005 Eh    ::
         :: repulsion energy           0.358168437877 Eh    ::
         :: dispersion energy         -0.008722430855 Eh    ::
         :: halogen bond corr.         0.000000000000 Eh    ::
         :: add. restraining           0.000000000000 Eh    ::
         :: total charge               1.000000000000 e     ::
         :::::::::::::::::::::::::::::::::::::::::::::::::::::

           -------------------------------------------------
          |                Property Printout                |
           -------------------------------------------------

    * Orbital Energies and Occupations

         #    Occupation            Energy/Eh            Energy/eV
      -------------------------------------------------------------
         1        2.0000           -0.9755267             -26.5454
       ...           ...                  ...                  ...
        18        2.0000           -0.6071539             -16.5215
        19        2.0000           -0.6031468             -16.4125
        20        2.0000           -0.5993482             -16.3091
        21        2.0000           -0.5934583             -16.1488
        22        2.0000           -0.5857905             -15.9402
        23        2.0000           -0.5723666             -15.5749
        24        2.0000           -0.5624591             -15.3053
        25        2.0000           -0.5501729             -14.9710
        26        2.0000           -0.5416269             -14.7384
        27        2.0000           -0.5296400             -14.4122
        28        2.0000           -0.5286926             -14.3865
        29        2.0000           -0.5195767             -14.1384
        30        2.0000           -0.5141717             -13.9913 (HOMO)
        31                         -0.3780020             -10.2860 (LUMO)
        32                         -0.3209874              -8.7345
        33                         -0.2591472              -7.0518
        34                         -0.1947613              -5.2997
        35                         -0.1789190              -4.8686
        36                         -0.1550019              -4.2178
        37                         -0.1278344              -3.4786
        38                         -0.1185262              -3.2253
        39                         -0.1177447              -3.2040
        40                         -0.1042285              -2.8362
        41                         -0.0901547              -2.4532
       ...                                ...                  ...
        62                          0.7174757              19.5235
      -------------------------------------------------------------
                  HL-Gap            0.1361697 Eh            3.7054 eV
             Fermi-level           -0.4460868 Eh          -12.1386 eV

  Mulliken/CM5 charges         n(s)   n(p)   n(d)
     1C     0.15584  0.03396   0.992  2.852  0.000
     2O    -0.38351 -0.46719   1.679  4.704  0.000
     3C     0.59575  0.66418   0.945  2.459  0.000
     4O    -0.51700 -0.56970   1.716  4.801  0.000
     5C     0.34149  0.46452   1.022  2.636  0.000
     6N    -0.13974 -0.24758   1.548  3.592  0.000
     7N    -0.18621 -0.29799   1.543  3.643  0.000
     8C     0.39396  0.50076   1.030  2.576  0.000
     9C    -0.11549 -0.25387   1.020  3.095  0.000
    10O    -0.19841 -0.29423   1.649  4.550  0.000
    11C     0.14535  0.02092   1.023  2.831  0.000
    12H     0.07480  0.13606   0.925  0.000  0.000
    13H     0.07642  0.13674   0.924  0.000  0.000
    14H     0.07474  0.13672   0.925  0.000  0.000
    15H     0.11007  0.16596   0.890  0.000  0.000
    16H     0.11026  0.16478   0.890  0.000  0.000
    17H     0.10981  0.16433   0.890  0.000  0.000
    18H     0.12134  0.18510   0.879  0.000  0.000
    19H     0.12135  0.18532   0.879  0.000  0.000
    20H     0.10917  0.17121   0.891  0.000  0.000

Wiberg/Mayer (AO) data.
largest (>0.10) Wiberg bond orders for each atom

 ---------------------------------------------------------------------------
     #   Z sym  total        # sym  WBO       # sym  WBO       # sym  WBO
 ---------------------------------------------------------------------------
     1   6 C    3.832 --    13 H    0.984    14 H    0.977    12 H    0.976
                             2 O    0.862
     2   8 O    2.245 --     3 C    1.178     1 C    0.862     4 O    0.154
     3   6 C    3.879 --     4 O    1.670     2 O    1.178     5 C    0.962
     4   8 O    1.975 --     3 C    1.670     2 O    0.154
     5   6 C    3.810 --     6 N    1.707     3 C    0.962    10 O    0.884
     6   7 N    3.040 --     5 C    1.707     7 N    1.159
     7   7 N    3.024 --     8 C    1.684     6 N    1.159
     8   6 C    3.800 --     7 N    1.684     9 C    1.046    10 O    0.881
     9   6 C    3.967 --     8 C    1.046    15 H    0.968    17 H    0.948
                            16 H    0.948
    10   8 O    2.653 --     5 C    0.884     8 C    0.881    11 C    0.741
    11   6 C    3.717 --    20 H    0.973    19 H    0.967    18 H    0.967
                            10 O    0.741
    12   1 H    0.999 --     1 C    0.976
    13   1 H    1.005 --     1 C    0.984
    14   1 H    1.000 --     1 C    0.977
    15   1 H    0.988 --     9 C    0.968
    16   1 H    0.987 --     9 C    0.948
    17   1 H    0.987 --     9 C    0.948
    18   1 H    0.996 --    11 C    0.967
    19   1 H    0.996 --    11 C    0.967
    20   1 H    0.989 --    11 C    0.973
 ---------------------------------------------------------------------------

Topologies differ in total number of bonds
Writing topology from bond orders to xtbtopo.mol

 dipole moment from electron density (au)
     X       Y       Z   
  -1.7244   1.5366  -0.0340  total (Debye):    5.871

           -------------------------------------------------
          |                Geometry Summary                 |
           -------------------------------------------------

      molecular mass/u    :      157.1475033
   center of mass at/Å    :        0.1487781      -0.3216920      -0.0934650
  moments of inertia/u·Å² :        0.1893741E+03   0.7041891E+03   0.8839272E+03
rotational constants/cm⁻¹ :        0.8901764E-01   0.2393907E-01   0.1907129E-01

 * 18 selected distances

     #   Z          #   Z                                           value/Å
     1   6 C        2   8 O                                       1.4415650
     2   8 O        3   6 C                                       1.3077193
     3   6 C        4   8 O                                       1.2025921
     5   6 C        6   7 N                                       1.2788041
     7   7 N        8   6 C                                       1.2794614
     8   6 C        9   6 C                                       1.4695491 (max)
     5   6 C       10   8 O                                       1.3974718
     8   6 C       10   8 O                                       1.3985328
    10   8 O       11   6 C                                       1.4660654
     1   6 C       12   1 H                                       1.0907938
     1   6 C       13   1 H                                       1.0873748
     1   6 C       14   1 H                                       1.0907888
     9   6 C       15   1 H                                       1.0888695
     9   6 C       16   1 H                                       1.0906038
     9   6 C       17   1 H                                       1.0904646
    11   6 C       18   1 H                                       1.0878547
    11   6 C       19   1 H                                       1.0878613
    11   6 C       20   1 H                                       1.0849250 (min)

 * 4 distinct bonds (by element types)

   Z      Z             #   av. dist./Å        max./Å        min./Å
   1 H    6 C           9     1.0888373     1.0907938     1.0849250
   6 C    6 C           1     1.4695491     1.4695491     1.4695491
   6 C    7 N           2     1.2791327     1.2794614     1.2788041
   6 C    8 O           6     1.3689911     1.4660654     1.2025921


optimized geometry written to: xtbopt.xyz


           -------------------------------------------------
          | TOTAL ENERGY              -37.579562486917 Eh   |
          | GRADIENT NORM               0.000405218111 Eh/α |
          | HOMO-LUMO GAP               3.705367149193 eV   |
           -------------------------------------------------

------------------------------------------------------------------------
 * finished run on 2023/06/20 at 14:54:43.342     
------------------------------------------------------------------------
 total:
 * wall-time:     0 d,  0 h,  0 min,  1.864 sec
 *  cpu-time:     0 d,  0 h,  0 min,  1.766 sec
 * ratio c/w:     0.947 speedup
 SCF:
 * wall-time:     0 d,  0 h,  0 min,  0.044 sec
 *  cpu-time:     0 d,  0 h,  0 min,  0.043 sec
 * ratio c/w:     0.973 speedup
 ANC optimizer:
 * wall-time:     0 d,  0 h,  0 min,  1.753 sec
 *  cpu-time:     0 d,  0 h,  0 min,  1.701 sec
 * ratio c/w:     0.970 speedup

