46
 energy: -87.074218811174 gnorm: 0.000587367908 xtb: 6.5.1 (579679a)
C           -5.18640088133404       -0.64478237296581       -1.54008014057820
O           -4.39859582500469        0.49592441400895       -1.81578778198905
C           -3.87067658849974        1.17327647181264       -0.65544931590002
C           -3.22085417340647        2.45133742400844       -1.21412764266586
O           -4.89460342552370        1.51990037387068        0.22171851014050
C           -2.82566472211540        0.29468878435430        0.04170347630255
N           -1.65715493817860        0.13021840902279       -0.63540281732662
C           -0.68516769389260       -0.57395438504492       -0.15054574641147
C            0.54829742750757       -0.73401795249136       -1.03166265885890
C            0.37414855562211        0.11364595252198       -2.30103350163499
C            0.75213053310695       -2.20192251592248       -1.43446300683125
N            1.71561110997014       -0.21109442940336       -0.29757553741309
C            2.98247968139430       -0.27554173466620       -0.75084388348509
O            3.36710729415181       -0.88846339485805       -1.73183620077737
C            3.89545195211424        0.50158161947975        0.13277086223008
N            3.54453587997945        1.20538214718422        1.16658417048380
N            4.68439831092997        1.75574527443403        1.67339393335829
C            5.65729873794700        1.35290787979598        0.91459950325638
C            7.09601806410878        1.67161881964797        1.04623400575237
O            5.22363687197413        0.55963394093415       -0.07631240713206
N           -0.79763655314208       -1.18092922262747        1.08799444176414
C            0.26612247241448       -1.96420706790202        1.71399067878170
C           -1.96334126936652       -1.10989412877338        1.84357145781937
O           -2.01568033100613       -1.70301829712772        2.92754912106174
C           -3.07002309640163       -0.30198453792597        1.27549108804243
O           -4.16464791647687       -0.18992035870587        1.92612352131465
H           -4.60985714136664       -1.41625655663563       -1.00950876512052
H           -5.51440808097081       -1.04797662385643       -2.50061848746887
H           -6.07047997976073       -0.38862640344556       -0.94094908362708
H           -2.81946898415661        3.03924870855349       -0.39108063227577
H           -3.97252654871863        3.03525451598482       -1.74271469456817
H           -2.41713019159509        2.18635874292275       -1.89831665882746
H            0.22391007639701        1.15947366274713       -2.03779911521137
H            1.26036581430651        0.02576752764406       -2.92695372802324
H           -0.49324204852443       -0.23547691635714       -2.85887598687848
H           -0.20011570089588       -2.60885488995600       -1.77263364528825
H            1.11495012731705       -2.80132702691554       -0.60388161436433
H            1.47072652547078       -2.27522064778225       -2.24840803691793
H            1.53272020323576        0.43993954433758        0.45338533581147
H            7.46482635031102        2.12095629462010        0.12494981432494
H            7.66477091146692        0.76000256960289        1.22701853427753
H            7.24307354182801        2.36057518335721        1.87382981558579
H            1.23126291482734       -1.72736265856573        1.28122291516516
H            0.28696796718712       -1.72778088928193        2.77938036031735
H            0.05745301223638       -3.02921762616608        1.59871477001416
H           -4.81058924546097        0.88439437652428        1.02008577377078
