42
 energy: -83.613978728067 gnorm: 0.000307697898 xtb: 6.5.1 (579679a)
C            2.71896495483674        2.00457176348498        2.33882788333934
O            2.22567155438829        1.17132763301538        1.29823364655548
C            2.61674811439338        1.50203201217735        0.04100170009946
O            3.34457844357737        2.46392175934000       -0.16404550035690
C            2.18029389840908        0.50735907402311       -1.01968504378827
C            2.05623879649701        1.21485727502890       -2.37247423547162
N            0.91299978446813       -0.12044200320464       -0.68046167959690
C            0.93684261587604       -1.13104448057792        0.10988436764969
C           -0.37619779259063       -1.75172306776191        0.57766123325548
C           -0.45942707126372       -3.20848472283339        0.09410158694194
C           -0.44647230273859       -1.68391299995046        2.11393272311947
N           -1.45511522598592       -0.97539575206960       -0.01887846190421
C           -2.78455019603444       -1.16517158961950        0.30703612602510
O           -3.20421487928010       -2.19009328586982        0.89206516938556
C           -3.65411746049648       -0.11094788068425       -0.12873412944314
N           -4.97905004472682       -0.03795539634339        0.01882019610448
N           -5.36312912007500        1.16214988147440       -0.51099149803012
C           -4.29915565229883        1.75510719681623       -0.94500990448957
C           -4.22217425432272        3.08844075226949       -1.59238707521812
O           -3.17133041409085        1.02756913034566       -0.75010707406887
N            2.08453523428456       -1.68771431593122        0.57903625451764
C            3.33834859781954       -1.53920320908206       -0.11595348170800
O            4.20846222048540       -2.43148270904228        0.11561479559722
C            3.40181940533243       -0.45946072263458       -1.01799747964932
O            4.37463870850823       -0.20328226324916       -1.80920869137424
H            3.80926229169896        1.93578603800870        2.40987617328231
H            2.44340878200199        3.04840674155830        2.15971865008149
H            2.26668868309614        1.66033688544199        3.26765843213214
H            1.25344363833651        1.95029333679789       -2.34235131067067
H            1.83638870439481        0.48432010061329       -3.15034684959948
H            2.99265511081103        1.71768304142830       -2.61402787265225
H           -1.37563656295568       -3.67268985352820        0.45564162831498
H           -0.45456136068108       -3.23782457453733       -0.99548488883363
H            0.38966776676122       -3.77880524314318        0.46730971522702
H           -1.38067869226344       -2.11640705154170        2.46867574931179
H           -0.38635224828967       -0.64663771828367        2.44245016139599
H            0.38016945811499       -2.24005591596300        2.55224813018708
H           -1.18146472029759       -0.05470489013405       -0.34809488763359
H           -3.83599954185909        3.00002100070462       -2.60828393713425
H           -5.21535604482032        3.52979005612964       -1.62574901344556
H           -3.55597314533183        3.74583865441224       -1.03305215914506
H            2.02913196630724       -2.52636968708587        1.13353385169423
