
                                 *****************
                                 * O   R   C   A *
                                 *****************

                                            #,                                       
                                            ###                                      
                                            ####                                     
                                            #####                                    
                                            ######                                   
                                           ########,                                 
                                     ,,################,,,,,                         
                               ,,#################################,,                 
                          ,,##########################################,,             
                       ,#########################################, ''#####,          
                    ,#############################################,,   '####,        
                  ,##################################################,,,,####,       
                ,###########''''           ''''###############################       
              ,#####''   ,,,,##########,,,,          '''####'''          '####       
            ,##' ,,,,###########################,,,                        '##       
           ' ,,###''''                  '''############,,,                           
         ,,##''                                '''############,,,,        ,,,,,,###''
      ,#''                                            '''#######################'''  
     '                                                          ''''####''''         
             ,#######,   #######,   ,#######,      ##                                
            ,#'     '#,  ##    ##  ,#'     '#,    #''#        ######   ,####,        
            ##       ##  ##   ,#'  ##            #'  '#       #        #'  '#        
            ##       ##  #######   ##           ,######,      #####,   #    #        
            '#,     ,#'  ##    ##  '#,     ,#' ,#      #,         ##   #,  ,#        
             '#######'   ##     ##  '#######'  #'      '#     #####' # '####'        



                  #######################################################
                  #                        -***-                        #
                  #          Department of theory and spectroscopy      #
                  #    Directorship and core code : Frank Neese         #
                  #        Max Planck Institute fuer Kohlenforschung    #
                  #                Kaiser Wilhelm Platz 1               #
                  #                 D-45470 Muelheim/Ruhr               #
                  #                      Germany                        #
                  #                                                     #
                  #                  All rights reserved                #
                  #                        -***-                        #
                  #######################################################


                         Program Version 5.0.1 -  RELEASE  -


 With contributions from (in alphabetic order):
   Daniel Aravena         : Magnetic Suceptibility
   Michael Atanasov       : Ab Initio Ligand Field Theory (pilot matlab implementation)
   Alexander A. Auer      : GIAO ZORA, VPT2 properties, NMR spectrum
   Ute Becker             : Parallelization
   Giovanni Bistoni       : ED, misc. LED, open-shell LED, HFLD
   Martin Brehm           : Molecular dynamics
   Dmytro Bykov           : SCF Hessian
   Vijay G. Chilkuri      : MRCI spin determinant printing, contributions to CSF-ICE
   Dipayan Datta          : RHF DLPNO-CCSD density
   Achintya Kumar Dutta   : EOM-CC, STEOM-CC
   Dmitry Ganyushin       : Spin-Orbit,Spin-Spin,Magnetic field MRCI
   Miquel Garcia          : C-PCM and meta-GGA Hessian, CC/C-PCM, Gaussian charge scheme
   Yang Guo               : DLPNO-NEVPT2, F12-NEVPT2, CIM, IAO-localization
   Andreas Hansen         : Spin unrestricted coupled pair/coupled cluster methods
   Benjamin Helmich-Paris : MC-RPA, TRAH-SCF, COSX integrals
   Lee Huntington         : MR-EOM, pCC
   Robert Izsak           : Overlap fitted RIJCOSX, COSX-SCS-MP3, EOM
   Marcus Kettner         : VPT2
   Christian Kollmar      : KDIIS, OOCD, Brueckner-CCSD(T), CCSD density, CASPT2, CASPT2-K
   Simone Kossmann        : Meta GGA functionals, TD-DFT gradient, OOMP2, MP2 Hessian
   Martin Krupicka        : Initial AUTO-CI
   Lucas Lang             : DCDCAS
   Marvin Lechner         : AUTO-CI (C++ implementation), FIC-MRCC
   Dagmar Lenk            : GEPOL surface, SMD
   Dimitrios Liakos       : Extrapolation schemes; Compound Job, initial MDCI parallelization
   Dimitrios Manganas     : Further ROCIS development; embedding schemes
   Dimitrios Pantazis     : SARC Basis sets
   Anastasios Papadopoulos: AUTO-CI, single reference methods and gradients
   Taras Petrenko         : DFT Hessian,TD-DFT gradient, ASA, ECA, R-Raman, ABS, FL, XAS/XES, NRVS
   Peter Pinski           : DLPNO-MP2, DLPNO-MP2 Gradient
   Christoph Reimann      : Effective Core Potentials
   Marius Retegan         : Local ZFS, SOC
   Christoph Riplinger    : Optimizer, TS searches, QM/MM, DLPNO-CCSD(T), (RO)-DLPNO pert. Triples
   Tobias Risthaus        : Range-separated hybrids, TD-DFT gradient, RPA, STAB
   Michael Roemelt        : Original ROCIS implementation
   Masaaki Saitow         : Open-shell DLPNO-CCSD energy and density
   Barbara Sandhoefer     : DKH picture change effects
   Avijit Sen             : IP-ROCIS
   Kantharuban Sivalingam : CASSCF convergence, NEVPT2, FIC-MRCI
   Bernardo de Souza      : ESD, SOC TD-DFT
   Georgi Stoychev        : AutoAux, RI-MP2 NMR, DLPNO-MP2 response
   Willem Van den Heuvel  : Paramagnetic NMR
   Boris Wezisla          : Elementary symmetry handling
   Frank Wennmohs         : Technical directorship


 We gratefully acknowledge several colleagues who have allowed us to
 interface, adapt or use parts of their codes:
   Stefan Grimme, W. Hujo, H. Kruse, P. Pracht,  : VdW corrections, initial TS optimization,
                  C. Bannwarth, S. Ehlert          DFT functionals, gCP, sTDA/sTD-DF
   Ed Valeev, F. Pavosevic, A. Kumar             : LibInt (2-el integral package), F12 methods
   Garnet Chan, S. Sharma, J. Yang, R. Olivares  : DMRG
   Ulf Ekstrom                                   : XCFun DFT Library
   Mihaly Kallay                                 : mrcc  (arbitrary order and MRCC methods)
   Jiri Pittner, Ondrej Demel                    : Mk-CCSD
   Frank Weinhold                                : gennbo (NPA and NBO analysis)
   Christopher J. Cramer and Donald G. Truhlar   : smd solvation model
   Lars Goerigk                                  : TD-DFT with DH, B97 family of functionals
   V. Asgeirsson, H. Jonsson                     : NEB implementation
   FAccTs GmbH                                   : IRC, NEB, NEB-TS, DLPNO-Multilevel, CI-OPT
                                                   MM, QMMM, 2- and 3-layer-ONIOM, Crystal-QMMM,
                                                   LR-CPCM, SF, NACMEs, symmetry and pop. for TD-DFT,
                                                   nearIR, NL-DFT gradient (VV10), updates on ESD,
                                                   ML-optimized integration grids
   S Lehtola, MJT Oliveira, MAL Marques          : LibXC Library
   Liviu Ungur et al                             : ANISO software


 Your calculation uses the libint2 library for the computation of 2-el integrals
 For citations please refer to: http://libint.valeyev.net

 Your ORCA version has been built with support for libXC version: 5.1.0
 For citations please refer to: https://tddft.org/programs/libxc/

 This ORCA versions uses:
   CBLAS   interface :  Fast vector & matrix operations
   LAPACKE interface :  Fast linear algebra routines
   SCALAPACK package :  Parallel linear algebra routines
   Shared memory     :  Shared parallel matrices
   BLAS/LAPACK       :  OpenBLAS 0.3.15  USE64BITINT DYNAMIC_ARCH NO_AFFINITY Haswell SINGLE_THREADED
        Core in use  :  Haswell
   Copyright (c) 2011-2014, The OpenBLAS Project


Your calculation utilizes the geometrical counterpoise correction gCP
Please cite in your paper:
H.Kruse, S. Grimme J.Chem.Phys., 136, (2012), 154101 
   

Your calculation utilizes the atom-pairwise dispersion correction
based on tight binding partial charges (D4)
Cite in your paper:
E.Caldeweyher, C.Bannwarth, S.Grimme, J.Chem.Phys., (2017), 147, 034112.
E.Caldeweyher, S.Ehlert, A.Hansen, H.Neugebauer, S.Grimme, J.Chem.Phys., (2018), in progress.
   

Your calculation utilizes the SMD solvation module
Please cite in your paper:
A.V. Marenich, C.J. Cramer, D.G. Truhlar J. Phys. Chem. B, 113, (2009), 6378 

================================================================================

----- Orbital basis set information -----
Your calculation utilizes the basis: def2-mTZVPP
   Stefan Grimme, Andreas Hansen, Sebastian Ehlert, and Jan-Michael Mewes 
   J. Chem. Phys. 154, 000000 (2021). DOI: 10.1063/5.0040021

----- AuxJ basis set information -----
Your calculation utilizes the basis: def2-mTZVPP/J
   Stefan Grimme, Andreas Hansen, Sebastian Ehlert, and Jan-Michael Mewes 
   J. Chem. Phys. 154, 000000 (2021). DOI: 10.1063/5.0040021

================================================================================
                                        WARNINGS
                       Please study these warnings very carefully!
================================================================================

Using LibXC functional ID 497 : Re-regularized SCAN exchange by Furness et al
[ 1]  J. W. Furness, A. D. Kaplan, J. Ning, J. P. Perdew, and J. Sun, J. Phys. Chem. Lett. 11, 8208 (2020)
[ 2]  J. W. Furness, A. D. Kaplan, J. Ning, J. P. Perdew, and J. Sun, J. Phys. Chem. Lett. 11, 9248 (2020)
Using LibXC functional ID 498 : Re-regularized SCAN correlation by Furness et al
[ 1]  J. W. Furness, A. D. Kaplan, J. Ning, J. P. Perdew, and J. Sun, J. Phys. Chem. Lett. 11, 8208 (2020)
[ 2]  J. W. Furness, A. D. Kaplan, J. Ning, J. P. Perdew, and J. Sun, J. Phys. Chem. Lett. 11, 9248 (2020)
Using LibXC functional ID 497 : Re-regularized SCAN exchange by Furness et al
[ 1]  J. W. Furness, A. D. Kaplan, J. Ning, J. P. Perdew, and J. Sun, J. Phys. Chem. Lett. 11, 8208 (2020)
[ 2]  J. W. Furness, A. D. Kaplan, J. Ning, J. P. Perdew, and J. Sun, J. Phys. Chem. Lett. 11, 9248 (2020)
Using LibXC functional ID 498 : Re-regularized SCAN correlation by Furness et al
[ 1]  J. W. Furness, A. D. Kaplan, J. Ning, J. P. Perdew, and J. Sun, J. Phys. Chem. Lett. 11, 8208 (2020)
[ 2]  J. W. Furness, A. D. Kaplan, J. Ning, J. P. Perdew, and J. Sun, J. Phys. Chem. Lett. 11, 9248 (2020)

INFO   : the flag for use of the SHARK integral package has been found!

================================================================================
                                       INPUT FILE
================================================================================
NAME = /lustre/hpc/kemi/ree/PhD/git/ReactivityQM/calculations/R02deprot/reac01prodN08/conf06/gfn1/orca_calc.inp
|  1> # ORCA input file 
|  2> ! SP r2SCAN-3c CPCM 
|  3> 
|  4> %maxcore 1875.0 
|  5> %pal nprocs 4 end 
|  6> %cpcm smd true SMDsolvent "DMSO" end 
|  7> 
|  8> *xyz 0 1
|  9> C      -3.078787    3.404222    1.989326
| 10> O      -3.308784    2.234824    1.205964
| 11> C      -2.226578    1.525525    0.862878
| 12> O      -1.101179    1.855680    1.198975
| 13> C      -2.526909    0.326639    0.051274
| 14> N      -1.410417   -0.376891   -0.313922
| 15> C      -1.554583   -1.464540   -1.036723
| 16> C      -0.259997   -2.194188   -1.396702
| 17> C      -0.263923   -3.605086   -0.801065
| 18> C      -0.073359   -2.233738   -2.916576
| 19> N       0.791106   -1.384414   -0.782706
| 20> C       2.094640   -1.593710   -0.722867
| 21> O       2.748374   -2.506598   -1.193664
| 22> C       2.741347   -0.472089    0.069693
| 23> N       3.982719   -0.274686    0.398840
| 24> N       3.973250    0.872595    1.114091
| 25> C       5.210605    1.388171    1.654303
| 26> C       2.745434    1.339252    1.205979
| 27> C       2.214420    2.541017    1.870193
| 28> O       1.958577    0.511445    0.556190
| 29> N      -2.687392   -1.995369   -1.480521
| 30> C      -3.845582   -1.361345   -1.164353
| 31> O      -4.975016   -1.749394   -1.513528
| 32> C      -3.749810   -0.135673   -0.354403
| 33> O      -4.933578    0.444355   -0.071620
| 34> H      -4.044933    3.885706    2.131191
| 35> H      -2.393665    4.079154    1.470456
| 36> H      -2.647510    3.133172    2.956245
| 37> H      -1.124529   -4.148776   -1.190152
| 38> H      -0.339555   -3.550512    0.284202
| 39> H       0.649426   -4.134859   -1.068234
| 40> H      -0.931079   -2.734561   -3.364988
| 41> H       0.837065   -2.773894   -3.173340
| 42> H      -0.007865   -1.220004   -3.309553
| 43> H       0.378130   -0.565078   -0.317305
| 44> H       5.527802    0.749028    2.477450
| 45> H       5.961125    1.378277    0.866982
| 46> H       5.039329    2.400259    2.007414
| 47> H       2.548264    2.583142    2.905392
| 48> H       2.573417    3.436047    1.362287
| 49> H       1.124302    2.509531    1.824872
| 50> H      -5.614304   -0.122639   -0.497358
| 51> **                         ****END OF INPUT****
================================================================================

                       ****************************
                       * Single Point Calculation *
                       ****************************

---------------------------------
CARTESIAN COORDINATES (ANGSTROEM)
---------------------------------
  C     -3.078787    3.404222    1.989326
  O     -3.308784    2.234824    1.205964
  C     -2.226578    1.525525    0.862878
  O     -1.101179    1.855680    1.198975
  C     -2.526909    0.326639    0.051274
  N     -1.410417   -0.376891   -0.313922
  C     -1.554583   -1.464540   -1.036723
  C     -0.259997   -2.194188   -1.396702
  C     -0.263923   -3.605086   -0.801065
  C     -0.073359   -2.233738   -2.916576
  N      0.791106   -1.384414   -0.782706
  C      2.094640   -1.593710   -0.722867
  O      2.748374   -2.506598   -1.193664
  C      2.741347   -0.472089    0.069693
  N      3.982719   -0.274686    0.398840
  N      3.973250    0.872595    1.114091
  C      5.210605    1.388171    1.654303
  C      2.745434    1.339252    1.205979
  C      2.214420    2.541017    1.870193
  O      1.958577    0.511445    0.556190
  N     -2.687392   -1.995369   -1.480521
  C     -3.845582   -1.361345   -1.164353
  O     -4.975016   -1.749394   -1.513528
  C     -3.749810   -0.135673   -0.354403
  O     -4.933578    0.444355   -0.071620
  H     -4.044933    3.885706    2.131191
  H     -2.393665    4.079154    1.470456
  H     -2.647510    3.133172    2.956245
  H     -1.124529   -4.148776   -1.190152
  H     -0.339555   -3.550512    0.284202
  H      0.649426   -4.134859   -1.068234
  H     -0.931079   -2.734561   -3.364988
  H      0.837065   -2.773894   -3.173340
  H     -0.007865   -1.220004   -3.309553
  H      0.378130   -0.565078   -0.317305
  H      5.527802    0.749028    2.477450
  H      5.961125    1.378277    0.866982
  H      5.039329    2.400259    2.007414
  H      2.548264    2.583142    2.905392
  H      2.573417    3.436047    1.362287
  H      1.124302    2.509531    1.824872
  H     -5.614304   -0.122639   -0.497358

----------------------------
CARTESIAN COORDINATES (A.U.)
----------------------------
  NO LB      ZA    FRAG     MASS         X           Y           Z
   0 C     6.0000    0    12.011   -5.818064    6.433047    3.759281
   1 O     8.0000    0    15.999   -6.252696    4.223205    2.278942
   2 C     6.0000    0    12.011   -4.207623    2.882824    1.630603
   3 O     8.0000    0    15.999   -2.080927    3.506727    2.265734
   4 C     6.0000    0    12.011   -4.775166    0.617258    0.096894
   5 N     7.0000    0    14.007   -2.665302   -0.712221   -0.593227
   6 C     6.0000    0    12.011   -2.937736   -2.767580   -1.959123
   7 C     6.0000    0    12.011   -0.491323   -4.146414   -2.639384
   8 C     6.0000    0    12.011   -0.498742   -6.812625   -1.513793
   9 C     6.0000    0    12.011   -0.138628   -4.221153   -5.511530
  10 N     7.0000    0    14.007    1.494974   -2.616163   -1.479100
  11 C     6.0000    0    12.011    3.958296   -3.011675   -1.366021
  12 O     8.0000    0    15.999    5.193674   -4.736784   -2.255698
  13 C     6.0000    0    12.011    5.180395   -0.892119    0.131701
  14 N     7.0000    0    14.007    7.526248   -0.519081    0.753698
  15 N     7.0000    0    14.007    7.508354    1.648966    2.105327
  16 C     6.0000    0    12.011    9.846616    2.623263    3.126180
  17 C     6.0000    0    12.011    5.188118    2.530820    2.278970
  18 C     6.0000    0    12.011    4.184647    4.801826    3.534153
  19 O     8.0000    0    15.999    3.701174    0.966491    1.051047
  20 N     7.0000    0    14.007   -5.078435   -3.770701   -2.797779
  21 C     6.0000    0    12.011   -7.267097   -2.572569   -2.200308
  22 O     8.0000    0    15.999   -9.401418   -3.305876   -2.860153
  23 C     6.0000    0    12.011   -7.086114   -0.256385   -0.669725
  24 O     8.0000    0    15.999   -9.323111    0.839709   -0.135342
  25 H     1.0000    0     1.008   -7.643816    7.342920    4.027367
  26 H     1.0000    0     1.008   -4.523371    7.708484    2.778759
  27 H     1.0000    0     1.008   -5.003069    5.920837    5.586493
  28 H     1.0000    0     1.008   -2.125052   -7.840050   -2.249061
  29 H     1.0000    0     1.008   -0.641666   -6.709495    0.537064
  30 H     1.0000    0     1.008    1.227237   -7.813751   -2.018670
  31 H     1.0000    0     1.008   -1.759484   -5.167571   -6.358906
  32 H     1.0000    0     1.008    1.581824   -5.241900   -5.996744
  33 H     1.0000    0     1.008   -0.014863   -2.305473   -6.254149
  34 H     1.0000    0     1.008    0.714562   -1.067843   -0.599620
  35 H     1.0000    0     1.008   10.446032    1.415458    4.681702
  36 H     1.0000    0     1.008   11.264894    2.604566    1.638359
  37 H     1.0000    0     1.008    9.522952    4.535832    3.793463
  38 H     1.0000    0     1.008    4.815521    4.881431    5.490395
  39 H     1.0000    0     1.008    4.863053    6.493188    2.574349
  40 H     1.0000    0     1.008    2.124623    4.742326    3.448508
  41 H     1.0000    0     1.008  -10.609497   -0.231754   -0.939870

--------------------------------
INTERNAL COORDINATES (ANGSTROEM)
--------------------------------
 C      0   0   0     0.000000000000     0.00000000     0.00000000
 O      1   0   0     1.426199959843     0.00000000     0.00000000
 C      2   1   0     1.338649655897   116.41406333     0.00000000
 O      3   2   1     1.220035420238   122.12255658     0.00000000
 C      3   2   1     1.478589667005   113.96005718   180.05358888
 N      5   3   2     1.369261467135   113.41460524   178.87320937
 C      6   5   3     1.313851387470   118.85524900   179.89714894
 C      7   6   5     1.529027140289   115.57266357   180.25029805
 C      8   7   6     1.531480334725   110.23607111   118.17815571
 C      8   7   6     1.531801201664   110.43095158   241.51243160
 N      8   7   6     1.462033698552   104.21283780   359.70042316
 C     11   8   7     1.321584810254   129.82262154   176.08512398
 O     12  11   8     1.217531296727   129.11166521     1.75727808
 C     12  11   8     1.518029961855   109.07623051   181.86679022
 N     14  12  11     1.299349889138   130.65599878   178.76603354
 N     15  14  12     1.352008634559   104.84706678   180.64544294
 C     16  15  14     1.445231819725   119.63493207   179.50446268
 C     16  15  14     1.316717239976   110.13250711     0.15113393
 C     18  16  15     1.472207601263   131.08130591   180.01143927
 O     18  16  15     1.314014502286   107.49406404   359.82183094
 N      7   6   5     1.327400588566   127.49012655     0.05254492
 C     21   7   6     1.357701260550   117.60633762   359.94977661
 O     22  21   7     1.244237263299   124.28780132   180.04274812
 C      5   3   2     1.368865614103   128.16869587   358.76612439
 O     24   5   3     1.348223046716   125.23541390   359.93833021
 H      1   2   3     1.088756452930   106.92196594   176.96518480
 H      1   2   3     1.092772362575   110.28721239    57.16196542
 H      1   2   3     1.092886227285   110.25748104   296.71458650
 H      9   8   7     1.089784472685   108.83115897    58.94300848
 H      9   8   7     1.089267176678   109.96962049   299.58523635
 H      9   8   7     1.089148796947   110.52144425   179.08759336
 H     10   8   7     1.089761715915   108.91956825   301.51662618
 H     10   8   7     1.089297074176   110.39667265   181.32121504
 H     10   8   7     1.089209350548   109.95475540    60.97203684
 H     11   8   7     1.028814243813   110.02828206   358.58216115
 H     17  16  15     1.089352419957   108.81030270   288.39214259
 H     17  16  15     1.087774111972   108.47725692    47.94886710
 H     17  16  15     1.085515990781   108.60937971   168.28022875
 H     19  18  16     1.088514263371   110.48962584   308.12510613
 H     19  18  16     1.089920204302   109.95529376    67.34636293
 H     19  18  16     1.091513909742   108.53904357   187.06602200
 H     25  24   5     0.982915524222   105.60844413   180.18341590

---------------------------
INTERNAL COORDINATES (A.U.)
---------------------------
 C      0   0   0     0.000000000000     0.00000000     0.00000000
 O      1   0   0     2.695127336313     0.00000000     0.00000000
 C      2   1   0     2.529681238913   116.41406333     0.00000000
 O      3   2   1     2.305532817933   122.12255658     0.00000000
 C      3   2   1     2.794129535085   113.96005718   180.05358888
 N      5   3   2     2.587529178616   113.41460524   178.87320937
 C      6   5   3     2.482819302992   118.85524900   179.89714894
 C      7   6   5     2.889442546479   115.57266357   180.25029805
 C      8   7   6     2.894078412116   110.23607111   118.17815571
 C      8   7   6     2.894684762757   110.43095158   241.51243160
 N      8   7   6     2.762843288827   104.21283780   359.70042316
 C     11   8   7     2.497433354130   129.82262154   176.08512398
 O     12  11   8     2.300800710291   129.11166521     1.75727808
 C     12  11   8     2.868660890993   109.07623051   181.86679022
 N     14  12  11     2.455415442611   130.65599878   178.76603354
 N     15  14  12     2.554926050014   104.84706678   180.64544294
 C     16  15  14     2.731092339308   119.63493207   179.50446268
 C     16  15  14     2.488234979367   110.13250711     0.15113393
 C     18  16  15     2.782069178664   131.08130591   180.01143927
 O     18  16  15     2.483127545322   107.49406404   359.82183094
 N      7   6   5     2.508423582396   127.49012655     0.05254492
 C     21   7   6     2.565683554120   117.60633762   359.94977661
 O     22  21   7     2.351267673255   124.28780132   180.04274812
 C      5   3   2     2.586781124797   128.16869587   358.76612439
 O     24   5   3     2.547772325735   125.23541390   359.93833021
 H      1   2   3     2.057451522577   106.92196594   176.96518480
 H      1   2   3     2.065040491985   110.28721239    57.16196542
 H      1   2   3     2.065255665104   110.25748104   296.71458650
 H      9   8   7     2.059394198374   108.83115897    58.94300848
 H      9   8   7     2.058416650592   109.96962049   299.58523635
 H      9   8   7     2.058192945320   110.52144425   179.08759336
 H     10   8   7     2.059351194311   108.91956825   301.51662618
 H     10   8   7     2.058473148674   110.39667265   181.32121504
 H     10   8   7     2.058307375042   109.95475540    60.97203684
 H     11   8   7     1.944177163484   110.02828206   358.58216115
 H     17  16  15     2.058577737044   108.81030270   288.39214259
 H     17  16  15     2.055595167197   108.47725692    47.94886710
 H     17  16  15     2.051327936568   108.60937971   168.28022875
 H     19  18  16     2.056993850638   110.48962584   308.12510613
 H     19  18  16     2.059650693958   109.95529376    67.34636293
 H     19  18  16     2.062662360779   108.53904357   187.06602200
 H     25  24   5     1.857441153559   105.60844413   180.18341590

---------------------
BASIS SET INFORMATION
---------------------
There are 4 groups of distinct atoms

 Group   1 Type C   : 11s6p1d contracted to 5s3p1d pattern {62111/411/1}
 Group   2 Type O   : 11s6p2d contracted to 5s3p2d pattern {62111/411/11}
 Group   3 Type N   : 11s6p2d contracted to 5s3p2d pattern {62111/411/11}
 Group   4 Type H   : 4s1p contracted to 2s1p pattern {31/1}

Atom   0C    basis set group =>   1
Atom   1O    basis set group =>   2
Atom   2C    basis set group =>   1
Atom   3O    basis set group =>   2
Atom   4C    basis set group =>   1
Atom   5N    basis set group =>   3
Atom   6C    basis set group =>   1
Atom   7C    basis set group =>   1
Atom   8C    basis set group =>   1
Atom   9C    basis set group =>   1
Atom  10N    basis set group =>   3
Atom  11C    basis set group =>   1
Atom  12O    basis set group =>   2
Atom  13C    basis set group =>   1
Atom  14N    basis set group =>   3
Atom  15N    basis set group =>   3
Atom  16C    basis set group =>   1
Atom  17C    basis set group =>   1
Atom  18C    basis set group =>   1
Atom  19O    basis set group =>   2
Atom  20N    basis set group =>   3
Atom  21C    basis set group =>   1
Atom  22O    basis set group =>   2
Atom  23C    basis set group =>   1
Atom  24O    basis set group =>   2
Atom  25H    basis set group =>   4
Atom  26H    basis set group =>   4
Atom  27H    basis set group =>   4
Atom  28H    basis set group =>   4
Atom  29H    basis set group =>   4
Atom  30H    basis set group =>   4
Atom  31H    basis set group =>   4
Atom  32H    basis set group =>   4
Atom  33H    basis set group =>   4
Atom  34H    basis set group =>   4
Atom  35H    basis set group =>   4
Atom  36H    basis set group =>   4
Atom  37H    basis set group =>   4
Atom  38H    basis set group =>   4
Atom  39H    basis set group =>   4
Atom  40H    basis set group =>   4
Atom  41H    basis set group =>   4
---------------------------------
AUXILIARY/J BASIS SET INFORMATION
---------------------------------
There are 4 groups of distinct atoms

 Group   1 Type C   : 8s3p3d contracted to 6s3p3d pattern {311111/111/111}
 Group   2 Type O   : 8s3p3d contracted to 6s3p3d pattern {311111/111/111}
 Group   3 Type N   : 8s3p3d contracted to 6s3p3d pattern {311111/111/111}
 Group   4 Type H   : 5s2p1d contracted to 3s1p1d pattern {311/2/1}

Atom   0C    basis set group =>   1
Atom   1O    basis set group =>   2
Atom   2C    basis set group =>   1
Atom   3O    basis set group =>   2
Atom   4C    basis set group =>   1
Atom   5N    basis set group =>   3
Atom   6C    basis set group =>   1
Atom   7C    basis set group =>   1
Atom   8C    basis set group =>   1
Atom   9C    basis set group =>   1
Atom  10N    basis set group =>   3
Atom  11C    basis set group =>   1
Atom  12O    basis set group =>   2
Atom  13C    basis set group =>   1
Atom  14N    basis set group =>   3
Atom  15N    basis set group =>   3
Atom  16C    basis set group =>   1
Atom  17C    basis set group =>   1
Atom  18C    basis set group =>   1
Atom  19O    basis set group =>   2
Atom  20N    basis set group =>   3
Atom  21C    basis set group =>   1
Atom  22O    basis set group =>   2
Atom  23C    basis set group =>   1
Atom  24O    basis set group =>   2
Atom  25H    basis set group =>   4
Atom  26H    basis set group =>   4
Atom  27H    basis set group =>   4
Atom  28H    basis set group =>   4
Atom  29H    basis set group =>   4
Atom  30H    basis set group =>   4
Atom  31H    basis set group =>   4
Atom  32H    basis set group =>   4
Atom  33H    basis set group =>   4
Atom  34H    basis set group =>   4
Atom  35H    basis set group =>   4
Atom  36H    basis set group =>   4
Atom  37H    basis set group =>   4
Atom  38H    basis set group =>   4
Atom  39H    basis set group =>   4
Atom  40H    basis set group =>   4
Atom  41H    basis set group =>   4


           ************************************************************
           *        Program running with 4 parallel MPI-processes     *
           *              working on a common directory               *
           ************************************************************
------------------------------------------------------------------------------
                           ORCA GTO INTEGRAL CALCULATION
                           -- RI-GTO INTEGRALS CHOSEN --
------------------------------------------------------------------------------
------------------------------------------------------------------------------
                   ___                                                        
                  /   \      - P O W E R E D   B Y -                         
                 /     \                                                     
                 |  |  |   _    _      __       _____    __    __             
                 |  |  |  | |  | |    /  \     |  _  \  |  |  /  |          
                  \  \/   | |  | |   /    \    | | | |  |  | /  /          
                 / \  \   | |__| |  /  /\  \   | |_| |  |  |/  /          
                |  |  |   |  __  | /  /__\  \  |    /   |      \           
                |  |  |   | |  | | |   __   |  |    \   |  |\   \          
                \     /   | |  | | |  |  |  |  | |\  \  |  | \   \       
                 \___/    |_|  |_| |__|  |__|  |_| \__\ |__|  \__/        
                                                                              
                      - O R C A' S   B I G   F R I E N D -                    
                                      &                                       
                       - I N T E G R A L  F E E D E R -                       
                                                                              
 v1 FN, 2020, v2 2021                                                         
------------------------------------------------------------------------------


Reading SHARK input file /lustre/hpc/kemi/ree/PhD/git/ReactivityQM/calculations/R02deprot/reac01prodN08/conf06/gfn1/orca_calc.SHARKINP.tmp ... ok
----------------------
SHARK INTEGRAL PACKAGE
----------------------

Number of atoms                             ...     42
Number of basis functions                   ...    615
Number of shells                            ...    287
Maximum angular momentum                    ...      2
Integral batch strategy                     ... SHARK/LIBINT Hybrid
RI-J (if used) integral strategy            ... SPLIT-RIJ (Revised 2003 algorithm where possible)
Printlevel                                  ...      1
Contraction scheme used                     ... SEGMENTED contraction
Coulomb Range Separation                    ... NOT USED
Exchange Range Separation                   ... NOT USED
Finite Nucleus Model                        ... NOT USED
Auxiliary Coulomb fitting basis             ... AVAILABLE
   # of basis functions in Aux-J            ...    937
   # of shells in Aux-J                     ...    385
   Maximum angular momentum in Aux-J        ...      2
Auxiliary J/K fitting basis                 ... NOT available
Auxiliary Correlation fitting basis         ... NOT available
Auxiliary 'external' fitting basis          ... NOT available
Integral threshold                          ...     1.000000e-10
Primitive cut-off                           ...     1.000000e-11
Primitive pair pre-selection threshold      ...     1.000000e-11

Calculating pre-screening integrals         ... done (  0.3 sec) Dimension = 287
Organizing shell pair data                  ... done (  0.3 sec)
Shell pair information
Total number of shell pairs                 ...     41328
Shell pairs after pre-screening             ...     26738
Total number of primitive shell pairs       ...    149932
Primitive shell pairs kept                  ...     59810
          la=0 lb=0:   7566 shell pairs
          la=1 lb=0:   9675 shell pairs
          la=1 lb=1:   3087 shell pairs
          la=2 lb=0:   3634 shell pairs
          la=2 lb=1:   2321 shell pairs
          la=2 lb=2:    455 shell pairs

Calculating one electron integrals          ... done (  0.1 sec)
Calculating RI/J V-Matrix + Cholesky decomp.... done (  0.1 sec)
Calculating Nuclear repulsion               ... done (  0.0 sec) ENN=   2298.210905471118 Eh

SHARK setup successfully completed in   0.9 seconds

Maximum memory used throughout the entire GTOINT-calculation: 39.4 MB


           ************************************************************
           *        Program running with 4 parallel MPI-processes     *
           *              working on a common directory               *
           ************************************************************
-------------------------------------------------------------------------------
                                 ORCA SCF
-------------------------------------------------------------------------------

------------
SCF SETTINGS
------------
Hamiltonian:
 Density Functional     Method          .... DFT(GTOs)
  Functional kind                       .... Exchange
  Functional name                       .... Re-regularized SCAN exchange by Furness et al
  Functional family                     .... MGGA
  Functional refs                              
    [ 0] J. W. Furness, A. D. Kaplan, J. Ning, J. P. Perdew, and J. Sun, J. Phys. Chem. Lett. 11, 8208 (2020)
    [ 1] J. W. Furness, A. D. Kaplan, J. Ning, J. P. Perdew, and J. Sun, J. Phys. Chem. Lett. 11, 9248 (2020)
  Functional external parameters         .... 8
 Parameter  0 :         c1 parameter
 Parameter  1 :         c2 parameter
 Parameter  2 :          d parameter
 Parameter  3 :         k1 parameter
 Parameter  4 :       taur parameter
 Parameter  5 :     alphar parameter
 Parameter  6 :        eta parameter
 Parameter  7 :        dp2 parameter
  Functional kind                       .... Correlation
  Functional name                       .... Re-regularized SCAN correlation by Furness et al
  Functional family                     .... MGGA
  Functional refs                              
    [ 0] J. W. Furness, A. D. Kaplan, J. Ning, J. P. Perdew, and J. Sun, J. Phys. Chem. Lett. 11, 8208 (2020)
    [ 1] J. W. Furness, A. D. Kaplan, J. Ning, J. P. Perdew, and J. Sun, J. Phys. Chem. Lett. 11, 9248 (2020)
  Functional external parameters         .... 0
 Gradients option       PostSCFGGA      .... off
   Density functional embedding theory  .... OFF
 RI-approximation to the Coulomb term is turned on
   Number of AuxJ basis functions       .... 937


General Settings:
 Integral files         IntName         .... /lustre/hpc/kemi/ree/PhD/git/ReactivityQM/calculations/R02deprot/reac01prodN08/conf06/gfn1/orca_calc
 Hartree-Fock type      HFTyp           .... RHF
 Total Charge           Charge          ....    0
 Multiplicity           Mult            ....    1
 Number of Electrons    NEL             ....  184
 Basis Dimension        Dim             ....  615
 Nuclear Repulsion      ENuc            ....   2298.2109054711 Eh

Convergence Acceleration:
 DIIS                   CNVDIIS         .... on
   Start iteration      DIISMaxIt       ....    12
   Startup error        DIISStart       ....  0.200000
   # of expansion vecs  DIISMaxEq       ....     5
   Bias factor          DIISBfac        ....   1.050
   Max. coefficient     DIISMaxC        ....  10.000
 Trust-Rad. Augm. Hess. CNVTRAH         .... auto
   Auto Start mean grad. ratio tolernc. ....  1.125000
   Auto Start start iteration           ....    20
   Auto Start num. interpolation iter.  ....    10
   Max. Number of Micro iterations      ....    16
   Max. Number of Macro iterations      .... Maxiter - #DIIS iter
   Number of Davidson start vectors     ....     2
   Converg. threshold I  (grad. norm)   ....   5.000e-05
   Converg. threshold II (energy diff.) ....   1.000e-06
   Grad. Scal. Fac. for Micro threshold ....   0.100
   Minimum threshold for Micro iter.    ....   0.010
   NR start threshold (gradient norm)   ....   0.001
   Initial trust radius                 ....   0.400
   Minimum AH scaling param. (alpha)    ....   1.000
   Maximum AH scaling param. (alpha)    .... 1000.000
   Orbital update algorithm             .... Taylor
   White noise on init. David. guess    .... on
   Maximum white noise                  ....   0.010
   Quad. conv. algorithm                .... NR
   COSX micro iterations for RIJONX calc.... off
 SOSCF                  CNVSOSCF        .... on
   Start iteration      SOSCFMaxIt      ....   150
   Startup grad/error   SOSCFStart      ....  0.003300
 Level Shifting         CNVShift        .... on
   Level shift para.    LevelShift      ....    0.2500
   Turn off err/grad.   ShiftErr        ....    0.0010
 Zerner damping         CNVZerner       .... off
 Static damping         CNVDamp         .... on
   Fraction old density DampFac         ....    0.7000
   Max. Damping (<1)    DampMax         ....    0.9800
   Min. Damping (>=0)   DampMin         ....    0.0000
   Turn off err/grad.   DampErr         ....    0.1000
 Fernandez-Rico         CNVRico         .... off

SCF Procedure:
 Maximum # iterations   MaxIter         ....   125
 SCF integral mode      SCFMode         .... Direct
   Integral package                     .... SHARK and LIBINT hybrid scheme
 Reset frequency        DirectResetFreq ....    20
 Integral Threshold     Thresh          ....  1.000e-10 Eh
 Primitive CutOff       TCut            ....  1.000e-11 Eh

Convergence Tolerance:
 Convergence Check Mode ConvCheckMode   .... Total+1el-Energy
 Convergence forced     ConvForced      .... 0
 Energy Change          TolE            ....  1.000e-06 Eh
 1-El. energy change                    ....  1.000e-03 Eh
 Orbital Gradient       TolG            ....  5.000e-05
 Orbital Rotation angle TolX            ....  5.000e-05
 DIIS Error             TolErr          ....  1.000e-06


Diagonalization of the overlap matrix:
Smallest eigenvalue                        ... 1.710e-05
Time for diagonalization                   ...    0.122 sec
Threshold for overlap eigenvalues          ... 1.000e-08
Number of eigenvalues below threshold      ... 0
Time for construction of square roots      ...    0.080 sec
Total time needed                          ...    0.205 sec

Time for model grid setup =    0.992 sec

------------------------------
INITIAL GUESS: MODEL POTENTIAL
------------------------------
Loading Hartree-Fock densities                     ... done
Calculating cut-offs                               ... done
Initializing the effective Hamiltonian             ... done
Setting up the integral package (SHARK)            ... done
Starting the Coulomb interaction                   ... done (   1.4 sec)
Reading the grid                                   ... done
Mapping shells                                     ... done
Starting the XC term evaluation                    ... done (   0.8 sec)
  promolecular density results
     # of electrons  =    183.987097815
     EX              =   -158.391350216
     EC              =     -6.257938347
     EX+EC           =   -164.649288564
Transforming the Hamiltonian                       ... done (   0.1 sec)
Diagonalizing the Hamiltonian                      ... done (   0.1 sec)
Back transforming the eigenvectors                 ... done (   0.0 sec)
Now organizing SCF variables                       ... done
                      ------------------
                      INITIAL GUESS DONE (   3.4 sec)
                      ------------------
-------------------
DFT GRID GENERATION
-------------------

General Integration Accuracy     IntAcc      ... 4.388
Radial Grid Type                 RadialGrid  ... OptM3 with GC (2021)
Angular Grid (max. ang.)         AngularGrid ... 4 (Lebedev-302)
Angular grid pruning method      GridPruning ... 4 (adaptive)
Weight generation scheme         WeightScheme... Becke
Basis function cutoff            BFCut       ... 1.0000e-10
Integration weight cutoff        WCut        ... 1.0000e-14
Angular grids for H and He will be reduced by one unit
Partially contracted basis set               ... off
Rotationally invariant grid construction     ... off

Total number of grid points                  ...   205957
Total number of batches                      ...     3241
Average number of points per batch           ...       63
Average number of grid points per atom       ...     4904
Time for grid setup =    3.181 sec


--------------------
CPCM SOLVATION MODEL
--------------------
CPCM parameters:
  Epsilon                                         ...      46.8260
  Refrac                                          ...       1.4170
  Rsolv                                           ...       1.3000
  Surface type                                    ... GAUSSIAN VDW
  Epsilon function type                           ...         CPCM
Solvent:                                     ... DMSO
SMD-CDS solvent descriptors:
  Soln                                       ...    1.4170
  Soln25                                     ...    1.4773
  Sola                                       ...    0.0000
  Solb                                       ...    0.8800
  Solg                                       ...   61.7800
  Solc                                       ...    0.0000
  Solh                                       ...    0.0000
Radii:
 Radius for C  used is    3.4960 Bohr (=   1.8500 Ang.)
 Radius for O  used is    4.3350 Bohr (=   2.2940 Ang.)
 Radius for N  used is    3.5716 Bohr (=   1.8900 Ang.)
 Radius for H  used is    2.2677 Bohr (=   1.2000 Ang.)
Calculating surface                               ...        done! (  0.0s)
GEPOL surface points                              ...         2080
GEPOL Volume                                      ...    2796.5919
GEPOL Surface-area                                ...    1361.7061
Calculating surface distance matrix               ...        done! (  0.1s)
Performing Cholesky decomposition & store         ...        done! (  0.3s)
Overall time for CPCM initialization              ...                 0.4s
--------------
SCF ITERATIONS
--------------
ITER       Energy         Delta-E        Max-DP      RMS-DP      [F,P]     Damp
               ***  Starting incremental Fock matrix formation  ***
  0  -1267.9770921472   0.000000000000 0.33787511  0.00202696  0.2871320 0.7000
  1  -1268.3120392839  -0.334947136732 0.35049477  0.00167397  0.1066116 0.7000
                               ***Turning on DIIS***
  2  -1268.4213696637  -0.109330379783 0.42341831  0.00239256  0.0339740 0.0000
  3  -1268.6188980310  -0.197528367236 0.30806504  0.00133534  0.0555655 0.0000
  4  -1268.6543155180  -0.035417487038 0.08733843  0.00039323  0.0213638 0.0000
  5  -1268.6585460072  -0.004230489240 0.05180937  0.00020889  0.0056100 0.0000
                      *** Initiating the SOSCF procedure ***
                           *** Shutting down DIIS ***
                      *** Re-Reading the Fockian *** 
                      *** Removing any level shift *** 
ITER      Energy       Delta-E        Grad      Rot      Max-DP    RMS-DP
  6  -1268.65871917  -0.0001731650  0.000342  0.000342  0.013875  0.000066
               *** Restarting incremental Fock matrix formation ***
  7  -1268.65875715  -0.0000379770  0.000220  0.001133  0.003730  0.000024
  8  -1268.65875472   0.0000024332  0.000344  0.000576  0.003480  0.000015
  9  -1268.65876110  -0.0000063871  0.000109  0.000387  0.001501  0.000008
 10  -1268.65876048   0.0000006254  0.000132  0.000326  0.000617  0.000005
 11  -1268.65876145  -0.0000009697  0.000041  0.000290  0.000298  0.000003
 12  -1268.65876136   0.0000000876  0.000062  0.000177  0.000396  0.000003
                  ***Gradient check signals convergence***
              ***Rediagonalizing the Fockian in SOSCF/NRSCF***

               *****************************************************
               *                     SUCCESS                       *
               *           SCF CONVERGED AFTER  13 CYCLES          *
               *****************************************************


SMD CDS free energy correction energy :                -0.64608     Kcal/mol
Total Energy after SMD CDS correction =             -1268.659791066 Eh

----------------
TOTAL SCF ENERGY
----------------

Total Energy       :        -1268.65979107 Eh          -34521.98798 eV

Components:
Nuclear Repulsion  :         2298.21090547 Eh           62537.49808 eV
Electronic Energy  :        -3566.87069654 Eh          -97059.48606 eV
One Electron Energy:        -6300.89459111 Eh         -171456.05848 eV
Two Electron Energy:         2734.02389457 Eh           74396.57242 eV
CPCM Dielectric    :           -0.07641257 Eh              -2.07929 eV
SMD CDS (Gcds)     :           -0.00102960 Eh              -0.02802 eV

Virial components:
Potential Energy   :        -2532.32179352 Eh          -68907.97922 eV
Kinetic Energy     :         1263.66200246 Eh           34385.99124 eV
Virial Ratio       :            2.00395500


DFT components:
N(Alpha)           :       92.000009813177 electrons
N(Beta)            :       92.000009813177 electrons
N(Total)           :      184.000019626354 electrons
E(X)               :     -161.967814109511 Eh       
E(C)               :       -6.128851500291 Eh       
E(XC)              :     -168.096665609802 Eh       
DFET-embed. en.    :        0.000000000000 Eh       
CPCM Solvation Model Properties:
Surface-charge          :           -0.03112050
Charge-correction       :            0.00029488 Eh               0.00802 eV
Free-energy (cav+disp)  :           -0.00102960 Eh              -0.02802 eV

---------------
SCF CONVERGENCE
---------------

  Last Energy change         ...   -1.0513e-07  Tolerance :   1.0000e-06
  Last MAX-Density change    ...    4.3958e-04  Tolerance :   1.0000e-05
  Last RMS-Density change    ...    3.4233e-06  Tolerance :   1.0000e-06
  Last Orbital Gradient      ...    8.0132e-06  Tolerance :   5.0000e-05
  Last Orbital Rotation      ...    2.9899e-05  Tolerance :   5.0000e-05

             **** THE GBW FILE WAS UPDATED (/lustre/hpc/kemi/ree/PhD/git/ReactivityQM/calculations/R02deprot/reac01prodN08/conf06/gfn1/orca_calc.gbw) ****
             **** DENSITY /lustre/hpc/kemi/ree/PhD/git/ReactivityQM/calculations/R02deprot/reac01prodN08/conf06/gfn1/orca_calc.scfp WAS UPDATED ****
             **** ENERGY FILE WAS UPDATED (/lustre/hpc/kemi/ree/PhD/git/ReactivityQM/calculations/R02deprot/reac01prodN08/conf06/gfn1/orca_calc.en.tmp) ****
             **** THE GBW FILE WAS UPDATED (/lustre/hpc/kemi/ree/PhD/git/ReactivityQM/calculations/R02deprot/reac01prodN08/conf06/gfn1/orca_calc.gbw) ****
             **** DENSITY /lustre/hpc/kemi/ree/PhD/git/ReactivityQM/calculations/R02deprot/reac01prodN08/conf06/gfn1/orca_calc.scfp WAS UPDATED ****
----------------
ORBITAL ENERGIES
----------------

  NO   OCC          E(Eh)            E(eV) 
   0   2.0000     -19.103495      -519.8325 
   1   2.0000     -18.995148      -516.8843 
   2   2.0000     -18.979793      -516.4664 
   3   2.0000     -18.934782      -515.2416 
   4   2.0000     -18.931717      -515.1582 
   5   2.0000     -18.901694      -514.3412 
   6   2.0000     -14.316749      -389.5785 
   7   2.0000     -14.248537      -387.7224 
   8   2.0000     -14.190732      -386.1495 
   9   2.0000     -14.143237      -384.8570 
  10   2.0000     -14.133731      -384.5984 
  11   2.0000     -10.208537      -277.7884 
  12   2.0000     -10.179936      -277.0102 
  13   2.0000     -10.161824      -276.5173 
  14   2.0000     -10.155056      -276.3331 
  15   2.0000     -10.106517      -275.0123 
  16   2.0000     -10.095577      -274.7146 
  17   2.0000     -10.089030      -274.5365 
  18   2.0000     -10.088714      -274.5279 
  19   2.0000     -10.087942      -274.5069 
  20   2.0000     -10.073607      -274.1168 
  21   2.0000     -10.071342      -274.0551 
  22   2.0000     -10.063698      -273.8471 
  23   2.0000     -10.017220      -272.5824 
  24   2.0000     -10.016858      -272.5726 
  25   2.0000      -1.209088       -32.9010 
  26   2.0000      -1.068949       -29.0876 
  27   2.0000      -1.049538       -28.5594 
  28   2.0000      -1.031591       -28.0710 
  29   2.0000      -1.023983       -27.8640 
  30   2.0000      -0.975746       -26.5514 
  31   2.0000      -0.970654       -26.4128 
  32   2.0000      -0.936533       -25.4844 
  33   2.0000      -0.906323       -24.6623 
  34   2.0000      -0.892980       -24.2992 
  35   2.0000      -0.829617       -22.5750 
  36   2.0000      -0.784460       -21.3463 
  37   2.0000      -0.767361       -20.8809 
  38   2.0000      -0.734196       -19.9785 
  39   2.0000      -0.722976       -19.6732 
  40   2.0000      -0.699171       -19.0254 
  41   2.0000      -0.687807       -18.7162 
  42   2.0000      -0.655784       -17.8448 
  43   2.0000      -0.636427       -17.3180 
  44   2.0000      -0.633876       -17.2486 
  45   2.0000      -0.609350       -16.5813 
  46   2.0000      -0.596968       -16.2443 
  47   2.0000      -0.557421       -15.1682 
  48   2.0000      -0.544405       -14.8140 
  49   2.0000      -0.530697       -14.4410 
  50   2.0000      -0.529293       -14.4028 
  51   2.0000      -0.513835       -13.9822 
  52   2.0000      -0.504027       -13.7153 
  53   2.0000      -0.487151       -13.2560 
  54   2.0000      -0.464755       -12.6466 
  55   2.0000      -0.462861       -12.5951 
  56   2.0000      -0.448739       -12.2108 
  57   2.0000      -0.447489       -12.1768 
  58   2.0000      -0.443781       -12.0759 
  59   2.0000      -0.440024       -11.9737 
  60   2.0000      -0.434304       -11.8180 
  61   2.0000      -0.427694       -11.6381 
  62   2.0000      -0.416643       -11.3374 
  63   2.0000      -0.415673       -11.3110 
  64   2.0000      -0.404645       -11.0109 
  65   2.0000      -0.401572       -10.9273 
  66   2.0000      -0.397593       -10.8191 
  67   2.0000      -0.394614       -10.7380 
  68   2.0000      -0.383879       -10.4459 
  69   2.0000      -0.382205       -10.4003 
  70   2.0000      -0.376317       -10.2401 
  71   2.0000      -0.364044        -9.9062 
  72   2.0000      -0.362498        -9.8641 
  73   2.0000      -0.352479        -9.5914 
  74   2.0000      -0.351993        -9.5782 
  75   2.0000      -0.344914        -9.3856 
  76   2.0000      -0.334928        -9.1139 
  77   2.0000      -0.334905        -9.1132 
  78   2.0000      -0.322577        -8.7778 
  79   2.0000      -0.322141        -8.7659 
  80   2.0000      -0.313368        -8.5272 
  81   2.0000      -0.312653        -8.5077 
  82   2.0000      -0.295975        -8.0539 
  83   2.0000      -0.273996        -7.4558 
  84   2.0000      -0.270998        -7.3742 
  85   2.0000      -0.250187        -6.8079 
  86   2.0000      -0.250132        -6.8064 
  87   2.0000      -0.246967        -6.7203 
  88   2.0000      -0.238009        -6.4766 
  89   2.0000      -0.219698        -5.9783 
  90   2.0000      -0.210226        -5.7206 
  91   2.0000      -0.185929        -5.0594 
  92   0.0000      -0.102048        -2.7769 
  93   0.0000      -0.079674        -2.1680 
  94   0.0000      -0.069421        -1.8890 
  95   0.0000      -0.012844        -0.3495 
  96   0.0000       0.033011         0.8983 
  97   0.0000       0.043347         1.1795 
  98   0.0000       0.044056         1.1988 
  99   0.0000       0.057380         1.5614 
 100   0.0000       0.061742         1.6801 
 101   0.0000       0.079219         2.1556 
 102   0.0000       0.083601         2.2749 
 103   0.0000       0.089717         2.4413 
 104   0.0000       0.095725         2.6048 
 105   0.0000       0.101307         2.7567 
 106   0.0000       0.112017         3.0481 
 107   0.0000       0.124955         3.4002 
 108   0.0000       0.130762         3.5582 
 109   0.0000       0.135665         3.6916 
 110   0.0000       0.138946         3.7809 
 111   0.0000       0.141423         3.8483 
 112   0.0000       0.141694         3.8557 
 113   0.0000       0.144844         3.9414 
 114   0.0000       0.146915         3.9978 
 115   0.0000       0.149982         4.0812 
 116   0.0000       0.157500         4.2858 
 117   0.0000       0.159113         4.3297 
 118   0.0000       0.161990         4.4080 
 119   0.0000       0.165361         4.4997 
 120   0.0000       0.167951         4.5702 
 121   0.0000       0.172654         4.6981 
 122   0.0000       0.177161         4.8208 
 123   0.0000       0.179742         4.8910 
 124   0.0000       0.181000         4.9253 
 125   0.0000       0.187889         5.1127 
 126   0.0000       0.192601         5.2409 
 127   0.0000       0.194112         5.2820 
 128   0.0000       0.196290         5.3413 
 129   0.0000       0.196631         5.3506 
 130   0.0000       0.199852         5.4382 
 131   0.0000       0.202825         5.5192 
 132   0.0000       0.207408         5.6439 
 133   0.0000       0.220472         5.9994 
 134   0.0000       0.223421         6.0796 
 135   0.0000       0.228792         6.2257 
 136   0.0000       0.229545         6.2462 
 137   0.0000       0.231761         6.3065 
 138   0.0000       0.235026         6.3954 
 139   0.0000       0.237469         6.4619 
 140   0.0000       0.239958         6.5296 
 141   0.0000       0.246857         6.7173 
 142   0.0000       0.250530         6.8173 
 143   0.0000       0.253679         6.9030 
 144   0.0000       0.257753         7.0138 
 145   0.0000       0.261443         7.1142 
 146   0.0000       0.271636         7.3916 
 147   0.0000       0.274396         7.4667 
 148   0.0000       0.281576         7.6621 
 149   0.0000       0.288048         7.8382 
 150   0.0000       0.289671         7.8823 
 151   0.0000       0.293823         7.9953 
 152   0.0000       0.294877         8.0240 
 153   0.0000       0.301345         8.2000 
 154   0.0000       0.308031         8.3819 
 155   0.0000       0.311576         8.4784 
 156   0.0000       0.312925         8.5151 
 157   0.0000       0.316281         8.6064 
 158   0.0000       0.320381         8.7180 
 159   0.0000       0.324825         8.8389 
 160   0.0000       0.332770         9.0551 
 161   0.0000       0.337777         9.1914 
 162   0.0000       0.345422         9.3994 
 163   0.0000       0.347869         9.4660 
 164   0.0000       0.348883         9.4936 
 165   0.0000       0.353131         9.6092 
 166   0.0000       0.360476         9.8091 
 167   0.0000       0.367758        10.0072 
 168   0.0000       0.372128        10.1261 
 169   0.0000       0.375116        10.2074 
 170   0.0000       0.376381        10.2418 
 171   0.0000       0.385535        10.4909 
 172   0.0000       0.391903        10.6642 
 173   0.0000       0.401469        10.9245 
 174   0.0000       0.401649        10.9294 
 175   0.0000       0.405843        11.0435 
 176   0.0000       0.412633        11.2283 
 177   0.0000       0.415555        11.3078 
 178   0.0000       0.422865        11.5067 
 179   0.0000       0.429141        11.6775 
 180   0.0000       0.430770        11.7219 
 181   0.0000       0.443600        12.0710 
 182   0.0000       0.445089        12.1115 
 183   0.0000       0.448991        12.2177 
 184   0.0000       0.455182        12.3861 
 185   0.0000       0.458892        12.4871 
 186   0.0000       0.469175        12.7669 
 187   0.0000       0.473603        12.8874 
 188   0.0000       0.475862        12.9489 
 189   0.0000       0.487656        13.2698 
 190   0.0000       0.491030        13.3616 
 191   0.0000       0.496349        13.5063 
 192   0.0000       0.508000        13.8234 
 193   0.0000       0.510200        13.8833 
 194   0.0000       0.514964        14.0129 
 195   0.0000       0.522722        14.2240 
 196   0.0000       0.522932        14.2297 
 197   0.0000       0.528901        14.3921 
 198   0.0000       0.538501        14.6534 
 199   0.0000       0.542669        14.7668 
 200   0.0000       0.547907        14.9093 
 201   0.0000       0.552726        15.0404 
 202   0.0000       0.558026        15.1847 
 203   0.0000       0.564329        15.3562 
 204   0.0000       0.571824        15.5601 
 205   0.0000       0.574209        15.6250 
 206   0.0000       0.575509        15.6604 
 207   0.0000       0.578925        15.7533 
 208   0.0000       0.588369        16.0103 
 209   0.0000       0.591703        16.1010 
 210   0.0000       0.607025        16.5180 
 211   0.0000       0.607895        16.5417 
 212   0.0000       0.610469        16.6117 
 213   0.0000       0.612864        16.6769 
 214   0.0000       0.614239        16.7143 
 215   0.0000       0.625246        17.0138 
 216   0.0000       0.634994        17.2791 
 217   0.0000       0.638302        17.3691 
 218   0.0000       0.647320        17.6145 
 219   0.0000       0.649496        17.6737 
 220   0.0000       0.655198        17.8288 
 221   0.0000       0.664094        18.0709 
 222   0.0000       0.666321        18.1315 
 223   0.0000       0.670931        18.2570 
 224   0.0000       0.674143        18.3444 
 225   0.0000       0.682029        18.5590 
 226   0.0000       0.687297        18.7023 
 227   0.0000       0.700706        19.0672 
 228   0.0000       0.702037        19.1034 
 229   0.0000       0.711701        19.3664 
 230   0.0000       0.714127        19.4324 
 231   0.0000       0.716027        19.4841 
 232   0.0000       0.726531        19.7699 
 233   0.0000       0.730792        19.8859 
 234   0.0000       0.736189        20.0327 
 235   0.0000       0.738773        20.1030 
 236   0.0000       0.746756        20.3203 
 237   0.0000       0.747877        20.3508 
 238   0.0000       0.762059        20.7367 
 239   0.0000       0.762301        20.7433 
 240   0.0000       0.764372        20.7996 
 241   0.0000       0.773302        21.0426 
 242   0.0000       0.775548        21.1037 
 243   0.0000       0.783495        21.3200 
 244   0.0000       0.787414        21.4266 
 245   0.0000       0.791258        21.5312 
 246   0.0000       0.797189        21.6926 
 247   0.0000       0.800683        21.7877 
 248   0.0000       0.811414        22.0797 
 249   0.0000       0.816430        22.2162 
 250   0.0000       0.820338        22.3225 
 251   0.0000       0.823802        22.4168 
 252   0.0000       0.827521        22.5180 
 253   0.0000       0.846824        23.0433 
 254   0.0000       0.848662        23.0933 
 255   0.0000       0.853520        23.2255 
 256   0.0000       0.858540        23.3621 
 257   0.0000       0.863699        23.5024 
 258   0.0000       0.871862        23.7246 
 259   0.0000       0.878735        23.9116 
 260   0.0000       0.880464        23.9586 
 261   0.0000       0.897239        24.4151 
 262   0.0000       0.900890        24.5145 
 263   0.0000       0.908103        24.7107 
 264   0.0000       0.916056        24.9271 
 265   0.0000       0.925362        25.1804 
 266   0.0000       0.927915        25.2498 
 267   0.0000       0.931848        25.3569 
 268   0.0000       0.944647        25.7051 
 269   0.0000       0.948676        25.8148 
 270   0.0000       0.956074        26.0161 
 271   0.0000       0.966477        26.2992 
 272   0.0000       0.974818        26.5262 
 273   0.0000       0.985314        26.8118 
 274   0.0000       0.993011        27.0212 
 275   0.0000       1.001923        27.2637 
 276   0.0000       1.015769        27.6405 
 277   0.0000       1.022908        27.8347 
 278   0.0000       1.028338        27.9825 
 279   0.0000       1.036372        28.2011 
 280   0.0000       1.042243        28.3609 
 281   0.0000       1.047184        28.4953 
 282   0.0000       1.056439        28.7472 
 283   0.0000       1.071509        29.1573 
 284   0.0000       1.087192        29.5840 
 285   0.0000       1.092541        29.7295 
 286   0.0000       1.105424        30.0801 
 287   0.0000       1.113703        30.3054 
 288   0.0000       1.124358        30.5953 
 289   0.0000       1.126644        30.6575 
 290   0.0000       1.129507        30.7355 
 291   0.0000       1.142891        31.0996 
 292   0.0000       1.148867        31.2623 
 293   0.0000       1.152261        31.3546 
 294   0.0000       1.163760        31.6675 
 295   0.0000       1.165908        31.7260 
 296   0.0000       1.178291        32.0629 
 297   0.0000       1.194122        32.4937 
 298   0.0000       1.198728        32.6190 
 299   0.0000       1.216404        33.1000 
 300   0.0000       1.219296        33.1787 
 301   0.0000       1.229815        33.4650 
 302   0.0000       1.246446        33.9175 
 303   0.0000       1.251229        34.0477 
 304   0.0000       1.259616        34.2759 
 305   0.0000       1.270923        34.5836 
 306   0.0000       1.273751        34.6605 
 307   0.0000       1.294106        35.2144 
 308   0.0000       1.297561        35.3084 
 309   0.0000       1.310358        35.6567 
 310   0.0000       1.316098        35.8129 
 311   0.0000       1.316997        35.8373 
 312   0.0000       1.326208        36.0880 
 313   0.0000       1.329470        36.1767 
 314   0.0000       1.332181        36.2505 
 315   0.0000       1.334655        36.3178 
 316   0.0000       1.345566        36.6147 
 317   0.0000       1.351234        36.7690 
 318   0.0000       1.354573        36.8598 
 319   0.0000       1.365237        37.1500 
 320   0.0000       1.376839        37.4657 
 321   0.0000       1.386544        37.7298 
 322   0.0000       1.391194        37.8563 
 323   0.0000       1.394884        37.9567 
 324   0.0000       1.407020        38.2870 
 325   0.0000       1.412027        38.4232 
 326   0.0000       1.427759        38.8513 
 327   0.0000       1.445342        39.3298 
 328   0.0000       1.455500        39.6062 
 329   0.0000       1.469544        39.9883 
 330   0.0000       1.478035        40.2194 
 331   0.0000       1.488053        40.4920 
 332   0.0000       1.500680        40.8356 
 333   0.0000       1.517574        41.2953 
 334   0.0000       1.523468        41.4557 
 335   0.0000       1.542197        41.9653 
 336   0.0000       1.548481        42.1363 
 337   0.0000       1.552806        42.2540 
 338   0.0000       1.568339        42.6767 
 339   0.0000       1.581395        43.0320 
 340   0.0000       1.604346        43.6565 
 341   0.0000       1.614585        43.9351 
 342   0.0000       1.650783        44.9201 
 343   0.0000       1.660404        45.1819 
 344   0.0000       1.663795        45.2742 
 345   0.0000       1.670741        45.4632 
 346   0.0000       1.678222        45.6667 
 347   0.0000       1.687222        45.9116 
 348   0.0000       1.693873        46.0926 
 349   0.0000       1.700701        46.2784 
 350   0.0000       1.720827        46.8261 
 351   0.0000       1.731973        47.1294 
 352   0.0000       1.736168        47.2435 
 353   0.0000       1.745108        47.4868 
 354   0.0000       1.749980        47.6194 
 355   0.0000       1.768828        48.1322 
 356   0.0000       1.773664        48.2638 
 357   0.0000       1.777846        48.3776 
 358   0.0000       1.790481        48.7215 
 359   0.0000       1.795288        48.8523 
 360   0.0000       1.800136        48.9842 
 361   0.0000       1.804357        49.0990 
 362   0.0000       1.812111        49.3100 
 363   0.0000       1.830025        49.7975 
 364   0.0000       1.840768        50.0898 
 365   0.0000       1.841487        50.1094 
 366   0.0000       1.851882        50.3923 
 367   0.0000       1.857988        50.5584 
 368   0.0000       1.866464        50.7891 
 369   0.0000       1.871789        50.9340 
 370   0.0000       1.877152        51.0799 
 371   0.0000       1.881502        51.1983 
 372   0.0000       1.886735        51.3407 
 373   0.0000       1.889226        51.4084 
 374   0.0000       1.899758        51.6951 
 375   0.0000       1.902206        51.7617 
 376   0.0000       1.907842        51.9150 
 377   0.0000       1.925983        52.4087 
 378   0.0000       1.927618        52.4532 
 379   0.0000       1.933436        52.6115 
 380   0.0000       1.941596        52.8335 
 381   0.0000       1.944410        52.9101 
 382   0.0000       1.964912        53.4680 
 383   0.0000       1.967400        53.5357 
 384   0.0000       1.987452        54.0813 
 385   0.0000       1.992547        54.2200 
 386   0.0000       2.013609        54.7931 
 387   0.0000       2.027712        55.1768 
 388   0.0000       2.033233        55.3271 
 389   0.0000       2.049492        55.7695 
 390   0.0000       2.062121        56.1132 
 391   0.0000       2.076968        56.5172 
 392   0.0000       2.080219        56.6056 
 393   0.0000       2.086773        56.7840 
 394   0.0000       2.094523        56.9949 
 395   0.0000       2.097351        57.0718 
 396   0.0000       2.105257        57.2870 
 397   0.0000       2.120366        57.6981 
 398   0.0000       2.124875        57.8208 
 399   0.0000       2.136918        58.1485 
 400   0.0000       2.146063        58.3973 
 401   0.0000       2.156447        58.6799 
 402   0.0000       2.161082        58.8060 
 403   0.0000       2.161980        58.8305 
 404   0.0000       2.182408        59.3863 
 405   0.0000       2.195079        59.7311 
 406   0.0000       2.202280        59.9271 
 407   0.0000       2.206876        60.0521 
 408   0.0000       2.209454        60.1223 
 409   0.0000       2.240751        60.9739 
 410   0.0000       2.243052        61.0365 
 411   0.0000       2.268087        61.7178 
 412   0.0000       2.270417        61.7812 
 413   0.0000       2.273835        61.8742 
 414   0.0000       2.275552        61.9209 
 415   0.0000       2.284842        62.1737 
 416   0.0000       2.289784        62.3082 
 417   0.0000       2.307036        62.7776 
 418   0.0000       2.310414        62.8695 
 419   0.0000       2.313453        62.9523 
 420   0.0000       2.318163        63.0804 
 421   0.0000       2.320259        63.1375 
 422   0.0000       2.330439        63.4145 
 423   0.0000       2.344997        63.8106 
 424   0.0000       2.350608        63.9633 
 425   0.0000       2.355542        64.0976 
 426   0.0000       2.367227        64.4155 
 427   0.0000       2.384726        64.8917 
 428   0.0000       2.394147        65.1481 
 429   0.0000       2.401083        65.3368 
 430   0.0000       2.406454        65.4829 
 431   0.0000       2.412465        65.6465 
 432   0.0000       2.429763        66.1172 
 433   0.0000       2.435081        66.2619 
 434   0.0000       2.442131        66.4538 
 435   0.0000       2.445261        66.5389 
 436   0.0000       2.463245        67.0283 
 437   0.0000       2.474041        67.3221 
 438   0.0000       2.476000        67.3754 
 439   0.0000       2.483484        67.5790 
 440   0.0000       2.492715        67.8302 
 441   0.0000       2.506221        68.1977 
 442   0.0000       2.527874        68.7870 
 443   0.0000       2.531542        68.8868 
 444   0.0000       2.536236        69.0145 
 445   0.0000       2.543234        69.2049 
 446   0.0000       2.544637        69.2431 
 447   0.0000       2.569397        69.9168 
 448   0.0000       2.579363        70.1880 
 449   0.0000       2.585110        70.3444 
 450   0.0000       2.592028        70.5327 
 451   0.0000       2.601029        70.7776 
 452   0.0000       2.603692        70.8501 
 453   0.0000       2.612780        71.0974 
 454   0.0000       2.626035        71.4581 
 455   0.0000       2.643915        71.9446 
 456   0.0000       2.645840        71.9970 
 457   0.0000       2.650836        72.1329 
 458   0.0000       2.652675        72.1830 
 459   0.0000       2.666775        72.5666 
 460   0.0000       2.668841        72.6228 
 461   0.0000       2.671033        72.6825 
 462   0.0000       2.681379        72.9640 
 463   0.0000       2.687094        73.1195 
 464   0.0000       2.690698        73.2176 
 465   0.0000       2.692198        73.2584 
 466   0.0000       2.695197        73.3400 
 467   0.0000       2.704291        73.5875 
 468   0.0000       2.712812        73.8194 
 469   0.0000       2.715812        73.9010 
 470   0.0000       2.720083        74.0172 
 471   0.0000       2.731089        74.3167 
 472   0.0000       2.738748        74.5251 
 473   0.0000       2.744122        74.6713 
 474   0.0000       2.746061        74.7241 
 475   0.0000       2.758531        75.0634 
 476   0.0000       2.762459        75.1703 
 477   0.0000       2.765637        75.2568 
 478   0.0000       2.779718        75.6400 
 479   0.0000       2.790453        75.9321 
 480   0.0000       2.794184        76.0336 
 481   0.0000       2.808145        76.4135 
 482   0.0000       2.814200        76.5783 
 483   0.0000       2.818966        76.7080 
 484   0.0000       2.823325        76.8266 
 485   0.0000       2.827800        76.9483 
 486   0.0000       2.836798        77.1932 
 487   0.0000       2.839607        77.2696 
 488   0.0000       2.854188        77.6664 
 489   0.0000       2.855082        77.6907 
 490   0.0000       2.864003        77.9335 
 491   0.0000       2.876626        78.2770 
 492   0.0000       2.881759        78.4166 
 493   0.0000       2.892019        78.6958 
 494   0.0000       2.901252        78.9471 
 495   0.0000       2.907143        79.1074 
 496   0.0000       2.914491        79.3073 
 497   0.0000       2.917502        79.3893 
 498   0.0000       2.925424        79.6048 
 499   0.0000       2.943286        80.0909 
 500   0.0000       2.951339        80.3100 
 501   0.0000       2.957519        80.4782 
 502   0.0000       2.963163        80.6318 
 503   0.0000       2.968251        80.7702 
 504   0.0000       2.979082        81.0649 
 505   0.0000       2.983295        81.1796 
 506   0.0000       2.992007        81.4167 
 507   0.0000       3.004447        81.7552 
 508   0.0000       3.014134        82.0188 
 509   0.0000       3.021621        82.2225 
 510   0.0000       3.021932        82.2309 
 511   0.0000       3.033288        82.5400 
 512   0.0000       3.036244        82.6204 
 513   0.0000       3.045170        82.8633 
 514   0.0000       3.049347        82.9770 
 515   0.0000       3.063007        83.3487 
 516   0.0000       3.066327        83.4390 
 517   0.0000       3.076152        83.7064 
 518   0.0000       3.079649        83.8015 
 519   0.0000       3.083046        83.8939 
 520   0.0000       3.085699        83.9661 
 521   0.0000       3.092264        84.1448 
 522   0.0000       3.118514        84.8591 
 523   0.0000       3.121903        84.9513 
 524   0.0000       3.133960        85.2794 
 525   0.0000       3.137062        85.3638 
 526   0.0000       3.147501        85.6479 
 527   0.0000       3.159688        85.9795 
 528   0.0000       3.161191        86.0204 
 529   0.0000       3.163140        86.0734 
 530   0.0000       3.188140        86.7537 
 531   0.0000       3.197738        87.0149 
 532   0.0000       3.233008        87.9746 
 533   0.0000       3.237361        88.0931 
 534   0.0000       3.252901        88.5159 
 535   0.0000       3.276060        89.1461 
 536   0.0000       3.303417        89.8905 
 537   0.0000       3.308749        90.0356 
 538   0.0000       3.318213        90.2932 
 539   0.0000       3.321710        90.3883 
 540   0.0000       3.333283        90.7032 
 541   0.0000       3.338716        90.8511 
 542   0.0000       3.348424        91.1152 
 543   0.0000       3.352415        91.2238 
 544   0.0000       3.371193        91.7348 
 545   0.0000       3.381943        92.0273 
 546   0.0000       3.417610        92.9979 
 547   0.0000       3.435796        93.4928 
 548   0.0000       3.475183        94.5645 
 549   0.0000       3.487670        94.9043 
 550   0.0000       3.500160        95.2442 
 551   0.0000       3.505163        95.3803 
 552   0.0000       3.520962        95.8103 
 553   0.0000       3.527200        95.9800 
 554   0.0000       3.538343        96.2832 
 555   0.0000       3.544472        96.4500 
 556   0.0000       3.554129        96.7128 
 557   0.0000       3.564918        97.0064 
 558   0.0000       3.565710        97.0279 
 559   0.0000       3.600178        97.9658 
 560   0.0000       3.603596        98.0588 
 561   0.0000       3.613208        98.3204 
 562   0.0000       3.616805        98.4183 
 563   0.0000       3.621666        98.5505 
 564   0.0000       3.630927        98.8025 
 565   0.0000       3.665569        99.7452 
 566   0.0000       3.682381       100.2027 
 567   0.0000       3.712148       101.0127 
 568   0.0000       3.726907       101.4143 
 569   0.0000       3.738034       101.7171 
 570   0.0000       3.824059       104.0579 
 571   0.0000       3.850502       104.7775 
 572   0.0000       3.866361       105.2090 
 573   0.0000       3.911732       106.4436 
 574   0.0000       3.949989       107.4847 
 575   0.0000       3.994847       108.7053 
 576   0.0000       4.041298       109.9693 
 577   0.0000       4.045567       110.0855 
 578   0.0000       4.147504       112.8593 
 579   0.0000       4.173294       113.5611 
 580   0.0000       4.209014       114.5331 
 581   0.0000       4.308221       117.2327 
 582   0.0000       4.334837       117.9569 
 583   0.0000       4.365641       118.7951 
 584   0.0000       4.390913       119.4828 
 585   0.0000       4.442884       120.8970 
 586   0.0000       4.495449       122.3274 
 587   0.0000       4.541368       123.5769 
 588   0.0000       4.585783       124.7855 
 589   0.0000       4.623436       125.8101 
 590   0.0000      21.953710       597.3908 
 591   0.0000      21.994863       598.5106 
 592   0.0000      22.027824       599.4076 
 593   0.0000      22.037560       599.6725 
 594   0.0000      22.083315       600.9176 
 595   0.0000      22.101215       601.4046 
 596   0.0000      22.134228       602.3030 
 597   0.0000      22.216481       604.5412 
 598   0.0000      22.257717       605.6633 
 599   0.0000      22.315666       607.2401 
 600   0.0000      22.356643       608.3552 
 601   0.0000      22.379798       608.9853 
 602   0.0000      22.429584       610.3400 
 603   0.0000      22.521530       612.8420 
 604   0.0000      31.906203       868.2119 
 605   0.0000      31.989225       870.4711 
 606   0.0000      32.075584       872.8210 
 607   0.0000      32.192664       876.0069 
 608   0.0000      32.301445       878.9670 
 609   0.0000      43.656906      1187.9648 
 610   0.0000      43.765030      1190.9070 
 611   0.0000      43.794462      1191.7079 
 612   0.0000      43.802559      1191.9282 
 613   0.0000      43.885317      1194.1802 
 614   0.0000      43.985429      1196.9044 

                    ********************************
                    * MULLIKEN POPULATION ANALYSIS *
                    ********************************

-----------------------
MULLIKEN ATOMIC CHARGES
-----------------------
   0 C :   -0.319125
   1 O :   -0.160417
   2 C :    0.154807
   3 O :   -0.427352
   4 C :    0.059272
   5 N :   -0.232458
   6 C :    0.437216
   7 C :   -0.217610
   8 C :   -0.604226
   9 C :   -0.605228
  10 N :    0.062069
  11 C :   -0.114492
  12 O :   -0.433454
  13 C :    0.445980
  14 N :   -0.375346
  15 N :    0.441174
  16 C :   -0.390625
  17 C :    0.297793
  18 C :   -0.627345
  19 O :   -0.000249
  20 N :   -0.267401
  21 C :   -0.006494
  22 O :   -0.469768
  23 C :    0.062117
  24 O :   -0.358778
  25 H :    0.173973
  26 H :    0.172441
  27 H :    0.172548
  28 H :    0.188158
  29 H :    0.180015
  30 H :    0.190927
  31 H :    0.188084
  32 H :    0.188672
  33 H :    0.180244
  34 H :    0.344450
  35 H :    0.213715
  36 H :    0.211395
  37 H :    0.208397
  38 H :    0.225626
  39 H :    0.233488
  40 H :    0.229237
  41 H :    0.348573
Sum of atomic charges:   -0.0000000

--------------------------------
MULLIKEN REDUCED ORBITAL CHARGES
--------------------------------
  0 C s       :     3.330772  s :     3.330772
      pz      :     0.985811  p :     2.943385
      px      :     1.133528
      py      :     0.824046
      dz2     :     0.009390  d :     0.044969
      dxz     :     0.005436
      dyz     :     0.012194
      dx2y2   :     0.007954
      dxy     :     0.009995
  1 O s       :     3.694696  s :     3.694696
      pz      :     1.592331  p :     4.423628
      px      :     1.501329
      py      :     1.329968
      dz2     :     0.007613  d :     0.042093
      dxz     :     0.010052
      dyz     :     0.000589
      dx2y2   :     0.005394
      dxy     :     0.018445
  2 C s       :     3.187601  s :     3.187601
      pz      :     0.833409  p :     2.531767
      px      :     0.801243
      py      :     0.897114
      dz2     :     0.012978  d :     0.125826
      dxz     :     0.030166
      dyz     :     0.010549
      dx2y2   :     0.032320
      dxy     :     0.039813
  3 O s       :     3.844275  s :     3.844275
      pz      :     1.533364  p :     4.557901
      px      :     1.360041
      py      :     1.664497
      dz2     :     0.004317  d :     0.025176
      dxz     :     0.007126
      dyz     :     0.002113
      dx2y2   :     0.006618
      dxy     :     0.005002
  4 C s       :     3.225956  s :     3.225956
      pz      :     0.955455  p :     2.652774
      px      :     0.838983
      py      :     0.858336
      dz2     :     0.005912  d :     0.061998
      dxz     :     0.013026
      dyz     :     0.008347
      dx2y2   :     0.018268
      dxy     :     0.016445
  5 N s       :     3.410282  s :     3.410282
      pz      :     1.269595  p :     3.741206
      px      :     1.345618
      py      :     1.125993
      dz2     :     0.017018  d :     0.080970
      dxz     :     0.013349
      dyz     :     0.004442
      dx2y2   :     0.033175
      dxy     :     0.012985
  6 C s       :     3.023866  s :     3.023866
      pz      :     0.819856  p :     2.451968
      px      :     0.848159
      py      :     0.783953
      dz2     :     0.012681  d :     0.086950
      dxz     :     0.015690
      dyz     :     0.012002
      dx2y2   :     0.021884
      dxy     :     0.024694
  7 C s       :     3.267350  s :     3.267350
      pz      :     0.933028  p :     2.881570
      px      :     0.987127
      py      :     0.961415
      dz2     :     0.016120  d :     0.068689
      dxz     :     0.012663
      dyz     :     0.012388
      dx2y2   :     0.010440
      dxy     :     0.017078
  8 C s       :     3.414013  s :     3.414013
      pz      :     1.082187  p :     3.162907
      px      :     1.134831
      py      :     0.945889
      dz2     :     0.008180  d :     0.027305
      dxz     :     0.001978
      dyz     :     0.004637
      dx2y2   :     0.005415
      dxy     :     0.007096
  9 C s       :     3.416626  s :     3.416626
      pz      :     0.910265  p :     3.161280
      px      :     1.130695
      py      :     1.120320
      dz2     :     0.008574  d :     0.027322
      dxz     :     0.004643
      dyz     :     0.005218
      dx2y2   :     0.004227
      dxy     :     0.004660
 10 N s       :     3.289409  s :     3.289409
      pz      :     1.429014  p :     3.574668
      px      :     0.907271
      py      :     1.238383
      dz2     :     0.016332  d :     0.073854
      dxz     :     0.013004
      dyz     :     0.010780
      dx2y2   :     0.006770
      dxy     :     0.026968
 11 C s       :     3.253581  s :     3.253581
      pz      :     0.873553  p :     2.737494
      px      :     1.014644
      py      :     0.849297
      dz2     :     0.012576  d :     0.123416
[...]
  0 C s       :     2.905412  s :     2.905412
      pz      :     1.018176  p :     3.031430
      px      :     1.112331
      py      :     0.900923
      dz2     :     0.021953  d :     0.105400
      dxz     :     0.013283
      dyz     :     0.027405
      dx2y2   :     0.017467
      dxy     :     0.025292
  1 O s       :     3.465822  s :     3.465822
      pz      :     1.612438  p :     4.640426
      px      :     1.581142
      py      :     1.446845
      dz2     :     0.080578  d :     0.473461
      dxz     :     0.069536
      dyz     :     0.094255
      dx2y2   :     0.105076
      dxy     :     0.124016
  2 C s       :     2.721579  s :     2.721579
      pz      :     0.794287  p :     2.605012
      px      :     0.939396
      py      :     0.871329
      dz2     :     0.027646  d :     0.267461
      dxz     :     0.061064
      dyz     :     0.020227
      dx2y2   :     0.072988
      dxy     :     0.085537
  3 O s       :     3.543664  s :     3.543664
      pz      :     1.524990  p :     4.670297
      px      :     1.504464
      py      :     1.640844
      dz2     :     0.029241  d :     0.232915
      dxz     :     0.052503
      dyz     :     0.020786
      dx2y2   :     0.067599
      dxy     :     0.062785
  4 C s       :     2.763771  s :     2.763771
      pz      :     0.965519  p :     2.922594
      px      :     0.998791
      py      :     0.958285
      dz2     :     0.011600  d :     0.129368
      dxz     :     0.026506
      dyz     :     0.016017
      dx2y2   :     0.040223
      dxy     :     0.035022
  5 N s       :     3.191636  s :     3.191636
      pz      :     1.267901  p :     3.895929
      px      :     1.402799
      py      :     1.225229
      dz2     :     0.081041  d :     0.550916
      dxz     :     0.095357
      dyz     :     0.098437
      dx2y2   :     0.141555
      dxy     :     0.134526
  6 C s       :     2.708990  s :     2.708990
      pz      :     0.871748  p :     2.788368
      px      :     0.968017
      py      :     0.948604
      dz2     :     0.024294  d :     0.185942
      dxz     :     0.033113
      dyz     :     0.027548
      dx2y2   :     0.045189
      dxy     :     0.055796
  7 C s       :     2.785701  s :     2.785701
      pz      :     1.033964  p :     2.971820
      px      :     0.926343
      py      :     1.011514
      dz2     :     0.033441  d :     0.133248
      dxz     :     0.022677
      dyz     :     0.022122
      dx2y2   :     0.022245
      dxy     :     0.032762
  8 C s       :     2.960468  s :     2.960468
      pz      :     1.138617  p :     3.328648
      px      :     1.154101
      py      :     1.035930
      dz2     :     0.019038  d :     0.061614
      dxz     :     0.004737
      dyz     :     0.009931
      dx2y2   :     0.011631
      dxy     :     0.016277
  9 C s       :     2.960999  s :     2.960999
      pz      :     1.019343  p :     3.327746
      px      :     1.152637
      py      :     1.155765
      dz2     :     0.018499  d :     0.061647
      dxz     :     0.010134
      dyz     :     0.011281
      dx2y2   :     0.010147
      dxy     :     0.011586
 10 N s       :     3.093078  s :     3.093078
      pz      :     1.416281  p :     3.910280
      px      :     1.184341
      py      :     1.309658
      dz2     :     0.087808  d :     0.585336
      dxz     :     0.123104
      dyz     :     0.060947
      dx2y2   :     0.150535
      dxy     :     0.162943
 11 C s       :     2.705718  s :     2.705718
      pz      :     0.812862  p :     2.654696
      px      :     0.953624
      py      :     0.888209
      dz2     :     0.025414  d :     0.261018
      dxz     :     0.046659
      dyz     :     0.037731
      dx2y2   :     0.083793
      dxy     :     0.067421
 12 O s       :     3.545725  s :     3.545725
      pz      :     1.519980  p :     4.695343
      px      :     1.655134
      py      :     1.520230
      dz2     :     0.029153  d :     0.207663
      dxz     :     0.028970
      dyz     :     0.043777
      dx2y2   :     0.051332
      dxy     :     0.054429
 13 C s       :     2.727499  s :     2.727499
      pz      :     0.838890  p :     2.620891
      px      :     0.927718
      py      :     0.854283
      dz2     :     0.018022  d :     0.174338
      dxz     :     0.036696
      dyz     :     0.019387
      dx2y2   :     0.043747
      dxy     :     0.056486
 14 N s       :     3.156514  s :     3.156514
      pz      :     1.095243  p :     3.556886
      px      :     1.330517
      py      :     1.131125
      dz2     :     0.092611  d :     0.486973
      dxz     :     0.073722
      dyz     :     0.089526
      dx2y2   :     0.123627
      dxy     :     0.107487
 15 N s       :     2.996833  s :     2.996833
      pz      :     1.255398  p :     3.639731
      px      :     1.194238
      py      :     1.190095
      dz2     :     0.120435  d :     0.874372
      dxz     :     0.176824
      dyz     :     0.130814
      dx2y2   :     0.223763
      dxy     :     0.222536
 16 C s       :     2.875969  s :     2.875969
      pz      :     1.077045  p :     3.064280
      px      :     0.906471
      py      :     1.080763
      dz2     :     0.009174  d :     0.081235
      dxz     :     0.025953
      dyz     :     0.012105
      dx2y2   :     0.020199
      dxy     :     0.013804
 17 C s       :     2.714232  s :     2.714232
      pz      :     0.803697  p :     2.613639
      px      :     0.889774
      py      :     0.920168
      dz2     :     0.023581  d :     0.190463
      dxz     :     0.039059
      dyz     :     0.023331
      dx2y2   :     0.046632
      dxy     :     0.057860
 18 C s       :     2.942420  s :     2.942420
      pz      :     1.122710  p :     3.297990
      px      :     1.144232
      py      :     1.031047
      dz2     :     0.012214  d :     0.057026
      dxz     :     0.006523
      dyz     :     0.013727
      dx2y2   :     0.015367
      dxy     :     0.009195
 19 O s       :     3.412737  s :     3.412737
      pz      :     1.500378  p :     4.457078
      px      :     1.579366
      py      :     1.377333
      dz2     :     0.080881  d :     0.477934
      dxz     :     0.072510
      dyz     :     0.097168
      dx2y2   :     0.112919
      dxy     :     0.114456
 20 N s       :     3.212394  s :     3.212394
      pz      :     1.341180  p :     3.925772
      px      :     1.141344
      py      :     1.443248
      dz2     :     0.054314  d :     0.430353
      dxz     :     0.100214
      dyz     :     0.040327
      dx2y2   :     0.120191
      dxy     :     0.115307
 21 C s       :     2.727965  s :     2.727965
      pz      :     0.836337  p :     2.719486
      px      :     0.972601
      py      :     0.910549
      dz2     :     0.022827  d :     0.244051
      dxz     :     0.054471
      dyz     :     0.022374
      dx2y2   :     0.075257
      dxy     :     0.069122
 22 O s       :     3.557487  s :     3.557487
      pz      :     1.584987  p :     4.758226
      px      :     1.506809
      py      :     1.666430
      dz2     :     0.027528  d :     0.233893
      dxz     :     0.054176
      dyz     :     0.025484
      dx2y2   :     0.063063
      dxy     :     0.063642
 23 C s       :     2.778504  s :     2.778504
      pz      :     0.926930  p :     2.802477
      px      :     0.922728
      py      :     0.952819
      dz2     :     0.014366  d :     0.155588
      dxz     :     0.037174
      dyz     :     0.015410
      dx2y2   :     0.043744
      dxy     :     0.044894
 24 O s       :     3.483120  s :     3.483120
      pz      :     1.711145  p :     4.697826
      px      :     1.335725
      py      :     1.650957
      dz2     :     0.026815  d :     0.290081
      dxz     :     0.071566
      dyz     :     0.034739
      dx2y2   :     0.064989
      dxy     :     0.091972
 25 H s       :     0.775708  s :     0.775708
      pz      :     0.006992  p :     0.040430
      px      :     0.024386
      py      :     0.009052
 26 H s       :     0.777742  s :     0.777742
      pz      :     0.011768  p :     0.041473
      px      :     0.016396
      py      :     0.013309
 27 H s       :     0.778998  s :     0.778998
      pz      :     0.022952  p :     0.041241
      px      :     0.011165
      py      :     0.007124
 28 H s       :     0.781291  s :     0.781291
      pz      :     0.010472  p :     0.044719
      px      :     0.021492
      py      :     0.012755
 29 H s       :     0.784440  s :     0.784440
      pz      :     0.028057  p :     0.043738
      px      :     0.008292
      py      :     0.007390
 30 H s       :     0.782899  s :     0.782899
      pz      :     0.009051  p :     0.044866
      px      :     0.023218
      py      :     0.012598
 31 H s       :     0.781315  s :     0.781315
      pz      :     0.011082  p :     0.044716
      px      :     0.021387
      py      :     0.012248
 32 H s       :     0.784869  s :     0.784869
      pz      :     0.008779  p :     0.044574
      px      :     0.022728
      py      :     0.013067
 33 H s       :     0.784624  s :     0.784624
      pz      :     0.009985  p :     0.043716
      px      :     0.008251
      py      :     0.025479
 34 H s       :     0.570904  s :     0.570904
      pz      :     0.027373  p :     0.105792
      px      :     0.030465
      py      :     0.047954
 35 H s       :     0.744357  s :     0.744357
      pz      :     0.020024  p :     0.041954
      px      :     0.006879
      py      :     0.015050
 36 H s       :     0.741966  s :     0.741966
      pz      :     0.019189  p :     0.042012
      px      :     0.015490
      py      :     0.007334
 37 H s       :     0.742176  s :     0.742176
      pz      :     0.009830  p :     0.042728
      px      :     0.005841
      py      :     0.027056
 38 H s       :     0.746620  s :     0.746620
      pz      :     0.028716  p :     0.045632
      px      :     0.009919
      py      :     0.006997
 39 H s       :     0.742745  s :     0.742745
      pz      :     0.012656  p :     0.045667
      px      :     0.010319
      py      :     0.022692
 40 H s       :     0.741346  s :     0.741346
      pz      :     0.007348  p :     0.046942
      px      :     0.033170
      py      :     0.006424
 41 H s       :     0.567382  s :     0.567382
      pz      :     0.037540  p :     0.123015
      px      :     0.040121
      py      :     0.045353


                      *****************************
                      * MAYER POPULATION ANALYSIS *
                      *****************************

  NA   - Mulliken gross atomic population
  ZA   - Total nuclear charge
  QA   - Mulliken gross atomic charge
  VA   - Mayer's total valence
  BVA  - Mayer's bonded valence
  FA   - Mayer's free valence

  ATOM       NA         ZA         QA         VA         BVA        FA
  0 C      6.3191     6.0000    -0.3191     3.7669     3.7669     0.0000
  1 O      8.1604     8.0000    -0.1604     2.0289     2.0289    -0.0000
  2 C      5.8452     6.0000     0.1548     4.0554     4.0554    -0.0000
  3 O      8.4274     8.0000    -0.4274     1.9961     1.9961    -0.0000
  4 C      5.9407     6.0000     0.0593     3.5529     3.5529    -0.0000
  5 N      7.2325     7.0000    -0.2325     2.9962     2.9962     0.0000
  6 C      5.5628     6.0000     0.4372     3.4137     3.4137     0.0000
  7 C      6.2176     6.0000    -0.2176     3.6170     3.6170     0.0000
  8 C      6.6042     6.0000    -0.6042     3.7807     3.7807    -0.0000
  9 C      6.6052     6.0000    -0.6052     3.7921     3.7921    -0.0000
 10 N      6.9379     7.0000     0.0621     2.8848     2.8848    -0.0000
 11 C      6.1145     6.0000    -0.1145     4.0008     4.0008    -0.0000
 12 O      8.4335     8.0000    -0.4335     2.0228     2.0228     0.0000
 13 C      5.5540     6.0000     0.4460     3.6189     3.6189    -0.0000
 14 N      7.3753     7.0000    -0.3753     3.3851     3.3851    -0.0000
 15 N      6.5588     7.0000     0.4412     3.8319     3.8319    -0.0000
 16 C      6.3906     6.0000    -0.3906     3.7929     3.7929    -0.0000
 17 C      5.7022     6.0000     0.2978     3.7217     3.7217    -0.0000
 18 C      6.6273     6.0000    -0.6273     3.7576     3.7576    -0.0000
 19 O      8.0002     8.0000    -0.0002     2.4208     2.4208     0.0000
 20 N      7.2674     7.0000    -0.2674     2.7506     2.7506    -0.0000
 21 C      6.0065     6.0000    -0.0065     4.3928     4.3928     0.0000
 22 O      8.4698     8.0000    -0.4698     1.9998     1.9998     0.0000
 23 C      5.9379     6.0000     0.0621     3.3666     3.3666     0.0000
 24 O      8.3588     8.0000    -0.3588     2.0168     2.0168     0.0000
 25 H      0.8260     1.0000     0.1740     0.9522     0.9522     0.0000
 26 H      0.8276     1.0000     0.1724     0.9510     0.9510    -0.0000
 27 H      0.8275     1.0000     0.1725     0.9502     0.9502    -0.0000
 28 H      0.8118     1.0000     0.1882     0.9527     0.9527    -0.0000
 29 H      0.8200     1.0000     0.1800     0.9534     0.9534    -0.0000
 30 H      0.8091     1.0000     0.1909     0.9517     0.9517    -0.0000
 31 H      0.8119     1.0000     0.1881     0.9525     0.9525    -0.0000
 32 H      0.8113     1.0000     0.1887     0.9521     0.9521    -0.0000
 33 H      0.8198     1.0000     0.1802     0.9531     0.9531    -0.0000
 34 H      0.6555     1.0000     0.3445     0.9101     0.9101     0.0000
 35 H      0.7863     1.0000     0.2137     0.9397     0.9397    -0.0000
 36 H      0.7886     1.0000     0.2114     0.9422     0.9422    -0.0000
 37 H      0.7916     1.0000     0.2084     0.9455     0.9455    -0.0000
 38 H      0.7744     1.0000     0.2256     0.9362     0.9362    -0.0000
 39 H      0.7665     1.0000     0.2335     0.9326     0.9326    -0.0000
 40 H      0.7708     1.0000     0.2292     0.9417     0.9417     0.0000
 41 H      0.6514     1.0000     0.3486     0.9026     0.9026     0.0000

  Mayer bond orders larger than 0.100000
B(  0-C ,  1-O ) :   0.8362 B(  0-C , 25-H ) :   0.9649 B(  0-C , 26-H ) :   0.9582 
B(  0-C , 27-H ) :   0.9564 B(  1-O ,  2-C ) :   1.1585 B(  2-C ,  3-O ) :   1.8269 
B(  2-C ,  4-C ) :   1.0652 B(  4-C ,  5-N ) :   1.0260 B(  4-C , 23-C ) :   1.3034 
B(  5-N ,  6-C ) :   1.5701 B(  5-N , 34-H ) :   0.1435 B(  6-C ,  7-C ) :   0.7436 
B(  6-C , 10-N ) :  -0.1309 B(  6-C , 20-N ) :   1.1552 B(  7-C ,  8-C ) :   0.9130 
B(  7-C ,  9-C ) :   0.9217 B(  7-C , 10-N ) :   0.9469 B(  8-C , 28-H ) :   0.9629 
B(  8-C , 29-H ) :   0.9705 B(  8-C , 30-H ) :   0.9631 B(  9-C , 31-H ) :   0.9636 
B(  9-C , 32-H ) :   0.9631 B(  9-C , 33-H ) :   0.9695 B( 10-N , 11-C ) :   1.2361 
B( 10-N , 34-H ) :   0.7449 B( 11-C , 12-O ) :   1.9112 B( 11-C , 13-C ) :   0.8018 
B( 13-C , 14-N ) :   1.7069 B( 13-C , 17-C ) :   0.1040 B( 13-C , 19-O ) :   1.0961 
B( 14-N , 15-N ) :   1.3143 B( 14-N , 17-C ) :   0.1510 B( 15-N , 16-C ) :   0.9118 
B( 15-N , 17-C ) :   1.4940 B( 16-C , 35-H ) :   0.9176 B( 16-C , 36-H ) :   0.9260 
B( 16-C , 37-H ) :   0.9348 B( 17-C , 18-C ) :   0.8564 B( 17-C , 19-O ) :   1.1329 
B( 18-C , 38-H ) :   0.9341 B( 18-C , 39-H ) :   0.9218 B( 18-C , 40-H ) :   0.9554 
B( 20-N , 21-C ) :   1.3379 B( 21-C , 22-O ) :   1.9786 B( 21-C , 23-C ) :   0.9260 
B( 22-O , 23-C ) :  -0.1014 B( 23-C , 24-O ) :   1.0974 B( 24-O , 41-H ) :   0.8035 


-------
TIMINGS
-------

Total SCF time: 0 days 0 hours 2 min 10 sec 

Total time                  ....     130.298 sec
Sum of individual times     ....     128.099 sec  ( 98.3%)

Fock matrix formation       ....     118.259 sec  ( 90.8%)
  Split-RI-J                ....      18.778 sec  ( 15.9% of F)
  XC integration            ....      58.460 sec  ( 49.4% of F)
    Basis function eval.    ....       9.484 sec  ( 16.2% of XC)
    Density eval.           ....      24.433 sec  ( 41.8% of XC)
    XC-Functional eval.     ....       5.196 sec  (  8.9% of XC)
    XC-Potential eval.      ....      17.476 sec  ( 29.9% of XC)
Diagonalization             ....       1.383 sec  (  1.1%)
Density matrix formation    ....       0.100 sec  (  0.1%)
Population analysis         ....       0.168 sec  (  0.1%)
Initial guess               ....       2.401 sec  (  1.8%)
Orbital Transformation      ....       0.000 sec  (  0.0%)
Orbital Orthonormalization  ....       0.000 sec  (  0.0%)
DIIS solution               ....       0.616 sec  (  0.5%)
SOSCF solution              ....       0.998 sec  (  0.8%)
Grid generation             ....       4.173 sec  (  3.2%)

Maximum memory used throughout the entire SCF-calculation: 140.2 MB


-------------------------------------------------------------------------------
                          DFT DISPERSION CORRECTION                            
                                                                               
                                 DFTD4 V2.5                                    
-------------------------------------------------------------------------------
The R2SCAN3C composite method is recognized
Using three-body term ABC
Active option DFTDOPT                   ...         5   

Starting D4
-------------------------   ----------------
Dispersion correction           -0.018892224
-------------------------   ----------------

------------------   -----------------
gCP correction             0.042553330
------------------   -----------------

-------------------------   --------------------
FINAL SINGLE POINT ENERGY     -1268.636129959685
-------------------------   --------------------


                            ***************************************
                            *     ORCA property calculations      *
                            ***************************************

                                    ---------------------
                                    Active property flags
                                    ---------------------
   (+) Dipole Moment


------------------------------------------------------------------------------
                       ORCA ELECTRIC PROPERTIES CALCULATION
------------------------------------------------------------------------------

Dipole Moment Calculation                       ... on
Quadrupole Moment Calculation                   ... off
Polarizability Calculation                      ... off
GBWName                                         ... /lustre/hpc/kemi/ree/PhD/git/ReactivityQM/calculations/R02deprot/reac01prodN08/conf06/gfn1/orca_calc.gbw
Electron density                                ... /lustre/hpc/kemi/ree/PhD/git/ReactivityQM/calculations/R02deprot/reac01prodN08/conf06/gfn1/orca_calc.scfp
The origin for moment calculation is the CENTER OF MASS  = (-0.602245, -0.307201 -0.079916)

-------------
DIPOLE MOMENT
-------------
                                X             Y             Z
Electronic contribution:     -3.77128      -1.29738      -1.12907
Nuclear contribution   :     12.07292       7.20674       5.71008
                        -----------------------------------------
Total Dipole Moment    :      8.30164       5.90936       4.58100
                        -----------------------------------------
Magnitude (a.u.)       :     11.17243
Magnitude (Debye)      :     28.39807



--------------------
Rotational spectrum 
--------------------
 
Rotational constants in cm-1:     0.010061     0.005205     0.003516 
Rotational constants in MHz :   301.626209   156.036497   105.396020 

 Dipole components along the rotational axes: 
x,y,z [a.u.] :     9.293048     6.200922    -0.105351 
x,y,z [Debye]:    23.621051    15.761490    -0.267780 

 

Timings for individual modules:

Sum of individual times         ...      131.798 sec (=   2.197 min)
GTO integral calculation        ...        1.208 sec (=   0.020 min)   0.9 %
SCF iterations                  ...      130.590 sec (=   2.176 min)  99.1 %
                             ****ORCA TERMINATED NORMALLY****
TOTAL RUN TIME: 0 days 0 hours 2 minutes 12 seconds 692 msec
