      -----------------------------------------------------------      
     |                   =====================                   |     
     |                           x T B                           |     
     |                   =====================                   |     
     |                         S. Grimme                         |     
     |          Mulliken Center for Theoretical Chemistry        |     
     |                    University of Bonn                     |     
      -----------------------------------------------------------      

   * xtb version 6.5.1 (579679a) compiled by 'ehlert@majestix' on 2022-07-11

   xtb is free software: you can redistribute it and/or modify it under
   the terms of the GNU Lesser General Public License as published by
   the Free Software Foundation, either version 3 of the License, or
   (at your option) any later version.
   
   xtb is distributed in the hope that it will be useful,
   but WITHOUT ANY WARRANTY; without even the implied warranty of
   MERCHANTABILITY or FITNESS FOR A PARTICULAR PURPOSE.  See the
   GNU Lesser General Public License for more details.
   
   Cite this work as:
   * C. Bannwarth, E. Caldeweyher, S. Ehlert, A. Hansen, P. Pracht,
     J. Seibert, S. Spicher, S. Grimme, WIREs Comput. Mol. Sci., 2020, 11,
     e01493. DOI: 10.1002/wcms.1493
   
   for GFN2-xTB:
   * C. Bannwarth, S. Ehlert and S. Grimme., J. Chem. Theory Comput., 2019,
     15, 1652-1671. DOI: 10.1021/acs.jctc.8b01176
   for GFN1-xTB:
   * S. Grimme, C. Bannwarth, P. Shushkov, J. Chem. Theory Comput., 2017,
     13, 1989-2009. DOI: 10.1021/acs.jctc.7b00118
   for GFN0-xTB:
   * P. Pracht, E. Caldeweyher, S. Ehlert, S. Grimme, ChemRxiv, 2019, preprint.
     DOI: 10.26434/chemrxiv.8326202.v1
   for GFN-FF:
   * S. Spicher and S. Grimme, Angew. Chem. Int. Ed., 2020, 59, 15665-15673.
     DOI: 10.1002/anie.202004239
   
   for ALPB and GBSA implicit solvation:
   * S. Ehlert, M. Stahn, S. Spicher, S. Grimme, J. Chem. Theory Comput.,
     2021, 17, 4250-4261. DOI: 10.1021/acs.jctc.1c00471
   
   for DFT-D4:
   * E. Caldeweyher, C. Bannwarth and S. Grimme, J. Chem. Phys., 2017,
     147, 034112. DOI: 10.1063/1.4993215
   * E. Caldeweyher, S. Ehlert, A. Hansen, H. Neugebauer, S. Spicher,
     C. Bannwarth and S. Grimme, J. Chem. Phys., 2019, 150, 154122.
     DOI: 10.1063/1.5090222
   * E. Caldeweyher, J.-M. Mewes, S. Ehlert and S. Grimme, Phys. Chem. Chem. Phys.
     2020, 22, 8499-8512. DOI: 10.1039/D0CP00502A
   
   for sTDA-xTB:
   * S. Grimme and C. Bannwarth, J. Chem. Phys., 2016, 145, 054103.
     DOI: 10.1063/1.4959605
   
   in the mass-spec context:
   * V. Asgeirsson, C. Bauer and S. Grimme, Chem. Sci., 2017, 8, 4879.
     DOI: 10.1039/c7sc00601b
   * J. Koopman and S. Grimme, ACS Omega 2019, 4, 12, 15120-15133.
     DOI: 10.1021/acsomega.9b02011
   
   for metadynamics refer to:
   * S. Grimme, J. Chem. Theory Comput., 2019, 155, 2847-2862
     DOI: 10.1021/acs.jctc.9b00143
   
   for SPH calculations refer to:
   * S. Spicher and S. Grimme, J. Chem. Theory Comput., 2021, 17, 1701-1714
     DOI: 10.1021/acs.jctc.0c01306
   
   with help from (in alphabetical order)
   P. Atkinson, C. Bannwarth, F. Bohle, G. Brandenburg, E. Caldeweyher
   M. Checinski, S. Dohm, S. Ehlert, S. Ehrlich, I. Gerasimov, C. Hölzer
   A. Katbashev, J. Koopman, C. Lavigne, S. Lehtola, F. März, M. Müller,
   F. Musil, H. Neugebauer, J. Pisarek, C. Plett, P. Pracht, F. Pultar,
   J. Seibert, P. Shushkov, S. Spicher, M. Stahn, M. Steiner, T. Strunk,
   J. Stückrath, T. Rose, and J. Unsleber
   
 * started run on 2023/06/20 at 14:51:59.332     

           -------------------------------------------------
          |                Calculation Setup                |
           -------------------------------------------------

          program call               : /lustre/hpc/kemi/ree/PhD/git/ReactivityQM/dep/xtb-6.5.1/bin/xtb --gfn 1 /lustre/hpc/kemi/ree/PhD/git/ReactivityQM/calculations/R01/reac02/conf11/R01_reac02_conf11_gfn1.xyz --opt --vfukui --chrg 0 --uhf 0 --alpb DMSO
          hostname                   : node312
          coordinate file            : /lustre/hpc/kemi/ree/PhD/git/ReactivityQM/calculations/R01/reac02/conf11/R01_reac02_conf11_gfn1.xyz
          omp threads                :                     1

   ID    Z sym.   atoms
    1    6 C      1, 3, 5, 7-10, 13, 15
    2    8 O      2, 4, 14, 16
    3    7 N      6, 11, 12
    4    1 H      17-29

           -------------------------------------------------
          |                 G F N 1 - x T B                 |
           -------------------------------------------------

        Reference                      10.1021/acs.jctc.7b00118
      * Hamiltonian:
        H0-scaling (s, p, d)           1.850000    2.250000    2.000000
        zeta-weighting                 0.000000
      * Dispersion:
        s8                             2.400000
        a1                             0.630000
        a2                             5.000000
        s9                             0.000000
      * Repulsion:
        kExp                           1.500000
        rExp                           1.000000
      * Coulomb:
        alpha                          2.000000
        third order                    atomic
        anisotropic                    false
      * Halogen bond correction:
        rad-scale                      1.300000
        damping                        0.440000

      * Solvation model:               ALPB
        Solvent                        DMSO
        Parameter file                 internal GFN1-xTB/ALPB
        Dielectric constant                4.6680E+01
        Reference state                gsolv [1 M gas/solution]
        Free energy shift                  7.6243E-03 Eh       4.7843E+00 kcal/mol
        Temperature                        2.9815E+02 K
        Density                            1.1000E+00 kg/L
        Solvent mass                       7.8130E+01 g/mol
        Interaction kernel             P16
        Born radius scaling (c1)           1.7672E+00
        Born radii integrator          GBOBC
        Born offset                        0.0000E+00 a0       0.0000E+00 AA
        H-bond correction              true
        Ion screening                  false
        Surface tension                    1.0000E-05 Eh       1.5569E+01 dyn/cm
        Grid points                               230 per atom

          ...................................................
          :                      SETUP                      :
          :.................................................:
          :  # basis functions                  90          :
          :  # atomic orbitals                  90          :
          :  # shells                           58          :
          :  # electrons                        88          :
          :  # halogen bonds                     0          :
          :  max. iterations                   250          :
          :  Hamiltonian                  GFN1-xTB          :
          :  restarted?                      false          :
          :  GBSA solvation                   true          :
          :  PC potential                    false          :
          :  electronic temp.          300.0000000     K    :
          :  accuracy                    1.0000000          :
          :  -> integral cutoff          0.2500000E+02      :
          :  -> integral neglect         0.1000000E-07      :
          :  -> SCF convergence          0.1000000E-05 Eh   :
          :  -> wf. convergence          0.2000000E-04 e    :
          :  Broyden damping             0.4000000          :
          ...................................................

 iter      E             dE          RMSdq      gap      omega  full diag
   1    -54.8173146 -0.548173E+02  0.829E+00    2.88       0.0  T
   2    -55.0148893 -0.197575E+00  0.493E+00    2.31       1.0  T
   3    -55.0078601  0.702927E-02  0.145E+00    2.35       1.0  T
   4    -55.0210973 -0.132372E-01  0.195E-01    2.30       1.0  T
   5    -55.0221517 -0.105438E-02  0.551E-02    2.26       1.0  T
   6    -55.0222236 -0.718641E-04  0.152E-02    2.26       1.2  T
   7    -55.0222271 -0.356510E-05  0.357E-03    2.26       5.2  T
   8    -55.0222272 -0.809361E-07  0.877E-04    2.26      21.2  T
   9    -55.0222272 -0.529457E-08  0.277E-04    2.27      67.1  T
  10    -55.0222272 -0.922554E-09  0.808E-05    2.27     229.7  T
  11    -55.0222272 -0.666347E-10  0.229E-05    2.27     811.8  T

   *** convergence criteria satisfied after 11 iterations ***

         #    Occupation            Energy/Eh            Energy/eV
      -------------------------------------------------------------
         1        2.0000           -0.8381945             -22.8084
       ...           ...                  ...                  ...
        38        2.0000           -0.4881448             -13.2831
        39        2.0000           -0.4866758             -13.2431
        40        2.0000           -0.4842924             -13.1783
        41        2.0000           -0.4601124             -12.5203
        42        2.0000           -0.4476360             -12.1808
        43        2.0000           -0.4296784             -11.6921
        44        2.0000           -0.4145148             -11.2795 (HOMO)
        45                         -0.3312663              -9.0142 (LUMO)
        46                         -0.2838491              -7.7239
        47                         -0.2441965              -6.6449
        48                         -0.1611539              -4.3852
        49                         -0.1391718              -3.7871
       ...                                ...                  ...
        90                          0.6974271              18.9780
      -------------------------------------------------------------
                  HL-Gap            0.0832484 Eh            2.2653 eV
             Fermi-level           -0.3728905 Eh          -10.1469 eV

 SCC (total)                   0 d,  0 h,  0 min,  0.049 sec
 SCC setup                      ...        0 min,  0.001 sec (  1.950%)
 Dispersion                     ...        0 min,  0.000 sec (  0.315%)
 classical contributions        ...        0 min,  0.000 sec (  0.120%)
 integral evaluation            ...        0 min,  0.011 sec ( 22.350%)
 iterations                     ...        0 min,  0.013 sec ( 26.406%)
 molecular gradient             ...        0 min,  0.023 sec ( 48.322%)
 printout                       ...        0 min,  0.000 sec (  0.478%)

         :::::::::::::::::::::::::::::::::::::::::::::::::::::
         ::                     SUMMARY                     ::
         :::::::::::::::::::::::::::::::::::::::::::::::::::::
         :: total energy             -54.504939973073 Eh    ::
         :: total w/o Gsasa/hb       -54.486787446991 Eh    ::
         :: gradient norm              0.078204024679 Eh/a0 ::
         :: HOMO-LUMO gap              2.265304777809 eV    ::
         ::.................................................::
         :: SCC energy               -55.022227203916 Eh    ::
         :: -> electrostatic           0.242401169081 Eh    ::
         :: -> Gsolv                  -0.037829362985 Eh    ::
         ::    -> Gelec               -0.019676836903 Eh    ::
         ::    -> Gsasa               -0.017554457715 Eh    ::
         ::    -> Ghb                 -0.008222347372 Eh    ::
         ::    -> Gshift               0.007624279005 Eh    ::
         :: repulsion energy           0.533326784074 Eh    ::
         :: dispersion energy         -0.016039553231 Eh    ::
         :: halogen bond corr.         0.000000000000 Eh    ::
         :: add. restraining           0.000000000000 Eh    ::
         :: total charge               0.000000000000 e     ::
         :::::::::::::::::::::::::::::::::::::::::::::::::::::

      ----------------------------------------------------------- 
     |                   =====================                   |
     |                        A N C O P T                        |
     |                   =====================                   |
     |               Approximate Normal Coordinate               |
     |                Rational Function Optimizer                |
      ----------------------------------------------------------- 

          ...................................................
          :                      SETUP                      :
          :.................................................:
          :   optimization level            normal          :
          :   max. optcycles                   200          :
          :   ANC micro-cycles                  20          :
          :   degrees of freedom                81          :
          :.................................................:
          :   RF solver                   davidson          :
          :   write xtbopt.log                true          :
          :   linear?                        false          :
          :   energy convergence         0.5000000E-05 Eh   :
          :   grad. convergence          0.1000000E-02 Eh/α :
          :   maximium RF displ.         1.0000000          :
          :   Hlow (freq-cutoff)         0.1000000E-01      :
          :   Hmax (freq-cutoff)         5.0000000          :
          :   S6 in model hess.         20.0000000          :
          ...................................................

generating ANC from model Hessian ...
Using Lindh-Hessian (1995)
 Shifting diagonal of input Hessian by   9.370009445905441E-003
 Lowest  eigenvalues of input Hessian
    0.000000    0.000000    0.000000    0.000000    0.000000    0.000000
    0.010000    0.011089    0.011787    0.012455    0.014044    0.015508
    0.017697    0.018907    0.019285    0.021118    0.022599    0.023279
 Highest eigenvalues
    1.799490    1.972446    1.987915    2.173583    2.319084    2.426642
 

........................................................................
.............................. CYCLE    1 ..............................
........................................................................
   1    -55.0222272 -0.550222E+02  0.497E-06    2.27       0.0  T
   2    -55.0222272 -0.270006E-12  0.248E-06    2.27    7484.4  T
   3    -55.0222272  0.639488E-13  0.118E-06    2.27   15752.4  T
     SCC iter.                  ...        0 min,  0.004 sec
     gradient                   ...        0 min,  0.029 sec
 * total energy  :   -54.5049400 Eh     change       -0.6259882E-11 Eh
   gradient norm :     0.0782042 Eh/α   predicted     0.0000000E+00 (-100.00%)
   displ. norm   :     0.2437997 α      lambda       -0.8292841E-02
   maximum displ.:     0.1550270 α      in ANC's #15, #21, #10, ...

........................................................................
.............................. CYCLE    2 ..............................
........................................................................
   1    -55.0310490 -0.550310E+02  0.756E-02    2.37       0.0  T
   2    -55.0311914 -0.142333E-03  0.312E-02    2.37       1.0  T
   3    -55.0312113 -0.198929E-04  0.142E-02    2.37       1.3  T
   4    -55.0312117 -0.463978E-06  0.567E-03    2.37       3.3  T
   5    -55.0312118 -0.118140E-06  0.109E-03    2.37      17.0  T
   6    -55.0312119 -0.259707E-07  0.236E-04    2.37      78.7  T
   7    -55.0312119 -0.373959E-09  0.901E-05    2.37     206.0  T
   8    -55.0312119 -0.366285E-10  0.191E-05    2.37     973.6  T
     SCC iter.                  ...        0 min,  0.009 sec
     gradient                   ...        0 min,  0.024 sec
 * total energy  :   -54.5107604 Eh     change       -0.5820387E-02 Eh
   gradient norm :     0.0349526 Eh/α   predicted    -0.4394177E-02 ( -24.50%)
   displ. norm   :     0.2281863 α      lambda       -0.2827217E-02
   maximum displ.:     0.1432813 α      in ANC's #15, #10, #21, ...

........................................................................
.............................. CYCLE    3 ..............................
........................................................................
   1    -55.0344856 -0.550345E+02  0.600E-02    2.45       0.0  T
   2    -55.0345905 -0.104852E-03  0.242E-02    2.45       1.0  T
   3    -55.0346013 -0.107933E-04  0.111E-02    2.45       1.7  T
   4    -55.0346015 -0.237716E-06  0.485E-03    2.45       3.8  T
   5    -55.0346016 -0.860507E-07  0.877E-04    2.45      21.2  T
   6    -55.0346016 -0.155934E-07  0.239E-04    2.45      77.6  T
   7    -55.0346016 -0.340115E-09  0.844E-05    2.45     220.0  T
   8    -55.0346016 -0.322444E-10  0.179E-05    2.45    1040.2  T
     SCC iter.                  ...        0 min,  0.009 sec
     gradient                   ...        0 min,  0.023 sec
 * total energy  :   -54.5123246 Eh     change       -0.1564246E-02 Eh
   gradient norm :     0.0087396 Eh/α   predicted    -0.1487541E-02 (  -4.90%)
   displ. norm   :     0.0846449 α      lambda       -0.2327909E-03
   maximum displ.:     0.0423081 α      in ANC's #15, #6, #10, ...

........................................................................
.............................. CYCLE    4 ..............................
........................................................................
   1    -55.0344573 -0.550345E+02  0.837E-03    2.45       0.0  T
   2    -55.0344596 -0.229305E-05  0.364E-03    2.45       5.1  T
   3    -55.0344597 -0.785095E-07  0.203E-03    2.45       9.1  T
   4    -55.0344597 -0.392802E-09  0.654E-04    2.46      28.4  T
   5    -55.0344597 -0.596900E-08  0.144E-04    2.46     128.9  T
   6    -55.0344597 -0.254715E-09  0.549E-05    2.46     338.5  T
     SCC iter.                  ...        0 min,  0.007 sec
     gradient                   ...        0 min,  0.024 sec
 * total energy  :   -54.5124953 Eh     change       -0.1707218E-03 Eh
   gradient norm :     0.0051010 Eh/α   predicted    -0.1172333E-03 ( -31.33%)
   displ. norm   :     0.0996846 α      lambda       -0.1448107E-03
   maximum displ.:     0.0598679 α      in ANC's #6, #10, #15, ...

........................................................................
.............................. CYCLE    5 ..............................
........................................................................
   1    -55.0344725 -0.550345E+02  0.888E-03    2.45       0.0  T
   2    -55.0344742 -0.174428E-05  0.426E-03    2.46       4.4  T
   3    -55.0344746 -0.329854E-06  0.232E-03    2.46       8.0  T
   4    -55.0344746 -0.122736E-07  0.577E-04    2.46      32.2  T
   5    -55.0344746 -0.167796E-08  0.125E-04    2.46     148.7  T
   6    -55.0344746 -0.254893E-09  0.391E-05    2.46     474.5  T
     SCC iter.                  ...        0 min,  0.010 sec
     gradient                   ...        0 min,  0.027 sec
 * total energy  :   -54.5125838 Eh     change       -0.8845264E-04 Eh
   gradient norm :     0.0029600 Eh/α   predicted    -0.7314336E-04 ( -17.31%)
   displ. norm   :     0.0567624 α      lambda       -0.3045089E-04
   maximum displ.:     0.0371420 α      in ANC's #6, #3, #10, ...

........................................................................
.............................. CYCLE    6 ..............................
........................................................................
   1    -55.0347785 -0.550348E+02  0.417E-03    2.46       0.0  T
   2    -55.0347788 -0.357418E-06  0.187E-03    2.46       9.9  T
   3    -55.0347789 -0.918106E-07  0.104E-03    2.46      17.8  T
   4    -55.0347789 -0.404795E-08  0.264E-04    2.46      70.4  T
   5    -55.0347789 -0.335064E-09  0.450E-05    2.46     413.1  T
   6    -55.0347789 -0.348805E-10  0.128E-05    2.46    1452.5  T
     SCC iter.                  ...        0 min,  0.007 sec
     gradient                   ...        0 min,  0.023 sec
 * total energy  :   -54.5126069 Eh     change       -0.2308257E-04 Eh
   gradient norm :     0.0021504 Eh/α   predicted    -0.1528642E-04 ( -33.78%)
   displ. norm   :     0.0824311 α      lambda       -0.3189880E-04
   maximum displ.:     0.0493210 α      in ANC's #6, #3, #11, ...

........................................................................
.............................. CYCLE    7 ..............................
........................................................................
   1    -55.0353236 -0.550353E+02  0.486E-03    2.46       0.0  T
   2    -55.0353241 -0.481281E-06  0.203E-03    2.46       9.1  T
   3    -55.0353242 -0.960979E-07  0.124E-03    2.46      15.0  T
   4    -55.0353242 -0.912730E-08  0.373E-04    2.46      49.8  T
   5    -55.0353242 -0.254431E-09  0.706E-05    2.46     263.1  T
   6    -55.0353242 -0.552234E-10  0.145E-05    2.46    1278.9  T
     SCC iter.                  ...        0 min,  0.007 sec
     gradient                   ...        0 min,  0.023 sec
 * total energy  :   -54.5126278 Eh     change       -0.2096091E-04 Eh
   gradient norm :     0.0012776 Eh/α   predicted    -0.1606642E-04 ( -23.35%)
   displ. norm   :     0.0748390 α      lambda       -0.1205323E-04
   maximum displ.:     0.0516959 α      in ANC's #3, #6, #1, ...

........................................................................
.............................. CYCLE    8 ..............................
........................................................................
   1    -55.0357866 -0.550358E+02  0.278E-03    2.46       0.0  T
   2    -55.0357867 -0.147494E-06  0.114E-03    2.46      16.2  T
   3    -55.0357867 -0.865879E-08  0.700E-04    2.46      26.5  T
   4    -55.0357867 -0.264504E-08  0.222E-04    2.46      83.6  T
   5    -55.0357867 -0.353161E-09  0.582E-05    2.46     319.1  T
   6    -55.0357867 -0.240874E-10  0.182E-05    2.46    1019.5  T
     SCC iter.                  ...        0 min,  0.007 sec
     gradient                   ...        0 min,  0.023 sec
 * total energy  :   -54.5126381 Eh     change       -0.1031791E-04 Eh
   gradient norm :     0.0012650 Eh/α   predicted    -0.6065952E-05 ( -41.21%)
   displ. norm   :     0.0277260 α      lambda       -0.4700693E-05
   maximum displ.:     0.0150738 α      in ANC's #3, #1, #10, ...

........................................................................
.............................. CYCLE    9 ..............................
........................................................................
   1    -55.0357829 -0.550358E+02  0.188E-03    2.46       0.0  T
   2    -55.0357830 -0.108457E-06  0.848E-04    2.46      21.9  T
   3    -55.0357831 -0.211600E-07  0.453E-04    2.46      41.0  T
   4    -55.0357831 -0.107784E-08  0.201E-04    2.46      92.2  T
   5    -55.0357831 -0.645741E-10  0.238E-05    2.46     780.6  T
   6    -55.0357831 -0.932232E-11  0.783E-06    2.46    2370.8  T
     SCC iter.                  ...        0 min,  0.007 sec
     gradient                   ...        0 min,  0.023 sec
 * total energy  :   -54.5126430 Eh     change       -0.4899826E-05 Eh
   gradient norm :     0.0006581 Eh/α   predicted    -0.2355917E-05 ( -51.92%)
   displ. norm   :     0.0347441 α      lambda       -0.3095431E-05
   maximum displ.:     0.0232657 α      in ANC's #1, #3, #4, ...

   *** GEOMETRY OPTIMIZATION CONVERGED AFTER 9 ITERATIONS ***

------------------------------------------------------------------------
 total energy gain   :        -0.0077031 Eh       -4.8337 kcal/mol
 total RMSD          :         0.1344310 a0        0.0711 Å
 total power (kW/mol):        -2.2471559 (step)  -48.2481 (real)
------------------------------------------------------------------------

 ANCopt (total)                0 d,  0 h,  0 min,  0.419 sec
 optimizer setup                ...        0 min,  0.001 sec (  0.157%)
 model hessian                  ...        0 min,  0.011 sec (  2.627%)
 ANC generation                 ...        0 min,  0.001 sec (  0.205%)
 coordinate transformation      ...        0 min,  0.000 sec (  0.041%)
 single point calculation       ...        0 min,  0.402 sec ( 96.013%)
 optimization log               ...        0 min,  0.003 sec (  0.612%)
 hessian update                 ...        0 min,  0.000 sec (  0.033%)
 rational function              ...        0 min,  0.001 sec (  0.169%)

================
 final structure:
================
29
 xtb: 6.5.1 (579679a)
C            3.81415860300406        2.16924669414823       -0.68353572570025
O            2.60375032893835        1.43921416199000       -0.46097211887572
C            2.73083246309906        0.14173788643880       -0.22206929775238
O            3.81068861718416       -0.42403149622678       -0.18842431851876
C            1.44546063450468       -0.56145397204966       -0.00603196327696
N            0.29994576523767        0.18983851510319       -0.06517252871963
C           -0.84204996924055       -0.38954226362121        0.10744271638901
C           -2.10804864622967        0.44844003544673        0.00557491312845
C           -2.58067283769390        0.41924469052329       -1.45657912756664
C           -3.21126931525810       -0.05392563798173        0.93969697129163
N           -1.79394749785594        1.82605915890802        0.35934673116957
N           -0.93858455474525       -1.73173392711983        0.33301795697360
C            0.13800201751180       -2.59347389538480        0.42885615039603
O           -0.02776705584248       -3.78190937213201        0.64655126456510
C            1.42188027382727       -1.91397832998296        0.23662704287910
O            2.51141296548063       -2.68259235729546        0.30763867712669
H            4.46421915904108        2.09095695896484        0.19094811900474
H            4.33462826426274        1.77135963249866       -1.55781274622644
H            3.52708410204642        3.20501138880671       -0.85159757777659
H           -1.79263599649607        0.79339703172570       -2.10919155737532
H           -2.83400468513006       -0.59727175944698       -1.75331482705517
H           -3.45928343050325        1.05384321323242       -1.56402670120159
H           -4.02706639632085        0.66794464941441        0.94483886083280
H           -2.83217877106207       -0.16113747910283        1.95508447780967
H           -3.60288724798306       -1.01245888827702        0.60300985637796
H           -0.97724255468905        2.11819188206240       -0.16880440990074
H           -1.55017388776697        1.86786751482870        1.34056401742190
H           -1.84522717325402       -2.15813849033543        0.45270735042921
H            3.32097782593376       -2.14070254513534        0.15947979415085
 
 Bond Distances (Angstroems)
 ---------------------------
C1-O2=1.4309         C1-H17=1.0924        C1-H18=1.0925        C1-H19=1.0879        O2-C1=1.4309         O2-C3=1.3254         
C3-O2=1.3254         C3-O4=1.2196         C3-C5=1.4810         O4-C3=1.2196         C5-C3=1.4810         C5-N6=1.3712         
C5-C15=1.3743        N6-C5=1.3712         N6-C7=1.2921         C7-N6=1.2921         C7-C8=1.5216         C7-N12=1.3644        
C8-C7=1.5216         C8-C9=1.5369         C8-C10=1.5304        C8-N11=1.4566        C9-C8=1.5369         C9-H20=1.0894        
C9-H21=1.0888        C9-H22=1.0891        C10-C8=1.5304        C10-H23=1.0893       C10-H24=1.0891       C10-H25=1.0888       
N11-C8=1.4566        N11-H26=1.0155       N11-H27=1.0119       N12-C7=1.3644        N12-C13=1.3823       N12-H28=1.0090       
C13-N12=1.3823       C13-O14=1.2195       C13-C15=1.4653       O14-C13=1.2195       C15-C5=1.3743        C15-C13=1.4653       
C15-O16=1.3352       O16-C15=1.3352       O16-H29=0.9854       H17-C1=1.0924        H18-C1=1.0925        H19-C1=1.0879        
H20-C9=1.0894        H21-C9=1.0888        H22-C9=1.0891        H23-C10=1.0893       H24-C10=1.0891       H25-C10=1.0888       
H26-N11=1.0155       H27-N11=1.0119       H28-N12=1.0090       H29-O16=0.9854       
 C  H  Rav=1.0897 sigma=0.0015  Rmin=1.0879  Rmax=1.0925     9
 C  C  Rav=1.4849 sigma=0.0559  Rmin=1.3743  Rmax=1.5369     6
 N  H  Rav=1.0122 sigma=0.0027  Rmin=1.0090  Rmax=1.0155     3
 N  C  Rav=1.3733 sigma=0.0523  Rmin=1.2921  Rmax=1.4566     5
 O  H  Rav=0.9854 sigma=0.0000  Rmin=0.9854  Rmax=0.9854     1
 O  C  Rav=1.3061 sigma=0.0797  Rmin=1.2195  Rmax=1.4309     5
 
 selected bond angles (degree)
 --------------------
H17-C1-O2=110.02               H18-C1-O2=109.98               H18-C1-H17=109.33              H19-C1-O2=106.65               
H19-C1-H17=110.42              H19-C1-H18=110.42              C3-O2-C1=116.51                O4-C3-O2=122.96                
C5-C3-O2=114.07                C5-C3-O4=122.97                N6-C5-C3=117.30                C15-C5-C3=120.53               
C15-C5-N6=122.17               C7-N6-C5=119.14                C8-C7-N6=118.65                N12-C7-N6=121.71               
N12-C7-C8=119.60               C9-C8-C7=108.00                C10-C8-C7=112.22               C10-C8-C9=110.66               
N11-C8-C7=108.98               N11-C8-C9=108.38               N11-C8-C10=108.52              H20-C9-C8=109.93               
H21-C9-C8=110.40               H21-C9-H20=109.01              H22-C9-C8=109.32               H22-C9-H20=108.92              
H22-C9-H21=109.23              H23-C10-C8=108.98              H24-C10-C8=110.52              H24-C10-H23=108.75             
H25-C10-C8=111.07              H25-C10-H23=108.39             H25-C10-H24=109.08             
 
 selected dihedral angles (degree)
 ---------------------------------
C3-O2-C1-H17=300.31           C3-O2-C1-H18= 60.79           C3-O2-C1-H19=180.53           O4-C3-O2-C1=  0.00            
C5-C3-O2-C1=180.27            N6-C5-C3-O2=359.51            N6-C5-C3-O4=179.78            C15-C5-C3-O2=179.22           
C15-C5-C3-O4=359.50           C7-N6-C5-C3=179.45            C7-N6-C5-C15=359.74           C8-C7-N6-C5=181.48            
N12-C7-N6-C5=359.30           C9-C8-C7-N6= 90.34            C9-C8-C7-N12=272.48           C10-C8-C7-N6=212.58           
C10-C8-C7-N12= 34.72          N11-C8-C7-N6=332.80           N11-C8-C7-N12=154.94          H20-C9-C8-C7=302.32           
H20-C9-C8-C10=179.12          H20-C9-C8-N11= 60.24          H21-C9-C8-C7= 62.61           H21-C9-C8-C10=299.42          
H21-C9-C8-N11=180.54          H22-C9-C8-C7=182.80           H22-C9-C8-C10= 59.60          H22-C9-C8-N11=300.72          
H23-C10-C8-C7=171.04          H23-C10-C8-C9=291.75          H23-C10-C8-N11= 50.55         H24-C10-C8-C7= 51.59          
H24-C10-C8-C9=172.30          H24-C10-C8-N11=291.10         H25-C10-C8-C7=290.38          H25-C10-C8-C9= 51.10          
H25-C10-C8-N11=169.89         
           -------------------------------------------------
          |                Final Singlepoint                |
           -------------------------------------------------

          ...................................................
          :                      SETUP                      :
          :.................................................:
          :  # basis functions                  90          :
          :  # atomic orbitals                  90          :
          :  # shells                           58          :
          :  # electrons                        88          :
          :  # halogen bonds                     0          :
          :  max. iterations                   250          :
          :  Hamiltonian                  GFN1-xTB          :
          :  restarted?                      false          :
          :  GBSA solvation                   true          :
          :  PC potential                    false          :
          :  electronic temp.          300.0000000     K    :
          :  accuracy                    1.0000000          :
          :  -> integral cutoff          0.2500000E+02      :
          :  -> integral neglect         0.1000000E-07      :
          :  -> SCF convergence          0.1000000E-05 Eh   :
          :  -> wf. convergence          0.2000000E-04 e    :
          :  Broyden damping             0.4000000          :
          ...................................................

 iter      E             dE          RMSdq      gap      omega  full diag
   1    -55.0357831 -0.550358E+02  0.339E-06    2.46       0.0  T
   2    -55.0357831 -0.568434E-13  0.172E-06    2.46   10801.3  T
   3    -55.0357831  0.994760E-13  0.663E-07    2.46   28018.7  T

   *** convergence criteria satisfied after 3 iterations ***

         #    Occupation            Energy/Eh            Energy/eV
      -------------------------------------------------------------
         1        2.0000           -0.8423210             -22.9207
       ...           ...                  ...                  ...
        38        2.0000           -0.4868820             -13.2487
        39        2.0000           -0.4861462             -13.2287
        40        2.0000           -0.4822813             -13.1235
        41        2.0000           -0.4583643             -12.4727
        42        2.0000           -0.4425681             -12.0429
        43        2.0000           -0.4258424             -11.5878
        44        2.0000           -0.4131987             -11.2437 (HOMO)
        45                         -0.3229638              -8.7883 (LUMO)
        46                         -0.2780483              -7.5661
        47                         -0.2397099              -6.5228
        48                         -0.1556727              -4.2361
        49                         -0.1375110              -3.7419
       ...                                ...                  ...
        90                          0.7223014              19.6548
      -------------------------------------------------------------
                  HL-Gap            0.0902349 Eh            2.4554 eV
             Fermi-level           -0.3680812 Eh          -10.0160 eV

 SCC (total)                   0 d,  0 h,  0 min,  0.053 sec
 SCC setup                      ...        0 min,  0.001 sec (  1.441%)
 Dispersion                     ...        0 min,  0.000 sec (  0.208%)
 classical contributions        ...        0 min,  0.000 sec (  0.081%)
 integral evaluation            ...        0 min,  0.010 sec ( 19.665%)
 iterations                     ...        0 min,  0.004 sec (  6.974%)
 molecular gradient             ...        0 min,  0.038 sec ( 71.126%)
 printout                       ...        0 min,  0.000 sec (  0.448%)

         :::::::::::::::::::::::::::::::::::::::::::::::::::::
         ::                     SUMMARY                     ::
         :::::::::::::::::::::::::::::::::::::::::::::::::::::
         :: total energy             -54.512643041327 Eh    ::
         :: total w/o Gsasa/hb       -54.494437633199 Eh    ::
         :: gradient norm              0.000658815151 Eh/a0 ::
         :: HOMO-LUMO gap              2.455417308045 eV    ::
         ::.................................................::
         :: SCC energy               -55.035783067279 Eh    ::
         :: -> electrostatic           0.241639429811 Eh    ::
         :: -> Gsolv                  -0.037516004737 Eh    ::
         ::    -> Gelec               -0.019310596608 Eh    ::
         ::    -> Gsasa               -0.017659589973 Eh    ::
         ::    -> Ghb                 -0.008170097161 Eh    ::
         ::    -> Gshift               0.007624279005 Eh    ::
         :: repulsion energy           0.539153891626 Eh    ::
         :: dispersion energy         -0.016013865675 Eh    ::
         :: halogen bond corr.         0.000000000000 Eh    ::
         :: add. restraining           0.000000000000 Eh    ::
         :: total charge              -0.000000000000 e     ::
         :::::::::::::::::::::::::::::::::::::::::::::::::::::

           -------------------------------------------------
          |                Property Printout                |
           -------------------------------------------------

    * Orbital Energies and Occupations

         #    Occupation            Energy/Eh            Energy/eV
      -------------------------------------------------------------
         1        2.0000           -0.8423210             -22.9207
       ...           ...                  ...                  ...
        32        2.0000           -0.5154799             -14.0269
        33        2.0000           -0.5147101             -14.0060
        34        2.0000           -0.5109798             -13.9045
        35        2.0000           -0.5036181             -13.7041
        36        2.0000           -0.4989778             -13.5779
        37        2.0000           -0.4935569             -13.4304
        38        2.0000           -0.4868820             -13.2487
        39        2.0000           -0.4861462             -13.2287
        40        2.0000           -0.4822813             -13.1235
        41        2.0000           -0.4583643             -12.4727
        42        2.0000           -0.4425681             -12.0429
        43        2.0000           -0.4258424             -11.5878
        44        2.0000           -0.4131987             -11.2437 (HOMO)
        45                         -0.3229638              -8.7883 (LUMO)
        46                         -0.2780483              -7.5661
        47                         -0.2397099              -6.5228
        48                         -0.1556727              -4.2361
        49                         -0.1375110              -3.7419
        50                         -0.1369879              -3.7276
        51                         -0.1246132              -3.3909
        52                         -0.1062072              -2.8900
        53                         -0.0884508              -2.4069
        54                         -0.0797436              -2.1699
        55                         -0.0733760              -1.9967
       ...                                ...                  ...
        90                          0.7223014              19.6548
      -------------------------------------------------------------
                  HL-Gap            0.0902349 Eh            2.4554 eV
             Fermi-level           -0.3680812 Eh          -10.0160 eV

  Mulliken/CM5 charges         n(s)   n(p)   n(d)
     1C     0.16235  0.04163   0.981  2.856  0.000
     2O    -0.40054 -0.48342   1.682  4.718  0.000
     3C     0.57338  0.63791   0.971  2.456  0.000
     4O    -0.57364 -0.63841   1.726  4.847  0.000
     5C     0.06304  0.13942   1.043  2.894  0.000
     6N    -0.37025 -0.55607   1.526  3.844  0.000
     7C     0.27637  0.42624   1.030  2.694  0.000
     8C     0.14494  0.17990   1.063  2.792  0.000
     9C    -0.10318 -0.24337   1.020  3.083  0.000
    10C    -0.11364 -0.25467   1.020  3.093  0.000
    11N    -0.51117 -0.95992   1.472  4.039  0.000
    12N    -0.29611 -0.64287   1.439  3.857  0.000
    13C     0.45564  0.55763   0.982  2.563  0.000
    14O    -0.57744 -0.61609   1.726  4.851  0.000
    15C     0.23207  0.26631   1.029  2.739  0.000
    16O    -0.50866 -0.69677   1.696  4.813  0.000
    17H     0.05562  0.11747   0.944  0.000  0.000
    18H     0.05523  0.11697   0.945  0.000  0.000
    19H     0.05535  0.11568   0.945  0.000  0.000
    20H     0.04449  0.10143   0.956  0.000  0.000
    21H     0.03745  0.09228   0.963  0.000  0.000
    22H     0.04812  0.10360   0.952  0.000  0.000
    23H     0.05357  0.10963   0.946  0.000  0.000
    24H     0.04518  0.10161   0.955  0.000  0.000
    25H     0.04082  0.09647   0.959  0.000  0.000
    26H     0.21203  0.40813   0.788  0.000  0.000
    27H     0.21643  0.40833   0.784  0.000  0.000
    28H     0.27613  0.47702   0.724  0.000  0.000
    29H     0.40640  0.59391   0.594  0.000  0.000

Wiberg/Mayer (AO) data.
largest (>0.10) Wiberg bond orders for each atom

 ---------------------------------------------------------------------------
     #   Z sym  total        # sym  WBO       # sym  WBO       # sym  WBO
 ---------------------------------------------------------------------------
     1   6 C    3.868 --    19 H    0.986    18 H    0.979    17 H    0.979
                             2 O    0.893
     2   8 O    2.217 --     3 C    1.135     1 C    0.893     4 O    0.129
     3   6 C    3.847 --     4 O    1.604     2 O    1.135     5 C    1.021
     4   8 O    1.942 --     3 C    1.604     2 O    0.129
     5   6 C    3.966 --    15 C    1.484     6 N    1.181     3 C    1.021
     6   7 N    3.030 --     7 C    1.580     5 C    1.181
     7   6 C    3.918 --     6 N    1.580    12 N    1.169     8 C    0.969
     8   6 C    3.970 --    10 C    0.997    11 N    0.994     9 C    0.977
                             7 C    0.969
     9   6 C    3.993 --    21 H    0.987    20 H    0.985    22 H    0.983
                             8 C    0.977
    10   6 C    3.994 --     8 C    0.997    24 H    0.985    23 H    0.983
                            25 H    0.982
    11   7 N    2.954 --     8 C    0.994    27 H    0.944    26 H    0.939
    12   7 N    3.460 --     7 C    1.169    13 C    1.122    28 H    0.885
                            14 O    0.135
    13   6 C    3.909 --    14 O    1.594    12 N    1.122    15 C    1.060
    14   8 O    1.894 --    13 C    1.594    12 N    0.135
    15   6 C    3.922 --     5 C    1.484    16 O    1.121    13 C    1.060
    16   8 O    2.088 --    15 C    1.121    29 H    0.777
    17   1 H    1.006 --     1 C    0.979
    18   1 H    1.006 --     1 C    0.979
    19   1 H    1.010 --     1 C    0.986
    20   1 H    1.003 --     9 C    0.985
    21   1 H    1.002 --     9 C    0.987
    22   1 H    1.004 --     9 C    0.983
    23   1 H    1.004 --    10 C    0.983
    24   1 H    1.000 --    10 C    0.985
    25   1 H    1.000 --    10 C    0.982
    26   1 H    0.974 --    11 N    0.939
    27   1 H    0.961 --    11 N    0.944
    28   1 H    0.934 --    12 N    0.885
    29   1 H    0.853 --    16 O    0.777
 ---------------------------------------------------------------------------

Topologies differ in total number of bonds
Writing topology from bond orders to xtbtopo.mol

 dipole moment from electron density (au)
     X       Y       Z   
  -0.7297   2.2241  -0.2073  total (Debye):    5.973

           -------------------------------------------------
          |                Geometry Summary                 |
           -------------------------------------------------

      molecular mass/u    :      227.2175822
   center of mass at/Å    :        0.4870583      -0.4562885       0.0153041
  moments of inertia/u·Å² :        0.7285784E+03   0.1218285E+04   0.1833871E+04
rotational constants/cm⁻¹ :        0.2313771E-01   0.1383718E-01   0.9192375E-02

 * 26 selected distances

     #   Z          #   Z                                           value/Å
     1   6 C        2   8 O                                       1.4309335
     2   8 O        3   6 C                                       1.3253941
     3   6 C        4   8 O                                       1.2195559
     5   6 C        6   7 N                                       1.3711829
     6   7 N        7   6 C                                       1.2921427
     8   6 C        9   6 C                                       1.5369193 (max)
     8   6 C       10   6 C                                       1.5303763
     8   6 C       11   7 N                                       1.4565881
     7   6 C       12   7 N                                       1.3644347
    12   7 N       13   6 C                                       1.3823240
    13   6 C       14   8 O                                       1.2195285
     5   6 C       15   6 C                                       1.3743223
    15   6 C       16   8 O                                       1.3352498
     1   6 C       17   1 H                                       1.0924423
     1   6 C       18   1 H                                       1.0925032
     1   6 C       19   1 H                                       1.0878719
     9   6 C       20   1 H                                       1.0894472
     9   6 C       21   1 H                                       1.0888228
     9   6 C       22   1 H                                       1.0891359
    10   6 C       23   1 H                                       1.0893339
    10   6 C       24   1 H                                       1.0891354
    10   6 C       25   1 H                                       1.0888108
    11   7 N       26   1 H                                       1.0155256
    11   7 N       27   1 H                                       1.0119096
    12   7 N       28   1 H                                       1.0090329
    16   8 O       29   1 H                                       0.9853888 (min)

 * 6 distinct bonds (by element types)

   Z      Z             #   av. dist./Å        max./Å        min./Å
   1 H    6 C           9     1.0897226     1.0925032     1.0878719
   6 C    6 C           3     1.4805393     1.5369193     1.3743223
   1 H    7 N           3     1.0121561     1.0155256     1.0090329
   6 C    7 N           5     1.3733345     1.4565881     1.2921427
   1 H    8 O           1     0.9853888     0.9853888     0.9853888
   6 C    8 O           5     1.3061323     1.4309335     1.2195285


optimized geometry written to: xtbopt.xyz


           -------------------------------------------------
          | TOTAL ENERGY              -54.512643041327 Eh   |
          | GRADIENT NORM               0.000658815151 Eh/α |
          | HOMO-LUMO GAP               2.455417308045 eV   |
           -------------------------------------------------

------------------------------------------------------------------------
 * finished run on 2023/06/20 at 14:52:00.019     
------------------------------------------------------------------------
 total:
 * wall-time:     0 d,  0 h,  0 min,  0.687 sec
 *  cpu-time:     0 d,  0 h,  0 min,  0.544 sec
 * ratio c/w:     0.792 speedup
 SCF:
 * wall-time:     0 d,  0 h,  0 min,  0.049 sec
 *  cpu-time:     0 d,  0 h,  0 min,  0.049 sec
 * ratio c/w:     1.000 speedup
 ANC optimizer:
 * wall-time:     0 d,  0 h,  0 min,  0.492 sec
 *  cpu-time:     0 d,  0 h,  0 min,  0.472 sec
 * ratio c/w:     0.959 speedup

