42
 energy: -82.879350692900 gnorm: 0.000612215771 xtb: 6.5.1 (579679a)
C            3.39449759583906        2.35879493126876        2.39201549184807
O            2.82794965998044        1.49702887306974        1.39563025980836
C            3.38906033434044        1.52694842084244        0.20080474007116
O            4.34341715740756        2.22954304749989       -0.07685264649414
C            2.74156596226380        0.63249362001920       -0.79577708664109
N            1.63224923502778       -0.03571811852751       -0.42065963245786
C            1.12727315249509       -0.88152957423065       -1.31350767000852
C           -0.08172161025668       -1.70832278575652       -0.84235061810293
C            0.41455203344714       -2.87576528913197        0.01045900872222
C           -0.83914173323514       -2.21031095873375       -2.08132535511836
N           -0.94767896827082       -0.79622505602059       -0.16092449206708
C           -1.16713487391522       -0.61519473433891        1.26372519314994
C           -0.56839057091172        0.85436226924959        1.53804562385798
O           -0.72456583107274       -1.47192434482213        2.08754904521996
C           -2.67666832484721       -0.30177007883963        1.37926880786103
N           -3.47736515755981       -0.65919211931580        2.32192370892751
N           -4.70001482163319       -0.13140721990420        1.99563616514202
C           -4.55197589625063        0.52188515114994        0.89035967131986
C           -5.57308656141585        1.27294578356345        0.12940230765588
O           -3.28001472127921        0.45520851908900        0.44238864542626
N            1.60906898314850       -1.10073087266577       -2.49889834409875
C            2.68825344754938       -0.44939745000516       -3.02411791956494
O            3.09712933629104       -0.58829264233267       -4.16305805770229
C            3.31264496797388        0.48085272584930       -2.04856892386888
O            4.35005924437445        1.17553577108917       -2.48380740678208
H            4.46418767475263        2.16237986403278        2.48861379841614
H            3.23948717219174        3.40119504467506        2.10787615170399
H            2.87762610306857        2.13714265315298        3.32308182375854
H            1.04558033885471       -2.51875702388506        0.82151252431437
H            0.99956162168785       -3.54065105887041       -0.62412366654539
H           -0.42602512444335       -3.42853793861671        0.42474145134351
H           -1.68563725648964       -2.82032238777131       -1.77291782892596
H           -1.19847889867338       -1.36891624584894       -2.67006058443841
H           -0.15950517506073       -2.80133204500998       -2.69344842777388
H           -1.35823712886655       -0.08108001412294       -0.74346604009457
H            0.50021789936036        0.76730734803189        1.35929608251775
H           -0.78140863077572        1.09476607237661        2.57487700107446
H           -1.01478183516712        1.57735425371975        0.86571303143584
H           -5.30810933683818        2.32935374320465        0.09686846192312
H           -6.54392605632148        1.15621743972561        0.60564992874351
H           -5.61875157026954        0.90611807312166       -0.89519118403072
H            4.62823816349458        1.84794435401321       -1.81714403953382
