      -----------------------------------------------------------      
     |                   =====================                   |     
     |                           x T B                           |     
     |                   =====================                   |     
     |                         S. Grimme                         |     
     |          Mulliken Center for Theoretical Chemistry        |     
     |                    University of Bonn                     |     
      -----------------------------------------------------------      

   * xtb version 6.5.1 (579679a) compiled by 'ehlert@majestix' on 2022-07-11

   xtb is free software: you can redistribute it and/or modify it under
   the terms of the GNU Lesser General Public License as published by
   the Free Software Foundation, either version 3 of the License, or
   (at your option) any later version.
   
   xtb is distributed in the hope that it will be useful,
   but WITHOUT ANY WARRANTY; without even the implied warranty of
   MERCHANTABILITY or FITNESS FOR A PARTICULAR PURPOSE.  See the
   GNU Lesser General Public License for more details.
   
   Cite this work as:
   * C. Bannwarth, E. Caldeweyher, S. Ehlert, A. Hansen, P. Pracht,
     J. Seibert, S. Spicher, S. Grimme, WIREs Comput. Mol. Sci., 2020, 11,
     e01493. DOI: 10.1002/wcms.1493
   
   for GFN2-xTB:
   * C. Bannwarth, S. Ehlert and S. Grimme., J. Chem. Theory Comput., 2019,
     15, 1652-1671. DOI: 10.1021/acs.jctc.8b01176
   for GFN1-xTB:
   * S. Grimme, C. Bannwarth, P. Shushkov, J. Chem. Theory Comput., 2017,
     13, 1989-2009. DOI: 10.1021/acs.jctc.7b00118
   for GFN0-xTB:
   * P. Pracht, E. Caldeweyher, S. Ehlert, S. Grimme, ChemRxiv, 2019, preprint.
     DOI: 10.26434/chemrxiv.8326202.v1
   for GFN-FF:
   * S. Spicher and S. Grimme, Angew. Chem. Int. Ed., 2020, 59, 15665-15673.
     DOI: 10.1002/anie.202004239
   
   for ALPB and GBSA implicit solvation:
   * S. Ehlert, M. Stahn, S. Spicher, S. Grimme, J. Chem. Theory Comput.,
     2021, 17, 4250-4261. DOI: 10.1021/acs.jctc.1c00471
   
   for DFT-D4:
   * E. Caldeweyher, C. Bannwarth and S. Grimme, J. Chem. Phys., 2017,
     147, 034112. DOI: 10.1063/1.4993215
   * E. Caldeweyher, S. Ehlert, A. Hansen, H. Neugebauer, S. Spicher,
     C. Bannwarth and S. Grimme, J. Chem. Phys., 2019, 150, 154122.
     DOI: 10.1063/1.5090222
   * E. Caldeweyher, J.-M. Mewes, S. Ehlert and S. Grimme, Phys. Chem. Chem. Phys.
     2020, 22, 8499-8512. DOI: 10.1039/D0CP00502A
   
   for sTDA-xTB:
   * S. Grimme and C. Bannwarth, J. Chem. Phys., 2016, 145, 054103.
     DOI: 10.1063/1.4959605
   
   in the mass-spec context:
   * V. Asgeirsson, C. Bauer and S. Grimme, Chem. Sci., 2017, 8, 4879.
     DOI: 10.1039/c7sc00601b
   * J. Koopman and S. Grimme, ACS Omega 2019, 4, 12, 15120-15133.
     DOI: 10.1021/acsomega.9b02011
   
   for metadynamics refer to:
   * S. Grimme, J. Chem. Theory Comput., 2019, 155, 2847-2862
     DOI: 10.1021/acs.jctc.9b00143
   
   for SPH calculations refer to:
   * S. Spicher and S. Grimme, J. Chem. Theory Comput., 2021, 17, 1701-1714
     DOI: 10.1021/acs.jctc.0c01306
   
   with help from (in alphabetical order)
   P. Atkinson, C. Bannwarth, F. Bohle, G. Brandenburg, E. Caldeweyher
   M. Checinski, S. Dohm, S. Ehlert, S. Ehrlich, I. Gerasimov, C. Hölzer
   A. Katbashev, J. Koopman, C. Lavigne, S. Lehtola, F. März, M. Müller,
   F. Musil, H. Neugebauer, J. Pisarek, C. Plett, P. Pracht, F. Pultar,
   J. Seibert, P. Shushkov, S. Spicher, M. Stahn, M. Steiner, T. Strunk,
   J. Stückrath, T. Rose, and J. Unsleber
   
 * started run on 2023/06/21 at 17:39:59.134     

           -------------------------------------------------
          |                Calculation Setup                |
           -------------------------------------------------

          program call               : /lustre/hpc/kemi/ree/PhD/git/ReactivityQM/dep/xtb-6.5.1/bin/xtb --gfn 1 /lustre/hpc/kemi/ree/PhD/git/ReactivityQM/calculations/R02oxygendeprot/reac01prodN19/conf04/R02oxygendeprot_reac01prodN19_conf04_gfn1.xyz --opt --vfukui --chrg 0 --uhf 0 --alpb DMSO
          hostname                   : node070
          coordinate file            : /lustre/hpc/kemi/ree/PhD/git/ReactivityQM/calculations/R02oxygendeprot/reac01prodN19/conf04/R02oxygendeprot_reac01prodN19_conf04_gfn1.xyz
          omp threads                :                     1

   ID    Z sym.   atoms
    1    6 C      1, 3, 5, 7-10, 12, 14, 17, 18, 21, 23, 24
    2    8 O      2, 4, 13, 19, 22, 25
    3    7 N      6, 11, 15, 16, 20
    4    1 H      26-42

           -------------------------------------------------
          |                 G F N 1 - x T B                 |
           -------------------------------------------------

        Reference                      10.1021/acs.jctc.7b00118
      * Hamiltonian:
        H0-scaling (s, p, d)           1.850000    2.250000    2.000000
        zeta-weighting                 0.000000
      * Dispersion:
        s8                             2.400000
        a1                             0.630000
        a2                             5.000000
        s9                             0.000000
      * Repulsion:
        kExp                           1.500000
        rExp                           1.000000
      * Coulomb:
        alpha                          2.000000
        third order                    atomic
        anisotropic                    false
      * Halogen bond correction:
        rad-scale                      1.300000
        damping                        0.440000

      * Solvation model:               ALPB
        Solvent                        DMSO
        Parameter file                 internal GFN1-xTB/ALPB
        Dielectric constant                4.6680E+01
        Reference state                gsolv [1 M gas/solution]
        Free energy shift                  7.6243E-03 Eh       4.7843E+00 kcal/mol
        Temperature                        2.9815E+02 K
        Density                            1.1000E+00 kg/L
        Solvent mass                       7.8130E+01 g/mol
        Interaction kernel             P16
        Born radius scaling (c1)           1.7672E+00
        Born radii integrator          GBOBC
        Born offset                        0.0000E+00 a0       0.0000E+00 AA
        H-bond correction              true
        Ion screening                  false
        Surface tension                    1.0000E-05 Eh       1.5569E+01 dyn/cm
        Grid points                               230 per atom

          ...................................................
          :                      SETUP                      :
          :.................................................:
          :  # basis functions                 134          :
          :  # atomic orbitals                 134          :
          :  # shells                           84          :
          :  # electrons                       134          :
          :  # halogen bonds                     0          :
          :  max. iterations                   250          :
          :  Hamiltonian                  GFN1-xTB          :
          :  restarted?                      false          :
          :  GBSA solvation                   true          :
          :  PC potential                    false          :
          :  electronic temp.          300.0000000     K    :
          :  accuracy                    1.0000000          :
          :  -> integral cutoff          0.2500000E+02      :
          :  -> integral neglect         0.1000000E-07      :
          :  -> SCF convergence          0.1000000E-05 Eh   :
          :  -> wf. convergence          0.2000000E-04 e    :
          :  Broyden damping             0.4000000          :
          ...................................................

 iter      E             dE          RMSdq      gap      omega  full diag
   1    -83.3807034 -0.833807E+02  0.849E+00    2.71       0.0  T
   2    -83.7211151 -0.340412E+00  0.508E+00    2.07       1.0  T
   3    -83.7089443  0.121708E-01  0.168E+00    2.14       1.0  T
   4    -83.7379429 -0.289986E-01  0.201E-01    2.06       1.0  T
   5    -83.7393031 -0.136021E-02  0.688E-02    2.10       1.0  T
   6    -83.7395113 -0.208239E-03  0.248E-02    2.09       1.0  T
   7    -83.7395374 -0.260468E-04  0.655E-03    2.09       2.4  T
   8    -83.7395381 -0.727389E-06  0.186E-03    2.09       8.3  T
   9    -83.7395382 -0.113742E-06  0.431E-04    2.09      35.8  T
  10    -83.7395382 -0.316413E-08  0.177E-04    2.09      87.1  T
  11    -83.7395382 -0.187939E-09  0.551E-05    2.09     280.0  T

   *** convergence criteria satisfied after 11 iterations ***

         #    Occupation            Energy/Eh            Energy/eV
      -------------------------------------------------------------
         1        2.0000           -0.8680344             -23.6204
       ...           ...                  ...                  ...
        61        2.0000           -0.4717795             -12.8378
        62        2.0000           -0.4690615             -12.7638
        63        2.0000           -0.4611990             -12.5499
        64        2.0000           -0.4492867             -12.2257
        65        2.0000           -0.4476369             -12.1808
        66        2.0000           -0.4229501             -11.5091
        67        2.0000           -0.4139168             -11.2632 (HOMO)
        68                         -0.3371522              -9.1744 (LUMO)
        69                         -0.3244264              -8.8281
        70                         -0.2838458              -7.7238
        71                         -0.2625661              -7.1448
        72                         -0.2447193              -6.6592
       ...                                ...                  ...
       134                          0.6830905              18.5878
      -------------------------------------------------------------
                  HL-Gap            0.0767645 Eh            2.0889 eV
             Fermi-level           -0.3755345 Eh          -10.2188 eV

 SCC (total)                   0 d,  0 h,  0 min,  0.160 sec
 SCC setup                      ...        0 min,  0.002 sec (  1.259%)
 Dispersion                     ...        0 min,  0.000 sec (  0.197%)
 classical contributions        ...        0 min,  0.000 sec (  0.070%)
 integral evaluation            ...        0 min,  0.028 sec ( 17.463%)
 iterations                     ...        0 min,  0.068 sec ( 42.538%)
 molecular gradient             ...        0 min,  0.060 sec ( 37.512%)
 printout                       ...        0 min,  0.001 sec (  0.916%)

         :::::::::::::::::::::::::::::::::::::::::::::::::::::
         ::                     SUMMARY                     ::
         :::::::::::::::::::::::::::::::::::::::::::::::::::::
         :: total energy             -82.980530949544 Eh    ::
         :: total w/o Gsasa/hb       -82.959646953798 Eh    ::
         :: gradient norm              0.108019624474 Eh/a0 ::
         :: HOMO-LUMO gap              2.088869131506 eV    ::
         ::.................................................::
         :: SCC energy               -83.739538210539 Eh    ::
         :: -> electrostatic           0.364420444892 Eh    ::
         :: -> Gsolv                  -0.064353014219 Eh    ::
         ::    -> Gelec               -0.043469018473 Eh    ::
         ::    -> Gsasa               -0.024938176433 Eh    ::
         ::    -> Ghb                 -0.003570098318 Eh    ::
         ::    -> Gshift               0.007624279005 Eh    ::
         :: repulsion energy           0.784842513898 Eh    ::
         :: dispersion energy         -0.025835252903 Eh    ::
         :: halogen bond corr.         0.000000000000 Eh    ::
         :: add. restraining           0.000000000000 Eh    ::
         :: total charge               0.000000000000 e     ::
         :::::::::::::::::::::::::::::::::::::::::::::::::::::

      ----------------------------------------------------------- 
     |                   =====================                   |
     |                        A N C O P T                        |
     |                   =====================                   |
     |               Approximate Normal Coordinate               |
     |                Rational Function Optimizer                |
      ----------------------------------------------------------- 

          ...................................................
          :                      SETUP                      :
          :.................................................:
          :   optimization level            normal          :
          :   max. optcycles                   200          :
          :   ANC micro-cycles                  20          :
          :   degrees of freedom               120          :
          :.................................................:
          :   RF solver                   davidson          :
          :   write xtbopt.log                true          :
          :   linear?                        false          :
          :   energy convergence         0.5000000E-05 Eh   :
          :   grad. convergence          0.1000000E-02 Eh/α :
          :   maximium RF displ.         1.0000000          :
          :   Hlow (freq-cutoff)         0.1000000E-01      :
          :   Hmax (freq-cutoff)         5.0000000          :
          :   S6 in model hess.         20.0000000          :
          ...................................................

generating ANC from model Hessian ...
Using Lindh-Hessian (1995)
 Shifting diagonal of input Hessian by   9.841259854013287E-003
 Lowest  eigenvalues of input Hessian
    0.000000    0.000000    0.000000    0.000000    0.000000    0.000000
    0.010000    0.010088    0.010939    0.011714    0.012112    0.012327
    0.012768    0.013609    0.013865    0.014884    0.016053    0.016513
 Highest eigenvalues
    2.047522    2.141471    2.255366    2.262340    2.338649    2.369664
 

........................................................................
.............................. CYCLE    1 ..............................
........................................................................
   1    -83.7395382 -0.837395E+02  0.151E-05    2.09       0.0  T
   2    -83.7395382 -0.289901E-11  0.695E-06    2.09    2221.6  T
   3    -83.7395382 -0.397904E-12  0.414E-06    2.09    3727.6  T
     SCC iter.                  ...        0 min,  0.017 sec
     gradient                   ...        0 min,  0.061 sec
 * total energy  :   -82.9805309 Eh     change       -0.5587708E-10 Eh
   gradient norm :     0.1080196 Eh/α   predicted     0.0000000E+00 (-100.00%)
   displ. norm   :     0.3388747 α      lambda       -0.1718562E-01
   maximum displ.:     0.1223696 α      in ANC's #26, #21, #36, ...

........................................................................
.............................. CYCLE    2 ..............................
........................................................................
   1    -83.7589503 -0.837590E+02  0.103E-01    2.20       0.0  T
   2    -83.7593744 -0.424188E-03  0.562E-02    2.18       1.0  T
   3    -83.7595188 -0.144373E-03  0.176E-02    2.19       1.0  T
   4    -83.7595202 -0.138436E-05  0.918E-03    2.19       1.7  T
   5    -83.7595213 -0.113373E-05  0.181E-03    2.19       8.5  T
   6    -83.7595214 -0.425477E-07  0.441E-04    2.19      35.0  T
   7    -83.7595214 -0.269999E-08  0.150E-04    2.19     103.1  T
   8    -83.7595214 -0.361240E-09  0.397E-05    2.19     388.8  T
     SCC iter.                  ...        0 min,  0.046 sec
     gradient                   ...        0 min,  0.061 sec
 * total energy  :   -82.9935123 Eh     change       -0.1298130E-01 Eh
   gradient norm :     0.0573366 Eh/α   predicted    -0.9595241E-02 ( -26.08%)
   displ. norm   :     0.3822225 α      lambda       -0.9424987E-02
   maximum displ.:     0.1541604 α      in ANC's #26, #21, #36, ...

........................................................................
.............................. CYCLE    3 ..............................
........................................................................
   1    -83.7725581 -0.837726E+02  0.110E-01    2.29       0.0  T
   2    -83.7730373 -0.479201E-03  0.542E-02    2.28       1.0  T
   3    -83.7731690 -0.131719E-03  0.178E-02    2.29       1.0  T
   4    -83.7731706 -0.153353E-05  0.871E-03    2.29       1.8  T
   5    -83.7731716 -0.106954E-05  0.209E-03    2.29       7.4  T
   6    -83.7731717 -0.522086E-07  0.443E-04    2.29      34.8  T
   7    -83.7731717 -0.312482E-08  0.158E-04    2.29      97.7  T
   8    -83.7731717 -0.364764E-09  0.371E-05    2.29     415.5  T
     SCC iter.                  ...        0 min,  0.046 sec
     gradient                   ...        0 min,  0.061 sec
 * total energy  :   -82.9990772 Eh     change       -0.5564902E-02 Eh
   gradient norm :     0.0171991 Eh/α   predicted    -0.5401620E-02 (  -2.93%)
   displ. norm   :     0.2446135 α      lambda       -0.1331386E-02
   maximum displ.:     0.1211281 α      in ANC's #5, #19, #26, ...

........................................................................
.............................. CYCLE    4 ..............................
........................................................................
   1    -83.7738719 -0.837739E+02  0.248E-02    2.30       0.0  T
   2    -83.7738930 -0.210208E-04  0.102E-02    2.31       1.5  T
   3    -83.7738951 -0.216041E-05  0.479E-03    2.31       3.2  T
   4    -83.7738952 -0.382923E-07  0.168E-03    2.31       9.2  T
   5    -83.7738952 -0.409277E-07  0.654E-04    2.31      23.6  T
   6    -83.7738952 -0.843417E-08  0.140E-04    2.31     109.9  T
   7    -83.7738952 -0.728392E-09  0.522E-05    2.31     295.4  T
     SCC iter.                  ...        0 min,  0.041 sec
     gradient                   ...        0 min,  0.061 sec
 * total energy  :   -83.0000778 Eh     change       -0.1000612E-02 Eh
   gradient norm :     0.0115675 Eh/α   predicted    -0.7055495E-03 ( -29.49%)
   displ. norm   :     0.3576735 α      lambda       -0.1143208E-02
   maximum displ.:     0.1955441 α      in ANC's #5, #19, #2, ...

........................................................................
.............................. CYCLE    5 ..............................
........................................................................
   1    -83.7734911 -0.837735E+02  0.197E-02    2.31       0.0  T
   2    -83.7735047 -0.136054E-04  0.991E-03    2.31       1.6  T
   3    -83.7735062 -0.149825E-05  0.458E-03    2.31       3.4  T
   4    -83.7735063 -0.581165E-07  0.225E-03    2.31       6.9  T
   5    -83.7735064 -0.625912E-07  0.509E-04    2.31      30.3  T
   6    -83.7735064 -0.103205E-07  0.147E-04    2.31     105.0  T
   7    -83.7735064 -0.618783E-09  0.464E-05    2.31     332.8  T
     SCC iter.                  ...        0 min,  0.041 sec
     gradient                   ...        0 min,  0.060 sec
 * total energy  :   -83.0008654 Eh     change       -0.7876606E-03 Eh
   gradient norm :     0.0098978 Eh/α   predicted    -0.6447776E-03 ( -18.14%)
   displ. norm   :     0.3191576 α      lambda       -0.5837443E-03
   maximum displ.:     0.1781591 α      in ANC's #5, #2, #4, ...

........................................................................
.............................. CYCLE    6 ..............................
........................................................................
   1    -83.7739862 -0.837740E+02  0.937E-03    2.31       0.0  T
   2    -83.7739897 -0.348961E-05  0.450E-03    2.31       3.4  T
   3    -83.7739900 -0.264491E-06  0.227E-03    2.31       6.8  T
   4    -83.7739900 -0.122695E-07  0.105E-03    2.31      14.6  T
   5    -83.7739900 -0.142181E-07  0.254E-04    2.31      60.8  T
   6    -83.7739900 -0.252652E-08  0.761E-05    2.31     202.8  T
   7    -83.7739900 -0.163908E-09  0.244E-05    2.31     631.9  T
     SCC iter.                  ...        0 min,  0.041 sec
     gradient                   ...        0 min,  0.060 sec
 * total energy  :   -83.0013123 Eh     change       -0.4468592E-03 Eh
   gradient norm :     0.0096826 Eh/α   predicted    -0.3216031E-03 ( -28.03%)
   displ. norm   :     0.3849470 α      lambda       -0.5764339E-03
   maximum displ.:     0.2058915 α      in ANC's #5, #2, #7, ...

........................................................................
.............................. CYCLE    7 ..............................
........................................................................
   1    -83.7752287 -0.837752E+02  0.819E-03    2.31       0.0  T
   2    -83.7752316 -0.283838E-05  0.383E-03    2.31       4.0  T
   3    -83.7752317 -0.160950E-06  0.193E-03    2.31       8.0  T
   4    -83.7752317 -0.382278E-08  0.831E-04    2.31      18.6  T
   5    -83.7752317 -0.702788E-08  0.207E-04    2.31      74.6  T
   6    -83.7752317 -0.202184E-08  0.557E-05    2.31     277.0  T
   7    -83.7752317 -0.736691E-10  0.195E-05    2.31     790.4  T
     SCC iter.                  ...        0 min,  0.041 sec
     gradient                   ...        0 min,  0.060 sec
 * total energy  :   -83.0017500 Eh     change       -0.4377148E-03 Eh
   gradient norm :     0.0081551 Eh/α   predicted    -0.3309264E-03 ( -24.40%)
   displ. norm   :     0.3788978 α      lambda       -0.4324131E-03
   maximum displ.:     0.2034969 α      in ANC's #2, #5, #4, ...

........................................................................
.............................. CYCLE    8 ..............................
........................................................................
   1    -83.7762067 -0.837762E+02  0.699E-03    2.31       0.0  T
   2    -83.7762092 -0.249365E-05  0.454E-03    2.31       3.4  T
   3    -83.7762096 -0.391822E-06  0.199E-03    2.31       7.8  T
   4    -83.7762096  0.778201E-08  0.114E-03    2.31      13.5  T
   5    -83.7762096 -0.182270E-07  0.184E-04    2.31      84.1  T
   6    -83.7762096 -0.777007E-09  0.379E-05    2.31     406.9  T
     SCC iter.                  ...        0 min,  0.035 sec
     gradient                   ...        0 min,  0.060 sec
 * total energy  :   -83.0020680 Eh     change       -0.3180374E-03 Eh
   gradient norm :     0.0060461 Eh/α   predicted    -0.2472462E-03 ( -22.26%)
   displ. norm   :     0.2936150 α      lambda       -0.2411351E-03
   maximum displ.:     0.1848742 α      in ANC's #2, #5, #4, ...

........................................................................
.............................. CYCLE    9 ..............................
........................................................................
   1    -83.7772567 -0.837773E+02  0.526E-03    2.31       0.0  T
   2    -83.7772578 -0.107742E-05  0.335E-03    2.31       4.6  T
   3    -83.7772580 -0.186623E-06  0.152E-03    2.31      10.1  T
   4    -83.7772580  0.159609E-08  0.819E-04    2.31      18.9  T
   5    -83.7772580 -0.877611E-08  0.120E-04    2.31     128.6  T
   6    -83.7772580 -0.656001E-09  0.276E-05    2.31     559.4  T
     SCC iter.                  ...        0 min,  0.035 sec
     gradient                   ...        0 min,  0.060 sec
 * total energy  :   -83.0022405 Eh     change       -0.1724784E-03 Eh
   gradient norm :     0.0039645 Eh/α   predicted    -0.1309630E-03 ( -24.07%)
   displ. norm   :     0.1876723 α      lambda       -0.1194504E-03
   maximum displ.:     0.1407023 α      in ANC's #2, #5, #4, ...

........................................................................
.............................. CYCLE   10 ..............................
........................................................................
   1    -83.7778224 -0.837778E+02  0.367E-03    2.31       0.0  T
   2    -83.7778229 -0.418832E-06  0.180E-03    2.31       8.6  T
   3    -83.7778229 -0.371119E-07  0.943E-04    2.31      16.4  T
   4    -83.7778229 -0.142958E-08  0.301E-04    2.31      51.3  T
   5    -83.7778229 -0.356422E-09  0.430E-05    2.31     358.9  T
   6    -83.7778229 -0.517844E-10  0.188E-05    2.31     822.4  T
     SCC iter.                  ...        0 min,  0.036 sec
     gradient                   ...        0 min,  0.060 sec
 * total energy  :   -83.0023341 Eh     change       -0.9354564E-04 Eh
   gradient norm :     0.0028050 Eh/α   predicted    -0.6182960E-04 ( -33.90%)
   displ. norm   :     0.1382130 α      lambda       -0.9306299E-04
   maximum displ.:     0.1136818 α      in ANC's #2, #4, #11, ...

........................................................................
.............................. CYCLE   11 ..............................
........................................................................
   1    -83.7783878 -0.837784E+02  0.382E-03    2.31       0.0  T
   2    -83.7783883 -0.578936E-06  0.198E-03    2.31       7.8  T
   3    -83.7783884 -0.887972E-07  0.926E-04    2.31      16.7  T
   4    -83.7783884 -0.189955E-08  0.439E-04    2.31      35.2  T
   5    -83.7783884 -0.235170E-08  0.114E-04    2.31     135.0  T
   6    -83.7783884 -0.405947E-09  0.186E-05    2.31     830.8  T
     SCC iter.                  ...        0 min,  0.035 sec
     gradient                   ...        0 min,  0.060 sec
 * total energy  :   -83.0024118 Eh     change       -0.7777549E-04 Eh
   gradient norm :     0.0027205 Eh/α   predicted    -0.4742316E-04 ( -39.03%)
   displ. norm   :     0.1467032 α      lambda       -0.9339303E-04
   maximum displ.:     0.1166837 α      in ANC's #2, #7, #1, ...

........................................................................
.............................. CYCLE   12 ..............................
........................................................................
   1    -83.7781195 -0.837781E+02  0.318E-03    2.31       0.0  T
   2    -83.7781200 -0.483293E-06  0.207E-03    2.31       7.5  T
   3    -83.7781201 -0.108839E-06  0.897E-04    2.31      17.2  T
   4    -83.7781201  0.922057E-09  0.475E-04    2.31      32.5  T
   5    -83.7781201 -0.268591E-08  0.798E-05    2.31     193.5  T
   6    -83.7781201 -0.159105E-09  0.181E-05    2.31     851.7  T
     SCC iter.                  ...        0 min,  0.035 sec
     gradient                   ...        0 min,  0.060 sec
 * total energy  :   -83.0024900 Eh     change       -0.7815974E-04 Eh
   gradient norm :     0.0029313 Eh/α   predicted    -0.4770416E-04 ( -38.97%)
   displ. norm   :     0.1542472 α      lambda       -0.8368884E-04
   maximum displ.:     0.1178474 α      in ANC's #2, #7, #1, ...

........................................................................
.............................. CYCLE   13 ..............................
........................................................................
   1    -83.7780764 -0.837781E+02  0.275E-03    2.31       0.0  T
   2    -83.7780768 -0.333160E-06  0.157E-03    2.31       9.8  T
   3    -83.7780768 -0.522464E-07  0.699E-04    2.31      22.1  T
   4    -83.7780768 -0.112411E-08  0.421E-04    2.31      36.6  T
   5    -83.7780768 -0.225536E-08  0.464E-05    2.31     332.9  T
   6    -83.7780768 -0.490843E-10  0.186E-05    2.31     829.4  T
     SCC iter.                  ...        0 min,  0.035 sec
     gradient                   ...        0 min,  0.060 sec
 * total energy  :   -83.0025599 Eh     change       -0.6994554E-04 Eh
   gradient norm :     0.0032209 Eh/α   predicted    -0.4284095E-04 ( -38.75%)
   displ. norm   :     0.1462173 α      lambda       -0.7177242E-04
   maximum displ.:     0.1142846 α      in ANC's #2, #7, #1, ...

........................................................................
.............................. CYCLE   14 ..............................
........................................................................
   1    -83.7776062 -0.837776E+02  0.233E-03    2.31       0.0  T
   2    -83.7776063 -0.157994E-06  0.949E-04    2.31      16.3  T
   3    -83.7776063 -0.778137E-08  0.528E-04    2.31      29.2  T
   4    -83.7776063 -0.103570E-08  0.186E-04    2.31      82.9  T
   5    -83.7776063 -0.235545E-09  0.286E-05    2.31     540.3  T
     SCC iter.                  ...        0 min,  0.030 sec
     gradient                   ...        0 min,  0.060 sec
 * total energy  :   -83.0026211 Eh     change       -0.6117299E-04 Eh
   gradient norm :     0.0026347 Eh/α   predicted    -0.3665507E-04 ( -40.08%)
   displ. norm   :     0.1447175 α      lambda       -0.6721859E-04
   maximum displ.:     0.1137903 α      in ANC's #2, #7, #1, ...

........................................................................
.............................. CYCLE   15 ..............................
........................................................................
   1    -83.7778025 -0.837778E+02  0.247E-03    2.31       0.0  T
   2    -83.7778027 -0.226898E-06  0.102E-03    2.31      15.2  T
   3    -83.7778027 -0.277688E-07  0.497E-04    2.31      31.1  T
   4    -83.7778027 -0.218535E-08  0.219E-04    2.31      70.4  T
   5    -83.7778027 -0.361780E-09  0.804E-05    2.31     191.8  T
   6    -83.7778027 -0.169635E-09  0.158E-05    2.31     979.2  T
     SCC iter.                  ...        0 min,  0.036 sec
     gradient                   ...        0 min,  0.060 sec
 * total energy  :   -83.0026791 Eh     change       -0.5800492E-04 Eh
   gradient norm :     0.0019798 Eh/α   predicted    -0.3431516E-04 ( -40.84%)
   displ. norm   :     0.2191602 α      lambda       -0.6539351E-04
   maximum displ.:     0.1772819 α      in ANC's #2, #1, #7, ...

........................................................................
.............................. CYCLE   16 ..............................
........................................................................
   1    -83.7776243 -0.837776E+02  0.436E-03    2.31       0.0  T
   2    -83.7776251 -0.751416E-06  0.202E-03    2.31       7.6  T
   3    -83.7776252 -0.142973E-06  0.744E-04    2.31      20.7  T
   4    -83.7776252 -0.424527E-08  0.369E-04    2.31      41.8  T
   5    -83.7776252 -0.132945E-08  0.123E-04    2.31     125.2  T
   6    -83.7776252 -0.353467E-09  0.234E-05    2.31     660.4  T
     SCC iter.                  ...        0 min,  0.036 sec
     gradient                   ...        0 min,  0.060 sec
 * total energy  :   -83.0027588 Eh     change       -0.7970973E-04 Eh
   gradient norm :     0.0026170 Eh/α   predicted    -0.3339601E-04 ( -58.10%)
   displ. norm   :     0.1401055 α      lambda       -0.5676120E-04
   maximum displ.:     0.1131399 α      in ANC's #2, #1, #7, ...

........................................................................
.............................. CYCLE   17 ..............................
........................................................................
   1    -83.7778693 -0.837779E+02  0.175E-03    2.31       0.0  T
   2    -83.7778694 -0.158035E-06  0.795E-04    2.31      19.4  T
   3    -83.7778694 -0.133314E-07  0.362E-04    2.31      42.6  T
   4    -83.7778695 -0.656854E-09  0.219E-04    2.31      70.5  T
   5    -83.7778695 -0.475481E-09  0.465E-05    2.31     331.8  T
   6    -83.7778695 -0.697185E-10  0.127E-05    2.31    1212.1  T
     SCC iter.                  ...        0 min,  0.036 sec
     gradient                   ...        0 min,  0.060 sec
 * total energy  :   -83.0028097 Eh     change       -0.5089331E-04 Eh
   gradient norm :     0.0025382 Eh/α   predicted    -0.2893986E-04 ( -43.14%)
   displ. norm   :     0.1814059 α      lambda       -0.7162525E-04
   maximum displ.:     0.1439108 α      in ANC's #2, #1, #8, ...

........................................................................
.............................. CYCLE   18 ..............................
........................................................................
   1    -83.7781616 -0.837782E+02  0.174E-03    2.31       0.0  T
   2    -83.7781617 -0.828438E-07  0.666E-04    2.31      23.2  T
   3    -83.7781617 -0.592853E-08  0.359E-04    2.31      42.9  T
   4    -83.7781617 -0.543025E-09  0.117E-04    2.31     131.6  T
   5    -83.7781617 -0.117396E-09  0.375E-05    2.31     411.5  T
     SCC iter.                  ...        0 min,  0.031 sec
     gradient                   ...        0 min,  0.059 sec
 * total energy  :   -83.0028743 Eh     change       -0.6458761E-04 Eh
   gradient norm :     0.0024196 Eh/α   predicted    -0.3699403E-04 ( -42.72%)
   displ. norm   :     0.2400718 α      lambda       -0.8579341E-04
   maximum displ.:     0.1887212 α      in ANC's #2, #1, #8, ...

........................................................................
.............................. CYCLE   19 ..............................
........................................................................
   1    -83.7780683 -0.837781E+02  0.226E-03    2.31       0.0  T
   2    -83.7780685 -0.129457E-06  0.743E-04    2.31      20.8  T
   3    -83.7780685 -0.869777E-08  0.447E-04    2.31      34.5  T
   4    -83.7780685 -0.128632E-08  0.158E-04    2.31      98.0  T
   5    -83.7780685 -0.619394E-09  0.501E-05    2.31     308.2  T
     SCC iter.                  ...        0 min,  0.030 sec
     gradient                   ...        0 min,  0.060 sec
 * total energy  :   -83.0029511 Eh     change       -0.7682109E-04 Eh
   gradient norm :     0.0023583 Eh/α   predicted    -0.4537062E-04 ( -40.94%)
   displ. norm   :     0.2824936 α      lambda       -0.9020822E-04
   maximum displ.:     0.2228329 α      in ANC's #2, #1, #5, ...

........................................................................
.............................. CYCLE   20 ..............................
........................................................................
   1    -83.7780521 -0.837781E+02  0.236E-03    2.31       0.0  T
   2    -83.7780522 -0.147550E-06  0.865E-04    2.31      17.8  T
   3    -83.7780522 -0.237531E-07  0.467E-04    2.31      33.1  T
   4    -83.7780522 -0.353675E-08  0.176E-04    2.31      87.7  T
   5    -83.7780522 -0.290072E-09  0.537E-05    2.31     287.4  T
     SCC iter.                  ...        0 min,  0.030 sec
     gradient                   ...        0 min,  0.060 sec
 * total energy  :   -83.0030279 Eh     change       -0.7673425E-04 Eh
   gradient norm :     0.0022893 Eh/α   predicted    -0.4870624E-04 ( -36.53%)
   displ. norm   :     0.2834073 α      lambda       -0.7958907E-04
   maximum displ.:     0.2251520 α      in ANC's #2, #1, #4, ...
 * RMSD in coord.:     0.5693548 α      energy gain  -0.2249692E-01 Eh

generating ANC from model Hessian ...
Using Lindh-Hessian (1995)
 Shifting diagonal of input Hessian by   9.826561703338550E-003
 Lowest  eigenvalues of input Hessian
    0.000000    0.000000    0.000000    0.000000    0.000000    0.000000
    0.010000    0.010149    0.010894    0.011546    0.012047    0.012273
    0.012670    0.013501    0.013719    0.014592    0.016259    0.016518
 Highest eigenvalues
    2.077903    2.192271    2.280708    2.323192    2.389863    2.403879
 

........................................................................
.............................. CYCLE   21 ..............................
........................................................................
   1    -83.7781082 -0.837781E+02  0.187E-03    2.31       0.0  T
   2    -83.7781082 -0.889545E-07  0.728E-04    2.31      21.2  T
   3    -83.7781083 -0.110376E-07  0.352E-04    2.31      43.9  T
   4    -83.7781083 -0.674973E-09  0.136E-04    2.31     113.8  T
   5    -83.7781083 -0.396241E-09  0.524E-05    2.31     294.2  T
     SCC iter.                  ...        0 min,  0.030 sec
     gradient                   ...        0 min,  0.060 sec
 * total energy  :   -83.0030980 Eh     change       -0.7014717E-04 Eh
   gradient norm :     0.0022699 Eh/α   predicted     0.0000000E+00 (-100.00%)
   displ. norm   :     0.0321029 α      lambda       -0.2034529E-04
   maximum displ.:     0.0227396 α      in ANC's #2, #9, #4, ...

........................................................................
.............................. CYCLE   22 ..............................
........................................................................
   1    -83.7784847 -0.837785E+02  0.151E-03    2.31       0.0  T
   2    -83.7784848 -0.489175E-07  0.552E-04    2.31      27.9  T
   3    -83.7784848 -0.891247E-08  0.340E-04    2.31      45.3  T
   4    -83.7784848 -0.169192E-08  0.120E-04    2.31     128.9  T
   5    -83.7784848 -0.171397E-09  0.228E-05    2.31     675.6  T
     SCC iter.                  ...        0 min,  0.030 sec
     gradient                   ...        0 min,  0.060 sec
 * total energy  :   -83.0031166 Eh     change       -0.1858067E-04 Eh
   gradient norm :     0.0012817 Eh/α   predicted    -0.1066879E-04 ( -42.58%)
   displ. norm   :     0.1513985 α      lambda       -0.4865737E-04
   maximum displ.:     0.1052596 α      in ANC's #2, #9, #4, ...

........................................................................
.............................. CYCLE   23 ..............................
........................................................................
   1    -83.7790563 -0.837791E+02  0.550E-03    2.31       0.0  T
   2    -83.7790571 -0.800300E-06  0.185E-03    2.31       8.4  T
   3    -83.7790572 -0.140998E-06  0.102E-03    2.31      15.1  T
   4    -83.7790573 -0.173776E-07  0.385E-04    2.31      40.0  T
   5    -83.7790573 -0.123897E-08  0.109E-04    2.31     142.1  T
   6    -83.7790573 -0.106226E-09  0.268E-05    2.31     576.1  T
     SCC iter.                  ...        0 min,  0.036 sec
     gradient                   ...        0 min,  0.060 sec
 * total energy  :   -83.0031564 Eh     change       -0.3984379E-04 Eh
   gradient norm :     0.0022293 Eh/α   predicted    -0.2457830E-04 ( -38.31%)
   displ. norm   :     0.0403484 α      lambda       -0.1236840E-04
   maximum displ.:     0.0328165 α      in ANC's #2, #4, #1, ...

........................................................................
.............................. CYCLE   24 ..............................
........................................................................
   1    -83.7788970 -0.837789E+02  0.815E-04    2.31       0.0  T
   2    -83.7788971 -0.150119E-07  0.383E-04    2.31      40.3  T
   3    -83.7788971 -0.131598E-08  0.204E-04    2.31      75.6  T
   4    -83.7788971 -0.853362E-10  0.466E-05    2.31     331.3  T
   5    -83.7788971 -0.463416E-10  0.131E-05    2.31    1173.7  T
     SCC iter.                  ...        0 min,  0.030 sec
     gradient                   ...        0 min,  0.060 sec
 * total energy  :   -83.0031677 Eh     change       -0.1121459E-04 Eh
   gradient norm :     0.0017432 Eh/α   predicted    -0.6196782E-05 ( -44.74%)
   displ. norm   :     0.0983236 α      lambda       -0.2223294E-04
   maximum displ.:     0.0771942 α      in ANC's #2, #1, #4, ...

........................................................................
.............................. CYCLE   25 ..............................
........................................................................
   1    -83.7783540 -0.837784E+02  0.247E-03    2.31       0.0  T
   2    -83.7783541 -0.109112E-06  0.111E-03    2.31      13.9  T
   3    -83.7783542 -0.205253E-07  0.662E-04    2.31      23.3  T
   4    -83.7783542 -0.329800E-08  0.192E-04    2.31      80.4  T
   5    -83.7783542 -0.119091E-08  0.462E-05    2.31     333.7  T
     SCC iter.                  ...        0 min,  0.030 sec
     gradient                   ...        0 min,  0.060 sec
 * total energy  :   -83.0031918 Eh     change       -0.2418142E-04 Eh
   gradient norm :     0.0011650 Eh/α   predicted    -0.1116732E-04 ( -53.82%)
   displ. norm   :     0.0987668 α      lambda       -0.1467085E-04
   maximum displ.:     0.0767502 α      in ANC's #2, #1, #4, ...

........................................................................
.............................. CYCLE   26 ..............................
........................................................................
   1    -83.7780960 -0.837781E+02  0.159E-03    2.31       0.0  T
   2    -83.7780960 -0.529622E-07  0.683E-04    2.31      22.6  T
   3    -83.7780960 -0.208873E-07  0.362E-04    2.31      42.6  T
   4    -83.7780960 -0.159157E-08  0.994E-05    2.31     155.2  T
   5    -83.7780960 -0.910774E-10  0.245E-05    2.31     628.8  T
     SCC iter.                  ...        0 min,  0.029 sec
     gradient                   ...        0 min,  0.060 sec
 * total energy  :   -83.0032103 Eh     change       -0.1846132E-04 Eh
   gradient norm :     0.0017787 Eh/α   predicted    -0.7369259E-05 ( -60.08%)
   displ. norm   :     0.1109304 α      lambda       -0.1698935E-04
   maximum displ.:     0.0838440 α      in ANC's #2, #1, #4, ...

........................................................................
.............................. CYCLE   27 ..............................
........................................................................
   1    -83.7780487 -0.837780E+02  0.145E-03    2.31       0.0  T
   2    -83.7780488 -0.599777E-07  0.659E-04    2.31      23.4  T
   3    -83.7780488 -0.238318E-07  0.281E-04    2.31      55.0  T
   4    -83.7780488 -0.980393E-09  0.971E-05    2.31     159.0  T
   5    -83.7780488 -0.583213E-10  0.285E-05    2.31     541.0  T
     SCC iter.                  ...        0 min,  0.029 sec
     gradient                   ...        0 min,  0.060 sec
 * total energy  :   -83.0032331 Eh     change       -0.2281475E-04 Eh
   gradient norm :     0.0017041 Eh/α   predicted    -0.8541583E-05 ( -62.56%)
   displ. norm   :     0.1523468 α      lambda       -0.2293809E-04
   maximum displ.:     0.1132392 α      in ANC's #2, #1, #4, ...

........................................................................
.............................. CYCLE   28 ..............................
........................................................................
   1    -83.7781966 -0.837782E+02  0.133E-03    2.31       0.0  T
   2    -83.7781967 -0.504625E-07  0.627E-04    2.31      24.6  T
   3    -83.7781967 -0.955350E-08  0.343E-04    2.31      44.9  T
   4    -83.7781967 -0.110279E-08  0.112E-04    2.31     137.3  T
   5    -83.7781967 -0.168129E-09  0.434E-05    2.31     355.6  T
     SCC iter.                  ...        0 min,  0.029 sec
     gradient                   ...        0 min,  0.060 sec
 * total energy  :   -83.0032634 Eh     change       -0.3027612E-04 Eh
   gradient norm :     0.0012092 Eh/α   predicted    -0.1159221E-04 ( -61.71%)
   displ. norm   :     0.1883106 α      lambda       -0.2332777E-04
   maximum displ.:     0.1404666 α      in ANC's #2, #1, #7, ...

........................................................................
.............................. CYCLE   29 ..............................
........................................................................
   1    -83.7782264 -0.837782E+02  0.123E-03    2.31       0.0  T
   2    -83.7782265 -0.322064E-07  0.537E-04    2.31      28.7  T
   3    -83.7782265 -0.525522E-08  0.307E-04    2.31      50.2  T
   4    -83.7782265 -0.131901E-08  0.963E-05    2.31     160.2  T
   5    -83.7782265 -0.193467E-09  0.384E-05    2.31     401.9  T
     SCC iter.                  ...        0 min,  0.030 sec
     gradient                   ...        0 min,  0.061 sec
 * total energy  :   -83.0032930 Eh     change       -0.2962773E-04 Eh
   gradient norm :     0.0008436 Eh/α   predicted    -0.1185107E-04 ( -60.00%)
   displ. norm   :     0.1538678 α      lambda       -0.1525624E-04
   maximum displ.:     0.1171827 α      in ANC's #2, #1, #7, ...

........................................................................
.............................. CYCLE   30 ..............................
........................................................................
   1    -83.7784775 -0.837785E+02  0.132E-03    2.32       0.0  T
   2    -83.7784775 -0.434673E-07  0.605E-04    2.31      25.5  T
   3    -83.7784775 -0.192644E-07  0.270E-04    2.31      57.1  T
   4    -83.7784775 -0.941682E-09  0.814E-05    2.31     189.5  T
   5    -83.7784775 -0.588614E-10  0.254E-05    2.31     607.1  T
     SCC iter.                  ...        0 min,  0.030 sec
     gradient                   ...        0 min,  0.061 sec
 * total energy  :   -83.0033131 Eh     change       -0.2010092E-04 Eh
   gradient norm :     0.0005522 Eh/α   predicted    -0.7708745E-05 ( -61.65%)
   displ. norm   :     0.1206841 α      lambda       -0.1109584E-04
   maximum displ.:     0.0930867 α      in ANC's #2, #1, #7, ...

........................................................................
.............................. CYCLE   31 ..............................
........................................................................
   1    -83.7786253 -0.837786E+02  0.103E-03    2.32       0.0  T
   2    -83.7786253 -0.324003E-07  0.493E-04    2.32      31.3  T
   3    -83.7786253 -0.154595E-07  0.174E-04    2.32      88.7  T
   4    -83.7786253 -0.388127E-09  0.635E-05    2.32     243.0  T
     SCC iter.                  ...        0 min,  0.024 sec
     gradient                   ...        0 min,  0.061 sec
 * total energy  :   -83.0033288 Eh     change       -0.1564373E-04 Eh
   gradient norm :     0.0004968 Eh/α   predicted    -0.5584246E-05 ( -64.30%)
   displ. norm   :     0.1116121 α      lambda       -0.1077788E-04
   maximum displ.:     0.0858865 α      in ANC's #2, #1, #7, ...

........................................................................
.............................. CYCLE   32 ..............................
........................................................................
   1    -83.7787526 -0.837788E+02  0.839E-04    2.32       0.0  T
   2    -83.7787527 -0.252930E-07  0.384E-04    2.32      40.2  T
   3    -83.7787527 -0.762189E-08  0.164E-04    2.32      94.0  T
   4    -83.7787527 -0.363087E-09  0.676E-05    2.32     228.3  T
     SCC iter.                  ...        0 min,  0.024 sec
     gradient                   ...        0 min,  0.061 sec
 * total energy  :   -83.0033443 Eh     change       -0.1551918E-04 Eh
   gradient norm :     0.0005160 Eh/α   predicted    -0.5419275E-05 ( -65.08%)
   displ. norm   :     0.1297873 α      lambda       -0.1272210E-04
   maximum displ.:     0.0981786 α      in ANC's #2, #1, #7, ...

........................................................................
.............................. CYCLE   33 ..............................
........................................................................
   1    -83.7787186 -0.837787E+02  0.774E-04    2.32       0.0  T
   2    -83.7787186 -0.223073E-07  0.336E-04    2.32      45.9  T
   3    -83.7787186 -0.295782E-08  0.165E-04    2.32      93.3  T
   4    -83.7787186 -0.281219E-09  0.716E-05    2.32     215.4  T
     SCC iter.                  ...        0 min,  0.024 sec
     gradient                   ...        0 min,  0.060 sec
 * total energy  :   -83.0033622 Eh     change       -0.1792024E-04 Eh
   gradient norm :     0.0004731 Eh/α   predicted    -0.6409101E-05 ( -64.24%)
   displ. norm   :     0.1598492 α      lambda       -0.1471080E-04
   maximum displ.:     0.1196339 α      in ANC's #2, #1, #7, ...

........................................................................
.............................. CYCLE   34 ..............................
........................................................................
   1    -83.7786920 -0.837787E+02  0.101E-03    2.32       0.0  T
   2    -83.7786920 -0.349470E-07  0.384E-04    2.32      40.1  T
   3    -83.7786920 -0.256088E-08  0.186E-04    2.32      82.8  T
   4    -83.7786920 -0.180549E-09  0.652E-05    2.32     236.6  T
     SCC iter.                  ...        0 min,  0.024 sec
     gradient                   ...        0 min,  0.060 sec
 * total energy  :   -83.0033822 Eh     change       -0.2003489E-04 Eh
   gradient norm :     0.0004645 Eh/α   predicted    -0.7442693E-05 ( -62.85%)
   displ. norm   :     0.1872111 α      lambda       -0.1466993E-04
   maximum displ.:     0.1392121 α      in ANC's #2, #1, #7, ...

........................................................................
.............................. CYCLE   35 ..............................
........................................................................
   1    -83.7785818 -0.837786E+02  0.114E-03    2.31       0.0  T
   2    -83.7785818 -0.373593E-07  0.446E-04    2.31      34.6  T
   3    -83.7785818 -0.276054E-08  0.226E-04    2.31      68.3  T
   4    -83.7785818 -0.236980E-09  0.733E-05    2.31     210.6  T
   5    -83.7785818 -0.949569E-10  0.326E-05    2.31     472.7  T
     SCC iter.                  ...        0 min,  0.030 sec
     gradient                   ...        0 min,  0.060 sec
 * total energy  :   -83.0034011 Eh     change       -0.1885689E-04 Eh
   gradient norm :     0.0005612 Eh/α   predicted    -0.7449582E-05 ( -60.49%)
   displ. norm   :     0.1777486 α      lambda       -0.1067103E-04
   maximum displ.:     0.1327412 α      in ANC's #2, #1, #12, ...

........................................................................
.............................. CYCLE   36 ..............................
........................................................................
   1    -83.7785512 -0.837786E+02  0.103E-03    2.31       0.0  T
   2    -83.7785512 -0.326578E-07  0.417E-04    2.31      37.0  T
   3    -83.7785512 -0.417708E-08  0.206E-04    2.31      74.9  T
   4    -83.7785512 -0.444018E-09  0.823E-05    2.31     187.5  T
   5    -83.7785512 -0.188095E-09  0.237E-05    2.31     652.2  T
     SCC iter.                  ...        0 min,  0.030 sec
     gradient                   ...        0 min,  0.060 sec
 * total energy  :   -83.0034141 Eh     change       -0.1301908E-04 Eh
   gradient norm :     0.0005284 Eh/α   predicted    -0.5415211E-05 ( -58.41%)
   displ. norm   :     0.1351660 α      lambda       -0.5691955E-05
   maximum displ.:     0.1018778 α      in ANC's #2, #1, #12, ...

........................................................................
.............................. CYCLE   37 ..............................
........................................................................
   1    -83.7786524 -0.837787E+02  0.775E-04    2.31       0.0  T
   2    -83.7786524 -0.177139E-07  0.296E-04    2.31      52.1  T
   3    -83.7786524 -0.113083E-08  0.145E-04    2.31     106.4  T
   4    -83.7786524 -0.900826E-10  0.404E-05    2.31     382.1  T
     SCC iter.                  ...        0 min,  0.024 sec
     gradient                   ...        0 min,  0.060 sec
 * total energy  :   -83.0034209 Eh     change       -0.6819003E-05 Eh
   gradient norm :     0.0003848 Eh/α   predicted    -0.2873311E-05 ( -57.86%)
   displ. norm   :     0.0928388 α      lambda       -0.2884223E-05
   maximum displ.:     0.0709517 α      in ANC's #2, #1, #5, ...

........................................................................
.............................. CYCLE   38 ..............................
........................................................................
   1    -83.7786501 -0.837787E+02  0.528E-04    2.32       0.0  T
   2    -83.7786501 -0.874101E-08  0.245E-04    2.32      63.1  T
   3    -83.7786501 -0.676820E-09  0.129E-04    2.32     119.7  T
   4    -83.7786501 -0.337081E-10  0.388E-05    2.32     397.8  T
     SCC iter.                  ...        0 min,  0.024 sec
     gradient                   ...        0 min,  0.060 sec
 * total energy  :   -83.0034245 Eh     change       -0.3541738E-05 Eh
   gradient norm :     0.0002948 Eh/α   predicted    -0.1448673E-05 ( -59.10%)
   displ. norm   :     0.0688192 α      lambda       -0.1806135E-05
   maximum displ.:     0.0532598 α      in ANC's #2, #1, #5, ...

   *** GEOMETRY OPTIMIZATION CONVERGED AFTER 38 ITERATIONS ***

------------------------------------------------------------------------
 total energy gain   :        -0.0228935 Eh      -14.3659 kcal/mol
 total RMSD          :         0.8296233 a0        0.4390 Å
 total power (kW/mol):        -1.5817613 (step)  -12.6278 (real)
------------------------------------------------------------------------

 ANCopt (total)                0 d,  0 h,  0 min,  4.760 sec
 optimizer setup                ...        0 min,  0.001 sec (  0.023%)
 model hessian                  ...        0 min,  0.051 sec (  1.064%)
 ANC generation                 ...        0 min,  0.006 sec (  0.117%)
 coordinate transformation      ...        0 min,  0.001 sec (  0.028%)
 single point calculation       ...        0 min,  4.681 sec ( 98.347%)
 optimization log               ...        0 min,  0.011 sec (  0.231%)
 hessian update                 ...        0 min,  0.001 sec (  0.028%)
 rational function              ...        0 min,  0.004 sec (  0.092%)

================
 final structure:
================
42
 xtb: 6.5.1 (579679a)
C           -5.17031436444966        3.90570103996087        0.91723691985060
O           -4.46205767293993        2.66931388082076        0.99021629281392
C           -3.40846722619158        2.54342507795606        0.17452303386190
O           -3.07053920439937        3.42738219106975       -0.58966208212915
C           -2.70353837554078        1.24798011582039        0.29031647240865
N           -1.63166906056550        1.15384474265775       -0.53472375917596
C           -0.89356726283195        0.09433531518818       -0.56222966034064
C            0.27331307040527       -0.03325541296621       -1.52082755022378
C            0.01866197540506       -1.16866525881803       -2.52217221411203
C            0.46196002761043        1.29396010985192       -2.25602609049529
N            1.52381561339989       -0.29573838554402       -0.78164797905444
C            1.84512048995271       -1.43111940037738       -0.14119715803300
O            1.09063475216056       -2.38191930613319        0.05767679672679
C            3.23590938658187       -1.43939948477440        0.36095936864343
N            3.83064728980834       -2.37109274318065        1.04021048234684
N            5.09845213835832       -1.93737158362160        1.27594238979026
C            5.20294006086908       -0.76634847856581        0.72646794363743
C            6.38361102905495        0.12331589039232        0.70212908906927
O            4.05852784455326       -0.39250586249888        0.13144763812329
N           -1.18662409677915       -0.97640129639362        0.24761302957608
C           -2.20260608659214       -0.97227758033728        1.09434241197004
O           -2.43035583228197       -2.00634731406789        1.87894516574758
C           -1.59147920723043       -3.16188774704163        1.84712289394729
C           -3.10078142199529        0.19921680319199        1.17993955809689
O           -4.05945172856958        0.20002296977308        1.95926871882495
H           -5.56997978507817        4.05520956551835       -0.08926480756266
H           -4.50626922017626        4.73809250246996        1.16506181896953
H           -5.98338335573073        3.84660977857404        1.63889803816130
H           -0.86942801329733       -0.93898424797642       -3.10900962520391
H           -0.13411465846824       -2.11570699228265       -2.00898600179930
H            0.87276806810679       -1.26315629793351       -3.19008600257768
H            0.65074232977826        2.09552918597855       -1.54334088793474
H            1.29913121584526        1.22127586996601       -2.94666680224551
H           -0.44172491625212        1.53189674067825       -2.81546649776741
H            2.25590768289513        0.38783522311554       -0.89931032908035
H            7.19895372624697       -0.33306412092501        1.25838482236473
H            6.69546721284826        0.29732917452614       -0.32771718082758
H            6.13100521004598        1.08733575928908        1.14340426320529
H           -0.53505697818542       -1.76659262886496        0.20797255578891
H           -1.62786507039149       -3.63202030924314        0.86189766755674
H           -0.55986409609646       -2.89507958155621        2.08811214625866
H           -1.98843048986823       -3.84068090369542        2.60024711081530
 
 Bond Distances (Angstroems)
 ---------------------------
C1-O2=1.4267         C1-H26=1.0932        C1-H27=1.0933        C1-H28=1.0887        O2-C1=1.4267         O2-C3=1.3384         
C3-O2=1.3384         C3-O4=1.2164         C3-C5=1.4794         O4-C3=1.2164         C5-C3=1.4794         C5-N6=1.3559         
C5-C24=1.4315        N6-C5=1.3559         N6-C7=1.2916         C7-N6=1.2916         C7-C8=1.5155         C7-N20=1.3741        
C8-C7=1.5155         C8-C9=1.5352         C8-C10=1.5289        C8-N11=1.4762        C9-C8=1.5352         C9-H29=1.0890        
C9-H30=1.0879        C9-H31=1.0884        C10-C8=1.5289        C10-H32=1.0891       C10-H33=1.0877       C10-H34=1.0891       
N11-C8=1.4762        N11-C12=1.3426       N11-H35=1.0085       C12-N11=1.3426       C12-O13=1.2300       C12-C14=1.4787       
O13-C12=1.2300       C14-C12=1.4787       C14-N15=1.2974       C14-O19=1.3511       N15-C14=1.2974       N15-N16=1.3605       
N16-N15=1.3605       N16-C17=1.2977       C17-N16=1.2977       C17-C18=1.4785       C17-O19=1.3429       C18-C17=1.4785       
C18-H36=1.0874       C18-H37=1.0900       C18-H38=1.0899       O19-C14=1.3511       O19-C17=1.3429       N20-C7=1.3741        
N20-C21=1.3226       N20-H39=1.0249       C21-N20=1.3226       C21-O22=1.3179       C21-C24=1.4787       O22-C21=1.3179       
O22-C23=1.4283       C23-O22=1.4283       C23-H40=1.0923       C23-H41=1.0925       C23-H42=1.0888       C24-C5=1.4315        
C24-C21=1.4787       C24-O25=1.2355       O25-C24=1.2355       H26-C1=1.0932        H27-C1=1.0933        H28-C1=1.0887        
H29-C9=1.0890        H30-C9=1.0879        H31-C9=1.0884        H32-C10=1.0891       H33-C10=1.0877       H34-C10=1.0891       
H35-N11=1.0085       H36-C18=1.0874       H37-C18=1.0900       H38-C18=1.0899       H39-N20=1.0249       H40-C23=1.0923       
H41-C23=1.0925       H42-C23=1.0888       
 C  H  Rav=1.0898 sigma=0.0019  Rmin=1.0874  Rmax=1.0933    15
 C  C  Rav=1.4908 sigma=0.0319  Rmin=1.4315  Rmax=1.5352     8
 N  H  Rav=1.0167 sigma=0.0082  Rmin=1.0085  Rmax=1.0249     2
 N  C  Rav=1.3447 sigma=0.0570  Rmin=1.2916  Rmax=1.4762     8
 N  N  Rav=1.3605 sigma=0.0000  Rmin=1.3605  Rmax=1.3605     1
 O  C  Rav=1.3208 sigma=0.0752  Rmin=1.2164  Rmax=1.4283     9
 
 selected bond angles (degree)
 --------------------
H26-C1-O2=110.31               H27-C1-O2=110.28               H27-C1-H26=109.06              H28-C1-O2=106.84               
H28-C1-H26=110.16              H28-C1-H27=110.16              C3-O2-C1=116.18                O4-C3-O2=122.22                
C5-C3-O2=114.19                C5-C3-O4=123.58                N6-C5-C3=112.95                C24-C5-C3=123.92               
C24-C5-N6=123.14               C7-N6-C5=121.45                C8-C7-N6=121.50                N20-C7-N6=120.32               
N20-C7-C8=118.12               C9-C8-C7=110.31                C10-C8-C7=109.03               C10-C8-C9=110.42               
N11-C8-C7=110.52               N11-C8-C9=109.61               N11-C8-C10=106.90              H29-C9-C8=109.32               
H30-C9-C8=111.07               H30-C9-H29=108.86              H31-C9-C8=109.53               H31-C9-H29=109.12              
H31-C9-H30=108.91              H32-C10-C8=110.22              H33-C10-C8=110.02              H33-C10-H32=109.35             
H34-C10-C8=109.53              H34-C10-H32=108.61             H34-C10-H33=109.09             
 
 selected dihedral angles (degree)
 ---------------------------------
C3-O2-C1-H26= 60.57           C3-O2-C1-H27=300.03           C3-O2-C1-H28=180.31           O4-C3-O2-C1=359.85            
C5-C3-O2-C1=179.75            N6-C5-C3-O2=180.76            N6-C5-C3-O4=  0.66            C24-C5-C3-O2=  0.57           
C24-C5-C3-O4=180.48           C7-N6-C5-C3=179.64            C7-N6-C5-C24=359.83           C8-C7-N6-C5=177.66            
N20-C7-N6-C5=  0.40           C9-C8-C7-N6=244.48            C9-C8-C7-N20= 61.80           C10-C8-C7-N6=  5.89           
C10-C8-C7-N20=183.21          N11-C8-C7-N6=123.11           N11-C8-C7-N20=300.42          H29-C9-C8-C7= 61.69           
H29-C9-C8-C10=301.11          H29-C9-C8-N11=183.61          H30-C9-C8-C7=301.55           H30-C9-C8-C10=180.97          
H30-C9-C8-N11= 63.47          H31-C9-C8-C7=181.21           H31-C9-C8-C10= 60.63          H31-C9-C8-N11=303.13          
H32-C10-C8-C7= 59.13          H32-C10-C8-C9=180.48          H32-C10-C8-N11=299.64         H33-C10-C8-C7=179.79          
H33-C10-C8-C9=301.14          H33-C10-C8-N11= 60.30         H34-C10-C8-C7=299.69          H34-C10-C8-C9= 61.04          
H34-C10-C8-N11=180.20         
           -------------------------------------------------
          |                Final Singlepoint                |
           -------------------------------------------------

          ...................................................
          :                      SETUP                      :
          :.................................................:
          :  # basis functions                 134          :
          :  # atomic orbitals                 134          :
          :  # shells                           84          :
          :  # electrons                       134          :
          :  # halogen bonds                     0          :
          :  max. iterations                   250          :
          :  Hamiltonian                  GFN1-xTB          :
          :  restarted?                      false          :
          :  GBSA solvation                   true          :
          :  PC potential                    false          :
          :  electronic temp.          300.0000000     K    :
          :  accuracy                    1.0000000          :
          :  -> integral cutoff          0.2500000E+02      :
          :  -> integral neglect         0.1000000E-07      :
          :  -> SCF convergence          0.1000000E-05 Eh   :
          :  -> wf. convergence          0.2000000E-04 e    :
          :  Broyden damping             0.4000000          :
          ...................................................

 iter      E             dE          RMSdq      gap      omega  full diag
   1    -83.7786501 -0.837787E+02  0.144E-05    2.32       0.0  T
   2    -83.7786501 -0.515854E-11  0.845E-06    2.32    1825.5  T
   3    -83.7786501 -0.287059E-11  0.355E-06    2.32    4345.1  T

   *** convergence criteria satisfied after 3 iterations ***

         #    Occupation            Energy/Eh            Energy/eV
      -------------------------------------------------------------
         1        2.0000           -0.8697287             -23.6665
       ...           ...                  ...                  ...
        61        2.0000           -0.4710745             -12.8186
        62        2.0000           -0.4668324             -12.7032
        63        2.0000           -0.4632411             -12.6054
        64        2.0000           -0.4568729             -12.4321
        65        2.0000           -0.4534198             -12.3382
        66        2.0000           -0.4205300             -11.4432
        67        2.0000           -0.4096205             -11.1463 (HOMO)
        68                         -0.3245433              -8.8313 (LUMO)
        69                         -0.3195705              -8.6960
        70                         -0.2783542              -7.5744
        71                         -0.2602325              -7.0813
        72                         -0.2372600              -6.4562
       ...                                ...                  ...
       134                          0.7076752              19.2568
      -------------------------------------------------------------
                  HL-Gap            0.0850772 Eh            2.3151 eV
             Fermi-level           -0.3670819 Eh           -9.9888 eV

 SCC (total)                   0 d,  0 h,  0 min,  0.109 sec
 SCC setup                      ...        0 min,  0.002 sec (  1.680%)
 Dispersion                     ...        0 min,  0.000 sec (  0.260%)
 classical contributions        ...        0 min,  0.000 sec (  0.087%)
 integral evaluation            ...        0 min,  0.027 sec ( 24.526%)
 iterations                     ...        0 min,  0.019 sec ( 17.093%)
 molecular gradient             ...        0 min,  0.060 sec ( 54.959%)
 printout                       ...        0 min,  0.001 sec (  1.318%)

         :::::::::::::::::::::::::::::::::::::::::::::::::::::
         ::                     SUMMARY                     ::
         :::::::::::::::::::::::::::::::::::::::::::::::::::::
         :: total energy             -83.003424469542 Eh    ::
         :: total w/o Gsasa/hb       -82.982260096687 Eh    ::
         :: gradient norm              0.000295062805 Eh/a0 ::
         :: HOMO-LUMO gap              2.315069112514 eV    ::
         ::.................................................::
         :: SCC energy               -83.778650114993 Eh    ::
         :: -> electrostatic           0.366048779143 Eh    ::
         :: -> Gsolv                  -0.065430090206 Eh    ::
         ::    -> Gelec               -0.044265717352 Eh    ::
         ::    -> Gsasa               -0.025449939845 Eh    ::
         ::    -> Ghb                 -0.003338712014 Eh    ::
         ::    -> Gshift               0.007624279005 Eh    ::
         :: repulsion energy           0.800863778921 Eh    ::
         :: dispersion energy         -0.025638133470 Eh    ::
         :: halogen bond corr.         0.000000000000 Eh    ::
         :: add. restraining           0.000000000000 Eh    ::
         :: total charge               0.000000000000 e     ::
         :::::::::::::::::::::::::::::::::::::::::::::::::::::

           -------------------------------------------------
          |                Property Printout                |
           -------------------------------------------------

    * Orbital Energies and Occupations

         #    Occupation            Energy/Eh            Energy/eV
      -------------------------------------------------------------
         1        2.0000           -0.8697287             -23.6665
       ...           ...                  ...                  ...
        55        2.0000           -0.5061538             -13.7731
        56        2.0000           -0.5042846             -13.7223
        57        2.0000           -0.4898254             -13.3288
        58        2.0000           -0.4858045             -13.2194
        59        2.0000           -0.4843547             -13.1800
        60        2.0000           -0.4748980             -12.9226
        61        2.0000           -0.4710745             -12.8186
        62        2.0000           -0.4668324             -12.7032
        63        2.0000           -0.4632411             -12.6054
        64        2.0000           -0.4568729             -12.4321
        65        2.0000           -0.4534198             -12.3382
        66        2.0000           -0.4205300             -11.4432
        67        2.0000           -0.4096205             -11.1463 (HOMO)
        68                         -0.3245433              -8.8313 (LUMO)
        69                         -0.3195705              -8.6960
        70                         -0.2783542              -7.5744
        71                         -0.2602325              -7.0813
        72                         -0.2372600              -6.4562
        73                         -0.2073561              -5.6424
        74                         -0.1495403              -4.0692
        75                         -0.1461863              -3.9779
        76                         -0.1431636              -3.8957
        77                         -0.1320358              -3.5929
        78                         -0.1298548              -3.5335
       ...                                ...                  ...
       134                          0.7076752              19.2568
      -------------------------------------------------------------
                  HL-Gap            0.0850772 Eh            2.3151 eV
             Fermi-level           -0.3670819 Eh           -9.9888 eV

  Mulliken/CM5 charges         n(s)   n(p)   n(d)
     1C     0.16652  0.04632   0.977  2.857  0.000
     2O    -0.41316 -0.49667   1.685  4.729  0.000
     3C     0.56629  0.63297   0.970  2.464  0.000
     4O    -0.58595 -0.62977   1.729  4.857  0.000
     5C     0.03093  0.11141   1.052  2.917  0.000
     6N    -0.33600 -0.52314   1.526  3.810  0.000
     7C     0.23944  0.38925   1.006  2.755  0.000
     8C     0.14864  0.18663   1.067  2.785  0.000
     9C    -0.11202 -0.25192   1.022  3.090  0.000
    10C    -0.10439 -0.24375   1.020  3.085  0.000
    11N    -0.33797 -0.69103   1.437  3.901  0.000
    12C     0.46773  0.57633   0.978  2.555  0.000
    13O    -0.58669 -0.65265   1.724  4.862  0.000
    14C     0.33311  0.45875   1.003  2.664  0.000
    15N    -0.21332 -0.31721   1.565  3.648  0.000
    16N    -0.26329 -0.37079   1.563  3.700  0.000
    17C     0.39401  0.50244   1.009  2.597  0.000
    18C    -0.11214 -0.24950   1.013  3.100  0.000
    19O    -0.35655 -0.41401   1.696  4.660  0.000
    20N    -0.25117 -0.60540   1.442  3.809  0.000
    21C     0.37777  0.48205   1.003  2.619  0.000
    22O    -0.37687 -0.46130   1.667  4.710  0.000
    23C     0.15174  0.03081   0.987  2.861  0.000
    24C     0.31373  0.36020   1.011  2.675  0.000
    25O    -0.60707 -0.64587   1.734  4.874  0.000
    26H     0.04552  0.10725   0.954  0.000  0.000
    27H     0.04545  0.10723   0.955  0.000  0.000
    28H     0.04758  0.10786   0.952  0.000  0.000
    29H     0.05198  0.10658   0.948  0.000  0.000
    30H     0.05810  0.12083   0.942  0.000  0.000
    31H     0.05823  0.11431   0.942  0.000  0.000
    32H     0.05416  0.11291   0.946  0.000  0.000
    33H     0.05390  0.10976   0.946  0.000  0.000
    34H     0.05560  0.11299   0.944  0.000  0.000
    35H     0.27285  0.47860   0.727  0.000  0.000
    36H     0.07162  0.12738   0.928  0.000  0.000
    37H     0.08247  0.13694   0.918  0.000  0.000
    38H     0.08136  0.13593   0.919  0.000  0.000
    39H     0.29955  0.52209   0.700  0.000  0.000
    40H     0.05913  0.12136   0.941  0.000  0.000
    41H     0.05959  0.12369   0.940  0.000  0.000
    42H     0.06959  0.13015   0.930  0.000  0.000

Wiberg/Mayer (AO) data.
largest (>0.10) Wiberg bond orders for each atom

 ---------------------------------------------------------------------------
     #   Z sym  total        # sym  WBO       # sym  WBO       # sym  WBO
 ---------------------------------------------------------------------------
     1   6 C    3.882 --    28 H    0.986    27 H    0.980    26 H    0.980
                             2 O    0.907
     2   8 O    2.194 --     3 C    1.096     1 C    0.907     4 O    0.126
     3   6 C    3.852 --     4 O    1.624     2 O    1.096     5 C    1.040
     4   8 O    1.893 --     3 C    1.624     2 O    0.126
     5   6 C    3.944 --     6 N    1.270    24 C    1.217     3 C    1.040
                            25 O    0.130
     6   7 N    3.045 --     7 C    1.555     5 C    1.270
     7   6 C    3.917 --     6 N    1.555    20 N    1.118     8 C    0.976
     8   6 C    3.931 --    10 C    1.002     9 C    0.982     7 C    0.976
                            11 N    0.910
     9   6 C    3.986 --    29 H    0.984    31 H    0.983     8 C    0.982
                            30 H    0.980
    10   6 C    3.990 --     8 C    1.002    33 H    0.985    32 H    0.983
                            34 H    0.982
    11   7 N    3.363 --    12 C    1.291     8 C    0.910    35 H    0.889
                            13 O    0.172
    12   6 C    3.914 --    13 O    1.527    11 N    1.291    14 C    1.005
    13   8 O    1.920 --    12 C    1.527    11 N    0.172
    14   6 C    3.875 --    15 N    1.616    19 O    1.046    12 C    1.005
    15   7 N    3.003 --    14 C    1.616    16 N    1.205
    16   7 N    2.982 --    17 C    1.604    15 N    1.205
    17   6 C    3.866 --    16 N    1.604    19 O    1.073    18 C    1.033
    18   6 C    3.985 --    17 C    1.033    36 H    0.982    38 H    0.963
                            37 H    0.961
    19   8 O    2.318 --    17 C    1.073    14 C    1.046
    20   7 N    3.524 --    21 C    1.350     7 C    1.118    39 H    0.817
    21   6 C    3.861 --    20 N    1.350    22 O    1.148    24 C    1.044
    22   8 O    2.233 --    21 C    1.148    23 C    0.890
    23   6 C    3.864 --    42 H    0.981    40 H    0.977    41 H    0.975
                            22 O    0.890
    24   6 C    3.949 --    25 O    1.533     5 C    1.217    21 C    1.044
    25   8 O    1.848 --    24 C    1.533     5 C    0.130
    26   1 H    1.009 --     1 C    0.980
    27   1 H    1.009 --     1 C    0.980
    28   1 H    1.012 --     1 C    0.986
    29   1 H    1.000 --     9 C    0.984
    30   1 H    1.006 --     9 C    0.980
    31   1 H    0.999 --     9 C    0.983
    32   1 H    1.003 --    10 C    0.983
    33   1 H    0.998 --    10 C    0.985
    34   1 H    1.007 --    10 C    0.982
    35   1 H    0.934 --    11 N    0.889
    36   1 H    0.998 --    18 C    0.982
    37   1 H    0.996 --    18 C    0.961
    38   1 H    0.996 --    18 C    0.963
    39   1 H    0.924 --    20 N    0.817
    40   1 H    1.000 --    23 C    0.977
    41   1 H    1.006 --    23 C    0.975
    42   1 H    1.008 --    23 C    0.981
 ---------------------------------------------------------------------------

Topologies differ in total number of bonds
Writing topology from bond orders to xtbtopo.mol

 dipole moment from electron density (au)
     X       Y       Z   
   4.7788  -0.6449  -1.9274  total (Debye):   13.199

           -------------------------------------------------
          |                Geometry Summary                 |
           -------------------------------------------------

      molecular mass/u    :      351.3152409
   center of mass at/Å    :       -0.1478116      -0.0854792       0.2442036
  moments of inertia/u·Å² :        0.1308600E+04   0.4564442E+04   0.5097892E+04
rotational constants/cm⁻¹ :        0.1288219E-01   0.3693251E-02   0.3306785E-02

 * 38 selected distances

     #   Z          #   Z                                           value/Å
     1   6 C        2   8 O                                       1.4267470
     2   8 O        3   6 C                                       1.3383784
     3   6 C        4   8 O                                       1.2163695
     5   6 C        6   7 N                                       1.3558971
     6   7 N        7   6 C                                       1.2915539
     8   6 C        9   6 C                                       1.5351528 (max)
     8   6 C       10   6 C                                       1.5289232
     8   6 C       11   7 N                                       1.4761574
    11   7 N       12   6 C                                       1.3425738
    12   6 C       13   8 O                                       1.2299676
    14   6 C       15   7 N                                       1.2973619
    16   7 N       17   6 C                                       1.2977424
    17   6 C       18   6 C                                       1.4785396
    14   6 C       19   8 O                                       1.3510601
    17   6 C       19   8 O                                       1.3429397
     7   6 C       20   7 N                                       1.3741196
    20   7 N       21   6 C                                       1.3225685
    21   6 C       22   8 O                                       1.3178664
    22   8 O       23   6 C                                       1.4282859
     5   6 C       24   6 C                                       1.4314804
    24   6 C       25   8 O                                       1.2354771
     1   6 C       26   1 H                                       1.0932206
     1   6 C       27   1 H                                       1.0932744
     1   6 C       28   1 H                                       1.0887460
     9   6 C       29   1 H                                       1.0889608
     9   6 C       30   1 H                                       1.0879288
     9   6 C       31   1 H                                       1.0883634
    10   6 C       32   1 H                                       1.0890694
    10   6 C       33   1 H                                       1.0877148
    10   6 C       34   1 H                                       1.0891437
    11   7 N       35   1 H                                       1.0085020 (min)
    18   6 C       36   1 H                                       1.0874222
    18   6 C       37   1 H                                       1.0900085
    18   6 C       38   1 H                                       1.0898936
    20   7 N       39   1 H                                       1.0249457
    23   6 C       40   1 H                                       1.0922534
    23   6 C       41   1 H                                       1.0924708
    23   6 C       42   1 H                                       1.0888190

 * 5 distinct bonds (by element types)

   Z      Z             #   av. dist./Å        max./Å        min./Å
   1 H    6 C          15     1.0898193     1.0932744     1.0874222
   6 C    6 C           4     1.4935240     1.5351528     1.4314804
   1 H    7 N           2     1.0167238     1.0249457     1.0085020
   6 C    7 N           8     1.3447468     1.4761574     1.2915539
   6 C    8 O           9     1.3207880     1.4282859     1.2163695


optimized geometry written to: xtbopt.xyz


           -------------------------------------------------
          | TOTAL ENERGY              -83.003424469542 Eh   |
          | GRADIENT NORM               0.000295062805 Eh/α |
          | HOMO-LUMO GAP               2.315069112514 eV   |
           -------------------------------------------------

------------------------------------------------------------------------
 * finished run on 2023/06/21 at 17:40:04.264     
------------------------------------------------------------------------
 total:
 * wall-time:     0 d,  0 h,  0 min,  5.131 sec
 *  cpu-time:     0 d,  0 h,  0 min,  5.042 sec
 * ratio c/w:     0.983 speedup
 SCF:
 * wall-time:     0 d,  0 h,  0 min,  0.161 sec
 *  cpu-time:     0 d,  0 h,  0 min,  0.158 sec
 * ratio c/w:     0.987 speedup
 ANC optimizer:
 * wall-time:     0 d,  0 h,  0 min,  4.892 sec
 *  cpu-time:     0 d,  0 h,  0 min,  4.839 sec
 * ratio c/w:     0.989 speedup

