47
 energy: -79.533769576232 gnorm: 0.000803253737 xtb: 6.5.1 (579679a)
C            0.86161874680051       -0.96473004034748        2.47210805356318
O            1.65128064438911       -0.20692417310375        1.54617613513398
C            1.18020857467483        0.70338807465617        0.73856631931992
N            2.07132495061124        1.42244612542400        0.10407707090208
C            3.51931040223262        1.24982246589261        0.24096034535157
C            4.05950515984074        0.42393820506096       -0.90702015083992
C            3.62703389023856       -0.88890057118578       -1.08653869972868
C            4.11894115810758       -1.65382405055949       -2.13335325763465
C            5.04812491384002       -1.08202580518946       -2.98522212428421
F            5.52920997241103       -1.81605222718595       -3.99595201907908
C            5.49756553094380        0.21738838803580       -2.83398790533987
C            4.99141137153913        0.97180783102890       -1.78430340233097
C           -0.24287583974404        0.95199530609342        0.50529320008337
N           -1.11728898428379       -0.06525511463930        0.77454342756941
C           -2.39339800290870        0.05950250552607        0.55354505870335
C           -3.23893543547360       -1.18479154316834        0.78769316512234
C           -3.44801313527196       -1.88033868532915       -0.56769558530425
C           -2.50615556941080       -2.14841985344870        1.73418247412071
N           -4.52824084699757       -0.82824272860284        1.36461561982069
N           -2.93660678822439        1.21888496516120        0.06300615917013
C           -4.37312058480994        1.40526443864555       -0.18015154388293
C           -2.14941334791051        2.31971196570075       -0.20864721994102
O           -2.58905799953582        3.38482928545530       -0.62082932206485
C           -0.72131373392805        2.13388092450644        0.00547282453757
O            0.04856355115746        3.18436618559334       -0.29438088696040
H            1.56154203257296       -1.33141555578472        3.22318323997156
H            0.39380781951799       -1.80073984808268        1.95261620361439
H            0.09799366361552       -0.33807465412027        2.93194634367265
H            1.76059658665553        2.12153363429332       -0.55729486992999
H            3.71637961354085        0.76505818286130        1.19929009952126
H            3.96216271008014        2.24779185347309        0.24291232712782
H            2.90169315361981       -1.31617885312726       -0.40608794041499
H            3.78921303552818       -2.67313093783274       -2.28605192793068
H            6.22316050865527        0.63064540484520       -3.52257855670229
H            5.32792960124262        1.99235506909763       -1.64757922728799
H           -2.48195235488021       -2.11424561494352       -1.01304265021701
H           -4.00079366325542       -2.80619679857154       -0.41598590612737
H           -4.00719855921051       -1.24883634503565       -1.25544308049051
H           -2.25773098903021       -1.64478963358274        2.66663411342880
H           -3.15434338522262       -2.99527337219152        1.95356443140120
H           -1.59149194668242       -2.51636595086522        1.27271062621738
H           -4.39256140823800       -0.54488985075888        2.32610593456753
H           -5.12283141498595       -1.64647546014497        1.36763951044547
H           -4.88038176379766        1.57296252908046        0.76755158931858
H           -4.78785062441748        0.52608944413476       -0.66048994513918
H           -4.49543874139574        2.27412035974242       -0.82610241032386
H           -0.52158147220024        3.91833552349748       -0.60565464072479
