46
 energy: -86.308134478730 gnorm: 0.000519623030 xtb: 6.5.1 (579679a)
C           -1.48762127428806       -4.38224866525345       -0.79940726352934
O           -1.41871154237539       -2.94406849009040       -0.74747591294497
C           -2.37746839690900       -2.31582591644534       -0.12773262915916
O           -3.33301294454818       -2.84464309016181        0.40820257952713
C           -2.24158849563554       -0.81724585332798       -0.13979964486054
C           -3.31328168017239       -0.04267176021074        0.38095064116530
O           -4.35542144661927       -0.56242121730148        0.91662015202128
C           -3.27550299227628        1.43310901175199        0.23403643325389
O           -4.20122687489862        2.16198264513691        0.52124284711930
N           -2.12397174946965        1.90132633233227       -0.34707941682589
C           -2.20757544782517        3.32214040004453       -0.69860125135683
C           -0.96652994532119        1.10890521252389       -0.63113117330256
C           -0.30413545715546        1.48121822340228       -1.96251648868631
C            0.15057498978208        1.29684208229275        0.61938525224286
C           -0.41222601014524        0.63694004782735        1.87231680991014
C            0.38774606655249        2.77722231437764        0.87747141879134
N            1.32650292130055        0.60039797613207        0.22680480976460
C            2.41671078175778        1.12666205758996       -0.41951484842825
O            2.49814942459682        2.26274133160680       -0.83718861587257
C            3.51430686919096        0.15191010831076       -0.54506198395108
N            4.68117888946039        0.34739203313024       -1.07972127921131
N            5.37179938818747       -0.81156278902709       -0.94996905884053
C            4.58907582880921       -1.65224958363205       -0.34237220795019
C            4.88436072806439       -3.04997499046351        0.03392326905591
O            3.39651616605584       -1.10342517753259       -0.05994673305330
N           -1.16421430311480       -0.26435946632993       -0.61819139590406
H           -0.78548570235733       -4.69290843398884       -1.56923288580450
H           -1.20011933197220       -4.78797879159007        0.17127550526751
H           -2.50328338063207       -4.69446693047977       -1.04701454120153
H           -4.29913753832953       -1.57054269235762        0.91347491533121
H           -3.04118579950782        3.44469721646478       -1.39204503206664
H           -2.42106516217546        3.89219134342053        0.20561548124129
H           -1.28938678010806        3.66368977180101       -1.15757107815661
H            0.39110894132725        0.68771721463921       -2.22664714818936
H           -1.07853256443531        1.54194449937296       -2.72501321912689
H            0.23375909839353        2.42340680245806       -1.91164999004211
H            0.22317009840741        0.90761005890175        2.71519943371538
H           -0.42204599245235       -0.44657728410366        1.77985998392532
H           -1.42191195693643        0.98863461575596        2.07842931477516
H           -0.47005425025917        3.19750325472702        1.39771563450612
H            1.26302933362015        2.86603672844189        1.52122828515380
H            0.57748376054940        3.34836378653393       -0.02639374356710
H            1.35691636842228       -0.38375216232955        0.45014264298323
H            4.66038263461520       -3.20509451297092        1.08863533740577
H            4.25972108753910       -3.72961998123965       -0.54541327760295
H            5.93220064328313       -3.26894528014111       -0.15953492752358
