      -----------------------------------------------------------      
     |                   =====================                   |     
     |                           x T B                           |     
     |                   =====================                   |     
     |                         S. Grimme                         |     
     |          Mulliken Center for Theoretical Chemistry        |     
     |                    University of Bonn                     |     
      -----------------------------------------------------------      

   * xtb version 6.5.1 (579679a) compiled by 'ehlert@majestix' on 2022-07-11

   xtb is free software: you can redistribute it and/or modify it under
   the terms of the GNU Lesser General Public License as published by
   the Free Software Foundation, either version 3 of the License, or
   (at your option) any later version.
   
   xtb is distributed in the hope that it will be useful,
   but WITHOUT ANY WARRANTY; without even the implied warranty of
   MERCHANTABILITY or FITNESS FOR A PARTICULAR PURPOSE.  See the
   GNU Lesser General Public License for more details.
   
   Cite this work as:
   * C. Bannwarth, E. Caldeweyher, S. Ehlert, A. Hansen, P. Pracht,
     J. Seibert, S. Spicher, S. Grimme, WIREs Comput. Mol. Sci., 2020, 11,
     e01493. DOI: 10.1002/wcms.1493
   
   for GFN2-xTB:
   * C. Bannwarth, S. Ehlert and S. Grimme., J. Chem. Theory Comput., 2019,
     15, 1652-1671. DOI: 10.1021/acs.jctc.8b01176
   for GFN1-xTB:
   * S. Grimme, C. Bannwarth, P. Shushkov, J. Chem. Theory Comput., 2017,
     13, 1989-2009. DOI: 10.1021/acs.jctc.7b00118
   for GFN0-xTB:
   * P. Pracht, E. Caldeweyher, S. Ehlert, S. Grimme, ChemRxiv, 2019, preprint.
     DOI: 10.26434/chemrxiv.8326202.v1
   for GFN-FF:
   * S. Spicher and S. Grimme, Angew. Chem. Int. Ed., 2020, 59, 15665-15673.
     DOI: 10.1002/anie.202004239
   
   for ALPB and GBSA implicit solvation:
   * S. Ehlert, M. Stahn, S. Spicher, S. Grimme, J. Chem. Theory Comput.,
     2021, 17, 4250-4261. DOI: 10.1021/acs.jctc.1c00471
   
   for DFT-D4:
   * E. Caldeweyher, C. Bannwarth and S. Grimme, J. Chem. Phys., 2017,
     147, 034112. DOI: 10.1063/1.4993215
   * E. Caldeweyher, S. Ehlert, A. Hansen, H. Neugebauer, S. Spicher,
     C. Bannwarth and S. Grimme, J. Chem. Phys., 2019, 150, 154122.
     DOI: 10.1063/1.5090222
   * E. Caldeweyher, J.-M. Mewes, S. Ehlert and S. Grimme, Phys. Chem. Chem. Phys.
     2020, 22, 8499-8512. DOI: 10.1039/D0CP00502A
   
   for sTDA-xTB:
   * S. Grimme and C. Bannwarth, J. Chem. Phys., 2016, 145, 054103.
     DOI: 10.1063/1.4959605
   
   in the mass-spec context:
   * V. Asgeirsson, C. Bauer and S. Grimme, Chem. Sci., 2017, 8, 4879.
     DOI: 10.1039/c7sc00601b
   * J. Koopman and S. Grimme, ACS Omega 2019, 4, 12, 15120-15133.
     DOI: 10.1021/acsomega.9b02011
   
   for metadynamics refer to:
   * S. Grimme, J. Chem. Theory Comput., 2019, 155, 2847-2862
     DOI: 10.1021/acs.jctc.9b00143
   
   for SPH calculations refer to:
   * S. Spicher and S. Grimme, J. Chem. Theory Comput., 2021, 17, 1701-1714
     DOI: 10.1021/acs.jctc.0c01306
   
   with help from (in alphabetical order)
   P. Atkinson, C. Bannwarth, F. Bohle, G. Brandenburg, E. Caldeweyher
   M. Checinski, S. Dohm, S. Ehlert, S. Ehrlich, I. Gerasimov, C. Hölzer
   A. Katbashev, J. Koopman, C. Lavigne, S. Lehtola, F. März, M. Müller,
   F. Musil, H. Neugebauer, J. Pisarek, C. Plett, P. Pracht, F. Pultar,
   J. Seibert, P. Shushkov, S. Spicher, M. Stahn, M. Steiner, T. Strunk,
   J. Stückrath, T. Rose, and J. Unsleber
   
 * started run on 2023/06/21 at 17:07:54.414     

           -------------------------------------------------
          |                Calculation Setup                |
           -------------------------------------------------

          program call               : /lustre/hpc/kemi/ree/PhD/git/ReactivityQM/dep/xtb-6.5.1/bin/xtb --gfn 1 /lustre/hpc/kemi/ree/PhD/git/ReactivityQM/calculations/R02oxygendeprot/reac01prodE06/conf02/R02oxygendeprot_reac01prodE06_conf02_gfn1.xyz --opt --vfukui --chrg -2 --uhf 0 --alpb DMSO
          hostname                   : node070
          coordinate file            : /lustre/hpc/kemi/ree/PhD/git/ReactivityQM/calculations/R02oxygendeprot/reac01prodE06/conf02/R02oxygendeprot_reac01prodE06_conf02_gfn1.xyz
          omp threads                :                     1

   ID    Z sym.   atoms
    1    6 C      1, 3, 5, 6, 8, 11-15, 17, 19, 22, 23
    2    8 O      2, 4, 7, 9, 18, 24
    3    7 N      10, 16, 20, 21, 25
    4    1 H      26-42

           -------------------------------------------------
          |                 G F N 1 - x T B                 |
           -------------------------------------------------

        Reference                      10.1021/acs.jctc.7b00118
      * Hamiltonian:
        H0-scaling (s, p, d)           1.850000    2.250000    2.000000
        zeta-weighting                 0.000000
      * Dispersion:
        s8                             2.400000
        a1                             0.630000
        a2                             5.000000
        s9                             0.000000
      * Repulsion:
        kExp                           1.500000
        rExp                           1.000000
      * Coulomb:
        alpha                          2.000000
        third order                    atomic
        anisotropic                    false
      * Halogen bond correction:
        rad-scale                      1.300000
        damping                        0.440000

      * Solvation model:               ALPB
        Solvent                        DMSO
        Parameter file                 internal GFN1-xTB/ALPB
        Dielectric constant                4.6680E+01
        Reference state                gsolv [1 M gas/solution]
        Free energy shift                  7.6243E-03 Eh       4.7843E+00 kcal/mol
        Temperature                        2.9815E+02 K
        Density                            1.1000E+00 kg/L
        Solvent mass                       7.8130E+01 g/mol
        Interaction kernel             P16
        Born radius scaling (c1)           1.7672E+00
        Born radii integrator          GBOBC
        Born offset                        0.0000E+00 a0       0.0000E+00 AA
        H-bond correction              true
        Ion screening                  false
        Surface tension                    1.0000E-05 Eh       1.5569E+01 dyn/cm
        Grid points                               230 per atom

          ...................................................
          :                      SETUP                      :
          :.................................................:
          :  # basis functions                 134          :
          :  # atomic orbitals                 134          :
          :  # shells                           84          :
          :  # electrons                       136          :
          :  # halogen bonds                     0          :
          :  max. iterations                   250          :
          :  Hamiltonian                  GFN1-xTB          :
          :  restarted?                      false          :
          :  GBSA solvation                   true          :
          :  PC potential                    false          :
          :  electronic temp.          300.0000000     K    :
          :  accuracy                    1.0000000          :
          :  -> integral cutoff          0.2500000E+02      :
          :  -> integral neglect         0.1000000E-07      :
          :  -> SCF convergence          0.1000000E-05 Eh   :
          :  -> wf. convergence          0.2000000E-04 e    :
          :  Broyden damping             0.4000000          :
          ...................................................

 iter      E             dE          RMSdq      gap      omega  full diag
   1    -83.9876482 -0.839876E+02  0.867E+00    1.46       0.0  T
   2    -84.0228106 -0.351624E-01  0.544E+00    0.44       1.0  T
   3    -84.0429482 -0.201376E-01  0.306E+00    0.18       1.0  T
   4    -84.2606255 -0.217677E+00  0.116E+00    1.07       1.0  T
   5    -84.2746273 -0.140018E-01  0.847E-01    1.02       1.0  T
   6    -84.3041511 -0.295238E-01  0.456E-01    0.20       1.0  T
   7    -84.0487307  0.255420E+00  0.156E+00    0.81       1.0  T
   8    -84.3024998 -0.253769E+00  0.494E-01    0.29       1.0  T
   9    -84.3227147 -0.202149E-01  0.216E-01    0.04       1.0  T
  10    -84.3083252  0.143895E-01  0.413E-01    0.19       1.0  T
  11    -84.3264002 -0.180750E-01  0.143E-01    0.05       1.0  T
  12    -84.3256581  0.742105E-03  0.164E-01    0.09       1.0  T
  13    -84.3273409 -0.168284E-02  0.116E-01    0.05       1.0  T
  14    -84.3288560 -0.151507E-02  0.428E-02    0.07       1.0  T
  15    -84.3290182 -0.162164E-03  0.236E-02    0.06       1.0  T
  16    -84.3290898 -0.716700E-04  0.260E-03    0.07       5.9  T
  17    -84.3290878  0.205971E-05  0.473E-03    0.07       3.3  T
  18    -84.3290907 -0.290213E-05  0.205E-04    0.07      75.3  T
  19    -84.3290907 -0.395002E-08  0.103E-04    0.07     149.8  T
  20    -84.3290907  0.403446E-09  0.118E-04    0.07     130.6  T

   *** convergence criteria satisfied after 20 iterations ***

         #    Occupation            Energy/Eh            Energy/eV
      -------------------------------------------------------------
         1        2.0000           -0.8125694             -22.1111
       ...           ...                  ...                  ...
        62        2.0000           -0.3993685             -10.8674
        63        2.0000           -0.3931568             -10.6983
        64        2.0000           -0.3925034             -10.6806
        65        2.0000           -0.3822149             -10.4006
        66        2.0000           -0.3669861              -9.9862
        67        2.0000           -0.3307299              -8.9996
        68        1.5688           -0.2698936              -7.3442 (HOMO)
        69        0.4312           -0.2674396              -7.2774 (LUMO)
        70                         -0.2363890              -6.4325
        71                         -0.2189542              -5.9580
        72                         -0.1626620              -4.4263
        73                         -0.1517725              -4.1299
       ...                                ...                  ...
       134                          0.7957306              21.6529
      -------------------------------------------------------------
                  HL-Gap            0.0024540 Eh            0.0668 eV
             Fermi-level           -0.2686666 Eh           -7.3108 eV

 SCC (total)                   0 d,  0 h,  0 min,  0.189 sec
 SCC setup                      ...        0 min,  0.002 sec (  1.004%)
 Dispersion                     ...        0 min,  0.000 sec (  0.149%)
 classical contributions        ...        0 min,  0.000 sec (  0.050%)
 integral evaluation            ...        0 min,  0.025 sec ( 13.362%)
 iterations                     ...        0 min,  0.103 sec ( 54.397%)
 molecular gradient             ...        0 min,  0.057 sec ( 30.364%)
 printout                       ...        0 min,  0.001 sec (  0.663%)

         :::::::::::::::::::::::::::::::::::::::::::::::::::::
         ::                     SUMMARY                     ::
         :::::::::::::::::::::::::::::::::::::::::::::::::::::
         :: total energy             -83.605741969297 Eh    ::
         :: total w/o Gsasa/hb       -83.587165365724 Eh    ::
         :: gradient norm              0.124295507972 Eh/a0 ::
         :: HOMO-LUMO gap              0.066777294715 eV    ::
         ::.................................................::
         :: SCC energy               -84.329090679318 Eh    ::
         :: -> electrostatic           0.682710509087 Eh    ::
         :: -> Gsolv                  -0.265945794863 Eh    ::
         ::    -> Gelec               -0.247369191290 Eh    ::
         ::    -> Gsasa               -0.023870325060 Eh    ::
         ::    -> Ghb                 -0.002330557518 Eh    ::
         ::    -> Gshift               0.007624279005 Eh    ::
         :: repulsion energy           0.750085708497 Eh    ::
         :: dispersion energy         -0.026736998476 Eh    ::
         :: halogen bond corr.         0.000000000000 Eh    ::
         :: add. restraining           0.000000000000 Eh    ::
         :: total charge              -2.000000000000 e     ::
         :::::::::::::::::::::::::::::::::::::::::::::::::::::

      ----------------------------------------------------------- 
     |                   =====================                   |
     |                        A N C O P T                        |
     |                   =====================                   |
     |               Approximate Normal Coordinate               |
     |                Rational Function Optimizer                |
      ----------------------------------------------------------- 

          ...................................................
          :                      SETUP                      :
          :.................................................:
          :   optimization level            normal          :
          :   max. optcycles                   200          :
          :   ANC micro-cycles                  20          :
          :   degrees of freedom               120          :
          :.................................................:
          :   RF solver                   davidson          :
          :   write xtbopt.log                true          :
          :   linear?                        false          :
          :   energy convergence         0.5000000E-05 Eh   :
          :   grad. convergence          0.1000000E-02 Eh/α :
          :   maximium RF displ.         1.0000000          :
          :   Hlow (freq-cutoff)         0.1000000E-01      :
          :   Hmax (freq-cutoff)         5.0000000          :
          :   S6 in model hess.         20.0000000          :
          ...................................................

generating ANC from model Hessian ...
Using Lindh-Hessian (1995)
 Shifting diagonal of input Hessian by   9.849940842982841E-003
 Lowest  eigenvalues of input Hessian
    0.000000    0.000000    0.000000    0.000000    0.000000    0.000000
    0.010000    0.010202    0.010526    0.010861    0.011953    0.012617
    0.012927    0.014304    0.014763    0.015274    0.016064    0.016779
 Highest eigenvalues
    1.916539    2.086067    2.162484    2.230453    2.288742    2.308052
 

........................................................................
.............................. CYCLE    1 ..............................
........................................................................
   1    -84.3290907 -0.843291E+02  0.128E-06    0.07       0.0  T
   2    -84.3290907  0.537170E-10  0.205E-05    0.07     751.4  T
   3    -84.3290907 -0.537170E-10  0.125E-06    0.07   12364.6  T
     SCC iter.                  ...        0 min,  0.016 sec
     gradient                   ...        0 min,  0.057 sec
 * total energy  :   -83.6057420 Eh     change       -0.1794731E-08 Eh
   gradient norm :     0.1242993 Eh/α   predicted     0.0000000E+00 (-100.00%)
   displ. norm   :     0.2821585 α      lambda       -0.1560293E-01
   maximum displ.:     0.0965860 α      in ANC's #21, #57, #8, ...

........................................................................
.............................. CYCLE    2 ..............................
........................................................................
   1    -84.3127310 -0.843127E+02  0.361E-01    0.17       0.0  T
   2    -84.0323816  0.280349E+00  0.165E+00    0.75       1.0  T
   3    -84.2707614 -0.238380E+00  0.683E-01    0.03       1.0  T
   4    -84.3097991 -0.390377E-01  0.395E-01    0.20       1.0  T
   5    -84.3288795 -0.190804E-01  0.474E-02    0.06       1.0  T
   6    -84.3290749 -0.195394E-03  0.112E-02    0.07       1.4  T
   7    -84.3290794 -0.452934E-05  0.236E-03    0.07       6.5  T
   8    -84.3290611  0.183256E-04  0.123E-02    0.07       1.3  T
   9    -84.3290600  0.111818E-05  0.125E-02    0.07       1.2  T
  10    -84.3290757 -0.157021E-04  0.561E-03    0.07       2.8  T
  11    -84.3290795 -0.384719E-05  0.807E-04    0.07      19.1  T
  12    -84.3290796 -0.728648E-07  0.221E-04    0.07      69.8  T
  13    -84.3290796 -0.522999E-08  0.929E-05    0.07     166.0  T
  14    -84.3290796 -0.101635E-08  0.169E-05    0.07     914.9  T
     SCC iter.                  ...        0 min,  0.072 sec
     gradient                   ...        0 min,  0.058 sec
 * total energy  :   -83.6167736 Eh     change       -0.1103165E-01 Eh
   gradient norm :     0.0559905 Eh/α   predicted    -0.8433184E-02 ( -23.55%)
   displ. norm   :     0.3029934 α      lambda       -0.6235870E-02
   maximum displ.:     0.1246054 α      in ANC's #8, #7, #21, ...

........................................................................
.............................. CYCLE    3 ..............................
........................................................................
   1    -84.3250503 -0.843251E+02  0.287E-01    0.13       0.0  T
   2    -84.0330382  0.292012E+00  0.167E+00    0.58       1.0  T
   3    -84.3160703 -0.283032E+00  0.395E-01    0.03       1.0  T
   4    -84.3241022 -0.803188E-02  0.294E-01    0.14       1.0  T
   5    -84.3347639 -0.106617E-01  0.115E-02    0.07       1.3  T
   6    -84.3338328  0.931116E-03  0.897E-02    0.06       1.0  T
   7    -84.3345282 -0.695447E-03  0.447E-02    0.08       1.0  T
   8    -84.3347704 -0.242147E-03  0.253E-03    0.07       6.1  T
   9    -84.3347705 -0.131693E-06  0.236E-03    0.07       6.5  T
  10    -84.3347707 -0.251785E-06  0.189E-03    0.07       8.2  T
  11    -84.3347712 -0.421288E-06  0.279E-04    0.07      55.4  T
  12    -84.3347712 -0.891390E-08  0.173E-05    0.07     892.1  T
  13    -84.3347712 -0.179767E-10  0.796E-06    0.07    1939.1  T
     SCC iter.                  ...        0 min,  0.059 sec
     gradient                   ...        0 min,  0.038 sec
 * total energy  :   -83.6204404 Eh     change       -0.3666781E-02 Eh
   gradient norm :     0.0188132 Eh/α   predicted    -0.3406769E-02 (  -7.09%)
   displ. norm   :     0.2108745 α      lambda       -0.9571601E-03
   maximum displ.:     0.1049985 α      in ANC's #8, #7, #2, ...

........................................................................
.............................. CYCLE    4 ..............................
........................................................................
   1    -84.3374115 -0.843374E+02  0.103E-01    0.09       0.0  T
   2    -84.0847537  0.252658E+00  0.147E+00    0.16       1.0  T
   3    -84.3383524 -0.253599E+00  0.447E-02    0.08       1.0  T
   4    -84.3385259 -0.173528E-03  0.217E-02    0.07       1.0  T
   5    -84.3385817 -0.557400E-04  0.433E-03    0.07       3.6  T
   6    -84.3385798  0.186011E-05  0.520E-03    0.07       3.0  T
   7    -84.3385821 -0.229494E-05  0.172E-03    0.07       9.0  T
   8    -84.3385825 -0.342641E-06  0.124E-04    0.07     124.9  T
   9    -84.3385825 -0.139130E-08  0.197E-05    0.07     783.8  T
     SCC iter.                  ...        0 min,  0.050 sec
     gradient                   ...        0 min,  0.061 sec
 * total energy  :   -83.6211384 Eh     change       -0.6979928E-03 Eh
   gradient norm :     0.0114030 Eh/α   predicted    -0.4998711E-03 ( -28.38%)
   displ. norm   :     0.3201174 α      lambda       -0.8087695E-03
   maximum displ.:     0.1762396 α      in ANC's #8, #2, #7, ...

........................................................................
.............................. CYCLE    5 ..............................
........................................................................
   1    -84.3408330 -0.843408E+02  0.788E-02    0.08       0.0  T
   2    -84.1412659  0.199567E+00  0.131E+00    0.10       1.0  T
   3    -84.3411476 -0.199882E+00  0.549E-02    0.08       1.0  T
   4    -84.3414968 -0.349225E-03  0.821E-03    0.07       1.9  T
   5    -84.3414959  0.885922E-06  0.802E-03    0.07       1.9  T
   6    -84.3415019 -0.597431E-05  0.308E-03    0.07       5.0  T
   7    -84.3415022 -0.259217E-06  0.219E-03    0.07       7.0  T
   8    -84.3415027 -0.551576E-06  0.363E-04    0.07      42.6  T
   9    -84.3415027 -0.130366E-07  0.123E-04    0.07     125.8  T
  10    -84.3415027 -0.177083E-08  0.553E-06    0.07    2789.7  T
     SCC iter.                  ...        0 min,  0.051 sec
     gradient                   ...        0 min,  0.055 sec
 * total energy  :   -83.6217041 Eh     change       -0.5657464E-03 Eh
   gradient norm :     0.0079637 Eh/α   predicted    -0.4458310E-03 ( -21.20%)
   displ. norm   :     0.3292972 α      lambda       -0.5057973E-03
   maximum displ.:     0.1734076 α      in ANC's #8, #2, #7, ...

........................................................................
.............................. CYCLE    6 ..............................
........................................................................
   1    -84.3415808 -0.843416E+02  0.568E-02    0.08       0.0  T
   2    -84.2140939  0.127487E+00  0.104E+00    0.06       1.0  T
   3    -84.3417260 -0.127632E+00  0.413E-02    0.08       1.0  T
   4    -84.3419289 -0.202913E-03  0.574E-03    0.07       2.7  T
   5    -84.3419183  0.106119E-04  0.105E-02    0.08       1.5  T
   6    -84.3419301 -0.117828E-04  0.248E-03    0.07       6.2  T
   7    -84.3419307 -0.601401E-06  0.133E-04    0.07     116.3  T
   8    -84.3419307  0.145309E-08  0.147E-04    0.07     104.7  T
     SCC iter.                  ...        0 min,  0.042 sec
     gradient                   ...        0 min,  0.055 sec
 * total energy  :   -83.6220820 Eh     change       -0.3778950E-03 Eh
   gradient norm :     0.0098799 Eh/α   predicted    -0.2803227E-03 ( -25.82%)
   displ. norm   :     0.3739586 α      lambda       -0.4541383E-03
   maximum displ.:     0.1851289 α      in ANC's #8, #2, #1, ...

........................................................................
.............................. CYCLE    7 ..............................
........................................................................
   1    -84.3416195 -0.843416E+02  0.146E-02    0.08       0.0  T
   2    -84.3375817  0.403782E-02  0.185E-01    0.05       1.0  T
   3    -84.3415969 -0.401522E-02  0.190E-02    0.08       1.0  T
   4    -84.3416237 -0.268462E-04  0.114E-02    0.08       1.4  T
   5    -84.3416198  0.389464E-05  0.121E-02    0.08       1.3  T
   6    -84.3416359 -0.160291E-04  0.213E-03    0.07       7.3  T
   7    -84.3416363 -0.465415E-06  0.391E-04    0.07      39.4  T
   8    -84.3416363 -0.172873E-07  0.234E-05    0.07     659.4  T
   9    -84.3416363 -0.105587E-10  0.689E-06    0.07    2240.2  T
     SCC iter.                  ...        0 min,  0.048 sec
     gradient                   ...        0 min,  0.058 sec
 * total energy  :   -83.6224246 Eh     change       -0.3425157E-03 Eh
   gradient norm :     0.0100767 Eh/α   predicted    -0.2588244E-03 ( -24.43%)
   displ. norm   :     0.3550110 α      lambda       -0.3713894E-03
   maximum displ.:     0.1829252 α      in ANC's #2, #1, #8, ...

........................................................................
.............................. CYCLE    8 ..............................
........................................................................
   1    -84.3415134 -0.843415E+02  0.332E-02    0.07       0.0  T
   2    -84.3298561  0.116573E-01  0.321E-01    0.15       1.0  T
   3    -84.3414964 -0.116402E-01  0.373E-02    0.08       1.0  T
   4    -84.3416491 -0.152716E-03  0.349E-03    0.07       4.4  T
   5    -84.3416333  0.157784E-04  0.125E-02    0.08       1.2  T
   6    -84.3416505 -0.171565E-04  0.403E-04    0.08      38.3  T
   7    -84.3416504  0.606297E-07  0.797E-04    0.08      19.3  T
   8    -84.3416505 -0.683911E-07  0.278E-04    0.08      55.5  T
   9    -84.3416505 -0.930626E-08  0.338E-05    0.08     456.0  T
  10    -84.3416505 -0.100144E-09  0.120E-05    0.08    1289.2  T
     SCC iter.                  ...        0 min,  0.053 sec
     gradient                   ...        0 min,  0.058 sec
 * total energy  :   -83.6227059 Eh     change       -0.2813264E-03 Eh
   gradient norm :     0.0076076 Eh/α   predicted    -0.2091010E-03 ( -25.67%)
   displ. norm   :     0.3356871 α      lambda       -0.3072319E-03
   maximum displ.:     0.1893570 α      in ANC's #2, #1, #8, ...

........................................................................
.............................. CYCLE    9 ..............................
........................................................................
   1    -84.3420191 -0.843420E+02  0.628E-02    0.07       0.0  T
   2    -84.3227661  0.192530E-01  0.422E-01    0.22       1.0  T
   3    -84.3415631 -0.187970E-01  0.906E-02    0.09       1.0  T
   4    -84.3418916 -0.328531E-03  0.713E-02    0.07       1.0  T
   5    -84.3424666 -0.574982E-03  0.186E-02    0.07       1.0  T
   6    -84.3425082 -0.415839E-04  0.225E-03    0.08       6.8  T
   7    -84.3425088 -0.573563E-06  0.526E-04    0.08      29.4  T
   8    -84.3425087  0.119333E-06  0.108E-03    0.08      14.3  T
   9    -84.3425088 -0.133621E-06  0.214E-04    0.08      72.1  T
  10    -84.3425088 -0.209072E-08  0.166E-04    0.08      93.0  T
  11    -84.3425088 -0.292374E-08  0.568E-05    0.08     271.6  T
     SCC iter.                  ...        0 min,  0.057 sec
     gradient                   ...        0 min,  0.057 sec
 * total energy  :   -83.6229442 Eh     change       -0.2382841E-03 Eh
   gradient norm :     0.0056026 Eh/α   predicted    -0.1709269E-03 ( -28.27%)
   displ. norm   :     0.3479199 α      lambda       -0.2710596E-03
   maximum displ.:     0.2055572 α      in ANC's #2, #1, #3, ...

........................................................................
.............................. CYCLE   10 ..............................
........................................................................
   1    -84.3428859 -0.843429E+02  0.373E-02    0.07       0.0  T
   2    -84.3299720  0.129139E-01  0.338E-01    0.16       1.0  T
   3    -84.3428526 -0.128806E-01  0.424E-02    0.09       1.0  T
   4    -84.3430047 -0.152029E-03  0.213E-02    0.08       1.0  T
   5    -84.3430579 -0.532308E-04  0.482E-03    0.08       3.2  T
   6    -84.3430450  0.129372E-04  0.115E-02    0.08       1.3  T
   7    -84.3430602 -0.151898E-04  0.743E-04    0.08      20.8  T
   8    -84.3430602 -0.427689E-07  0.435E-04    0.08      35.5  T
   9    -84.3430602 -0.219785E-07  0.530E-05    0.08     291.2  T
  10    -84.3430602 -0.170488E-09  0.350E-05    0.08     440.8  T
     SCC iter.                  ...        0 min,  0.052 sec
     gradient                   ...        0 min,  0.057 sec
 * total energy  :   -83.6231572 Eh     change       -0.2130416E-03 Eh
   gradient norm :     0.0059306 Eh/α   predicted    -0.1519380E-03 ( -28.68%)
   displ. norm   :     0.3384702 α      lambda       -0.2332033E-03
   maximum displ.:     0.2018442 α      in ANC's #2, #1, #3, ...

........................................................................
.............................. CYCLE   11 ..............................
........................................................................
   1    -84.3442025 -0.843442E+02  0.107E-02    0.08       0.0  T
   2    -84.3440122  0.190252E-03  0.422E-02    0.09       1.0  T
   3    -84.3441050 -0.928027E-04  0.295E-02    0.08       1.0  T
   4    -84.3441949 -0.899175E-04  0.115E-02    0.08       1.3  T
   5    -84.3442104 -0.154890E-04  0.217E-03    0.08       7.1  T
   6    -84.3442107 -0.265594E-06  0.425E-04    0.08      36.3  T
   7    -84.3442107 -0.122918E-07  0.851E-05    0.08     181.4  T
   8    -84.3442107 -0.575540E-11  0.529E-05    0.08     291.4  T
     SCC iter.                  ...        0 min,  0.043 sec
     gradient                   ...        0 min,  0.059 sec
 * total energy  :   -83.6233373 Eh     change       -0.1801225E-03 Eh
   gradient norm :     0.0065713 Eh/α   predicted    -0.1299608E-03 ( -27.85%)
   displ. norm   :     0.3178658 α      lambda       -0.1846785E-03
   maximum displ.:     0.1926317 α      in ANC's #2, #1, #3, ...

........................................................................
.............................. CYCLE   12 ..............................
........................................................................
   1    -84.3436242 -0.843436E+02  0.561E-02    0.09       0.0  T
   2    -84.2117284  0.131896E+00  0.106E+00    0.07       1.0  T
   3    -84.3439707 -0.132242E+00  0.142E-02    0.09       1.1  T
   4    -84.3439930 -0.222821E-04  0.265E-03    0.08       5.8  T
   5    -84.3439936 -0.579507E-06  0.104E-03    0.08      14.8  T
   6    -84.3439930  0.572523E-06  0.223E-03    0.08       6.9  T
   7    -84.3439935 -0.532816E-06  0.767E-04    0.08      20.1  T
   8    -84.3439936 -0.661951E-07  0.142E-04    0.08     108.7  T
   9    -84.3439936 -0.218380E-08  0.313E-05    0.08     492.9  T
     SCC iter.                  ...        0 min,  0.049 sec
     gradient                   ...        0 min,  0.059 sec
 * total energy  :   -83.6234843 Eh     change       -0.1469808E-03 Eh
   gradient norm :     0.0059736 Eh/α   predicted    -0.1016698E-03 ( -30.83%)
   displ. norm   :     0.3157215 α      lambda       -0.1720264E-03
   maximum displ.:     0.1942299 α      in ANC's #1, #2, #11, ...

........................................................................
.............................. CYCLE   13 ..............................
........................................................................
   1    -84.3451080 -0.843451E+02  0.657E-02    0.10       0.0  T
   2    -84.1757678  0.169340E+00  0.120E+00    0.09       1.0  T
   3    -84.3456225 -0.169855E+00  0.107E-02    0.09       1.4  T
   4    -84.3456037  0.188763E-04  0.147E-02    0.09       1.0  T
   5    -84.3456297 -0.260590E-04  0.301E-03    0.09       5.1  T
   6    -84.3456304 -0.654172E-06  0.135E-03    0.09      11.4  T
   7    -84.3456303  0.558981E-07  0.143E-03    0.09      10.8  T
   8    -84.3456305 -0.224927E-06  0.342E-04    0.09      45.1  T
   9    -84.3456306 -0.130222E-07  0.706E-05    0.09     218.5  T
  10    -84.3456306 -0.560519E-09  0.117E-05    0.09    1322.5  T
     SCC iter.                  ...        0 min,  0.053 sec
     gradient                   ...        0 min,  0.059 sec
 * total energy  :   -83.6236040 Eh     change       -0.1196754E-03 Eh
   gradient norm :     0.0046215 Eh/α   predicted    -0.9458824E-04 ( -20.96%)
   displ. norm   :     0.2646607 α      lambda       -0.1003916E-03
   maximum displ.:     0.1625584 α      in ANC's #1, #2, #3, ...

........................................................................
.............................. CYCLE   14 ..............................
........................................................................
   1    -84.3433007 -0.843433E+02  0.725E-02    0.10       0.0  T
   2    -84.1527028  0.190598E+00  0.128E+00    0.11       1.0  T
   3    -84.3439059 -0.191203E+00  0.127E-02    0.09       1.2  T
   4    -84.3439150 -0.906780E-05  0.812E-03    0.09       1.9  T
   5    -84.3439223 -0.732972E-05  0.135E-03    0.09      11.4  T
   6    -84.3439223 -0.565196E-07  0.498E-04    0.09      31.0  T
   7    -84.3439223 -0.411751E-08  0.376E-04    0.09      41.0  T
   8    -84.3439224 -0.168683E-07  0.583E-05    0.09     264.8  T
   9    -84.3439224 -0.217341E-09  0.341E-05    0.09     452.2  T
     SCC iter.                  ...        0 min,  0.050 sec
     gradient                   ...        0 min,  0.036 sec
 * total energy  :   -83.6236662 Eh     change       -0.6226167E-04 Eh
   gradient norm :     0.0036887 Eh/α   predicted    -0.5371477E-04 ( -13.73%)
   displ. norm   :     0.1554863 α      lambda       -0.6063499E-04
   maximum displ.:     0.1057655 α      in ANC's #1, #2, #7, ...

........................................................................
.............................. CYCLE   15 ..............................
........................................................................
   1    -84.3452418 -0.843452E+02  0.362E-02    0.09       0.0  T
   2    -84.2916104  0.536315E-01  0.675E-01    0.05       1.0  T
   3    -84.3453925 -0.537821E-01  0.798E-03    0.09       1.9  T
   4    -84.3453809  0.115705E-04  0.118E-02    0.09       1.3  T
   5    -84.3453944 -0.134989E-04  0.538E-03    0.09       2.9  T
   6    -84.3453974 -0.299922E-05  0.926E-04    0.09      16.7  T
   7    -84.3453975 -0.865696E-07  0.726E-05    0.09     212.5  T
   8    -84.3453975 -0.248306E-09  0.413E-05    0.09     373.2  T
     SCC iter.                  ...        0 min,  0.046 sec
     gradient                   ...        0 min,  0.066 sec
 * total energy  :   -83.6237050 Eh     change       -0.3880306E-04 Eh
   gradient norm :     0.0031249 Eh/α   predicted    -0.3105161E-04 ( -19.98%)
   displ. norm   :     0.1257663 α      lambda       -0.4273839E-04
   maximum displ.:     0.0874773 α      in ANC's #1, #2, #5, ...

........................................................................
.............................. CYCLE   16 ..............................
........................................................................
   1    -84.3457326 -0.843457E+02  0.850E-03    0.09       0.0  T
   2    -84.3452454  0.487229E-03  0.635E-02    0.08       1.0  T
   3    -84.3457068 -0.461450E-03  0.189E-02    0.09       1.0  T
   4    -84.3457338 -0.269927E-04  0.798E-03    0.09       1.9  T
   5    -84.3457385 -0.464176E-05  0.433E-03    0.09       3.6  T
   6    -84.3457404 -0.193210E-05  0.187E-04    0.09      82.5  T
   7    -84.3457404  0.276843E-08  0.195E-04    0.09      78.9  T
   8    -84.3457404 -0.421284E-08  0.553E-05    0.09     279.0  T
     SCC iter.                  ...        0 min,  0.046 sec
     gradient                   ...        0 min,  0.065 sec
 * total energy  :   -83.6237348 Eh     change       -0.2972687E-04 Eh
   gradient norm :     0.0031128 Eh/α   predicted    -0.2170971E-04 ( -26.97%)
   displ. norm   :     0.1298115 α      lambda       -0.4070621E-04
   maximum displ.:     0.0901997 α      in ANC's #1, #2, #8, ...

........................................................................
.............................. CYCLE   17 ..............................
........................................................................
   1    -84.3455490 -0.843455E+02  0.508E-03    0.09       0.0  T
   2    -84.3453701  0.178879E-03  0.401E-02    0.09       1.0  T
   3    -84.3455454 -0.175235E-03  0.661E-03    0.09       2.3  T
   4    -84.3455474 -0.200414E-05  0.580E-03    0.09       2.7  T
   5    -84.3455502 -0.281053E-05  0.297E-03    0.09       5.2  T
   6    -84.3455510 -0.856689E-06  0.573E-04    0.09      26.9  T
   7    -84.3455511 -0.292562E-07  0.181E-04    0.09      85.5  T
   8    -84.3455511 -0.370501E-08  0.101E-05    0.09    1525.5  T
     SCC iter.                  ...        0 min,  0.046 sec
     gradient                   ...        0 min,  0.066 sec
 * total energy  :   -83.6237661 Eh     change       -0.3130282E-04 Eh
   gradient norm :     0.0027834 Eh/α   predicted    -0.2069715E-04 ( -33.88%)
   displ. norm   :     0.1480245 α      lambda       -0.4479064E-04
   maximum displ.:     0.1053100 α      in ANC's #1, #2, #5, ...

........................................................................
.............................. CYCLE   18 ..............................
........................................................................
   1    -84.3456444 -0.843456E+02  0.167E-02    0.09       0.0  T
   2    -84.3420028  0.364157E-02  0.179E-01    0.12       1.0  T
   3    -84.3456741 -0.367129E-02  0.354E-03    0.09       4.4  T
   4    -84.3456719  0.218344E-05  0.534E-03    0.09       2.9  T
   5    -84.3456751 -0.318488E-05  0.734E-04    0.09      21.0  T
   6    -84.3456751  0.232427E-07  0.573E-04    0.09      27.0  T
   7    -84.3456751 -0.312918E-07  0.193E-04    0.09      80.0  T
   8    -84.3456751 -0.388762E-08  0.621E-05    0.09     248.3  T
     SCC iter.                  ...        0 min,  0.046 sec
     gradient                   ...        0 min,  0.066 sec
 * total energy  :   -83.6237979 Eh     change       -0.3181798E-04 Eh
   gradient norm :     0.0027302 Eh/α   predicted    -0.2288898E-04 ( -28.06%)
   displ. norm   :     0.1334879 α      lambda       -0.3153109E-04
   maximum displ.:     0.0933272 α      in ANC's #1, #2, #5, ...

........................................................................
.............................. CYCLE   19 ..............................
........................................................................
   1    -84.3451234 -0.843451E+02  0.101E-02    0.09       0.0  T
   2    -84.3438430  0.128048E-02  0.106E-01    0.10       1.0  T
   3    -84.3451209 -0.127797E-02  0.100E-02    0.09       1.5  T
   4    -84.3451329 -0.119530E-04  0.127E-03    0.09      12.1  T
   5    -84.3451328  0.965202E-07  0.126E-03    0.09      12.2  T
   6    -84.3451329 -0.128560E-06  0.370E-04    0.09      41.7  T
   7    -84.3451329 -0.131023E-07  0.147E-04    0.09     105.2  T
   8    -84.3451329 -0.238201E-08  0.224E-05    0.09     689.1  T
     SCC iter.                  ...        0 min,  0.046 sec
     gradient                   ...        0 min,  0.066 sec
 * total energy  :   -83.6238199 Eh     change       -0.2196932E-04 Eh
   gradient norm :     0.0028409 Eh/α   predicted    -0.1604927E-04 ( -26.95%)
   displ. norm   :     0.1148695 α      lambda       -0.3103078E-04
   maximum displ.:     0.0771873 α      in ANC's #1, #3, #7, ...

........................................................................
.............................. CYCLE   20 ..............................
........................................................................
   1    -84.3453207 -0.843453E+02  0.102E-02    0.09       0.0  T
   2    -84.3439956  0.132511E-02  0.107E-01    0.10       1.0  T
   3    -84.3453166 -0.132098E-02  0.109E-02    0.09       1.4  T
   4    -84.3453302 -0.135991E-04  0.173E-03    0.09       8.9  T
   5    -84.3453298  0.324866E-06  0.213E-03    0.09       7.3  T
   6    -84.3453302 -0.396759E-06  0.744E-04    0.09      20.7  T
   7    -84.3453303 -0.623622E-07  0.395E-05    0.09     390.7  T
   8    -84.3453303 -0.535039E-10  0.204E-05    0.09     754.7  T
     SCC iter.                  ...        0 min,  0.046 sec
     gradient                   ...        0 min,  0.067 sec
 * total energy  :   -83.6238409 Eh     change       -0.2106104E-04 Eh
   gradient norm :     0.0021680 Eh/α   predicted    -0.1572361E-04 ( -25.34%)
   displ. norm   :     0.1188384 α      lambda       -0.2622357E-04
   maximum displ.:     0.0772193 α      in ANC's #1, #3, #7, ...
 * RMSD in coord.:     0.6119004 α      energy gain  -0.1809896E-01 Eh

generating ANC from model Hessian ...
Using Lindh-Hessian (1995)
 Shifting diagonal of input Hessian by   9.814937486457277E-003
 Lowest  eigenvalues of input Hessian
    0.000000    0.000000    0.000000    0.000000    0.000000    0.000000
    0.010000    0.010223    0.010538    0.010845    0.012267    0.012630
    0.012737    0.014221    0.015466    0.015767    0.016362    0.016701
 Highest eigenvalues
    1.995384    2.090583    2.139160    2.210022    2.277669    2.304216
 

........................................................................
.............................. CYCLE   21 ..............................
........................................................................
   1    -84.3448873 -0.843449E+02  0.396E-03    0.09       0.0  T
   2    -84.3448840  0.328796E-05  0.630E-03    0.09       2.5  T
   3    -84.3448276  0.563625E-04  0.228E-02    0.08       1.0  T
   4    -84.3448879 -0.602493E-04  0.166E-03    0.09       9.3  T
   5    -84.3448876  0.249944E-06  0.197E-03    0.09       7.8  T
   6    -84.3448880 -0.352102E-06  0.673E-04    0.09      22.9  T
   7    -84.3448880 -0.482582E-07  0.124E-04    0.09     124.2  T
   8    -84.3448880 -0.148145E-08  0.460E-05    0.09     335.7  T
     SCC iter.                  ...        0 min,  0.047 sec
     gradient                   ...        0 min,  0.067 sec
 * total energy  :   -83.6238601 Eh     change       -0.1917490E-04 Eh
   gradient norm :     0.0022250 Eh/α   predicted     0.0000000E+00 (-100.00%)
   displ. norm   :     0.0227522 α      lambda       -0.1286958E-04
   maximum displ.:     0.0110507 α      in ANC's #11, #1, #5, ...

........................................................................
.............................. CYCLE   22 ..............................
........................................................................
   1    -84.3450818 -0.843451E+02  0.285E-03    0.09       0.0  T
   2    -84.3449555  0.126355E-03  0.329E-02    0.09       1.0  T
   3    -84.3450818 -0.126280E-03  0.305E-03    0.09       5.1  T
   4    -84.3450825 -0.727145E-06  0.178E-03    0.09       8.7  T
   5    -84.3450825  0.101319E-07  0.165E-03    0.09       9.3  T
   6    -84.3450828 -0.293859E-06  0.182E-04    0.09      84.8  T
   7    -84.3450828 -0.307109E-08  0.594E-05    0.09     260.0  T
     SCC iter.                  ...        0 min,  0.042 sec
     gradient                   ...        0 min,  0.067 sec
 * total energy  :   -83.6238717 Eh     change       -0.1162292E-04 Eh
   gradient norm :     0.0011377 Eh/α   predicted    -0.7120158E-05 ( -38.74%)
   displ. norm   :     0.1102679 α      lambda       -0.2796571E-04
   maximum displ.:     0.0532204 α      in ANC's #11, #1, #5, ...

........................................................................
.............................. CYCLE   23 ..............................
........................................................................
   1    -84.3452082 -0.843452E+02  0.631E-03    0.09       0.0  T
   2    -84.3451947  0.134715E-04  0.120E-02    0.09       1.3  T
   3    -84.3450927  0.101972E-03  0.318E-02    0.08       1.0  T
   4    -84.3452065 -0.113826E-03  0.679E-03    0.09       2.3  T
   5    -84.3452076 -0.102040E-05  0.564E-03    0.09       2.7  T
   6    -84.3452109 -0.332689E-05  0.104E-03    0.09      14.9  T
   7    -84.3452110 -0.116412E-06  0.148E-04    0.09     104.1  T
   8    -84.3452110 -0.247243E-08  0.204E-05    0.09     755.6  T
     SCC iter.                  ...        0 min,  0.048 sec
     gradient                   ...        0 min,  0.067 sec
 * total energy  :   -83.6238916 Eh     change       -0.1992109E-04 Eh
   gradient norm :     0.0025603 Eh/α   predicted    -0.1405905E-04 ( -29.43%)
   displ. norm   :     0.0315014 α      lambda       -0.9890033E-05
   maximum displ.:     0.0145346 α      in ANC's #1, #6, #5, ...

........................................................................
.............................. CYCLE   24 ..............................
........................................................................
   1    -84.3451322 -0.843451E+02  0.418E-03    0.09       0.0  T
   2    -84.3447161  0.416063E-03  0.598E-02    0.08       1.0  T
   3    -84.3451342 -0.418073E-03  0.677E-04    0.09      22.8  T
   4    -84.3451341  0.142448E-06  0.121E-03    0.09      12.7  T
   5    -84.3451342 -0.153625E-06  0.256E-04    0.09      60.2  T
   6    -84.3451342 -0.290733E-08  0.857E-05    0.09     180.0  T
   7    -84.3451342 -0.582347E-09  0.376E-05    0.09     410.1  T
     SCC iter.                  ...        0 min,  0.042 sec
     gradient                   ...        0 min,  0.066 sec
 * total energy  :   -83.6239003 Eh     change       -0.8650985E-05 Eh
   gradient norm :     0.0020595 Eh/α   predicted    -0.4951093E-05 ( -42.77%)
   displ. norm   :     0.1417091 α      lambda       -0.3640104E-04
   maximum displ.:     0.0650020 α      in ANC's #1, #6, #5, ...

........................................................................
.............................. CYCLE   25 ..............................
........................................................................
   1    -84.3447662 -0.843448E+02  0.138E-02    0.09       0.0  T
   2    -84.3395915  0.517468E-02  0.211E-01    0.06       1.0  T
   3    -84.3447868 -0.519527E-02  0.278E-03    0.09       5.5  T
   4    -84.3447845  0.229187E-05  0.512E-03    0.09       3.0  T
   5    -84.3447870 -0.255107E-05  0.193E-03    0.09       8.0  T
   6    -84.3447873 -0.239607E-06  0.699E-04    0.09      22.1  T
   7    -84.3447873 -0.550984E-07  0.516E-05    0.09     298.9  T
   8    -84.3447873 -0.152269E-09  0.116E-05    0.09    1328.1  T
     SCC iter.                  ...        0 min,  0.046 sec
     gradient                   ...        0 min,  0.066 sec
 * total energy  :   -83.6239218 Eh     change       -0.2146235E-04 Eh
   gradient norm :     0.0018011 Eh/α   predicted    -0.1856679E-04 ( -13.49%)
   displ. norm   :     0.0877251 α      lambda       -0.9378472E-05
   maximum displ.:     0.0459345 α      in ANC's #1, #6, #5, ...

........................................................................
.............................. CYCLE   26 ..............................
........................................................................
   1    -84.3449154 -0.843449E+02  0.750E-03    0.08       0.0  T
   2    -84.3439029  0.101245E-02  0.932E-02    0.10       1.0  T
   3    -84.3449211 -0.101812E-02  0.297E-03    0.09       5.2  T
   4    -84.3449219 -0.819809E-06  0.155E-03    0.09      10.0  T
   5    -84.3449221 -0.232504E-06  0.605E-04    0.09      25.5  T
   6    -84.3449221 -0.792551E-08  0.348E-04    0.09      44.4  T
   7    -84.3449221 -0.138570E-07  0.209E-05    0.09     739.9  T
   8    -84.3449221  0.729017E-11  0.161E-05    0.09     960.2  T
     SCC iter.                  ...        0 min,  0.047 sec
     gradient                   ...        0 min,  0.066 sec
 * total energy  :   -83.6239330 Eh     change       -0.1122417E-04 Eh
   gradient norm :     0.0019575 Eh/α   predicted    -0.4706470E-05 ( -58.07%)
   displ. norm   :     0.1322820 α      lambda       -0.1993451E-04
   maximum displ.:     0.0764890 α      in ANC's #1, #6, #5, ...

........................................................................
.............................. CYCLE   27 ..............................
........................................................................
   1    -84.3453310 -0.843453E+02  0.364E-02    0.08       0.0  T
   2    -84.3338653  0.114657E-01  0.319E-01    0.17       1.0  T
   3    -84.3453870 -0.115217E-01  0.297E-02    0.09       1.0  T
   4    -84.3454918 -0.104806E-03  0.331E-03    0.08       4.7  T
   5    -84.3454927 -0.931621E-06  0.195E-03    0.08       7.9  T
   6    -84.3454909  0.185465E-05  0.442E-03    0.09       3.5  T
   7    -84.3454931 -0.226740E-05  0.246E-04    0.08      62.6  T
   8    -84.3454931 -0.524429E-08  0.120E-04    0.08     129.1  T
   9    -84.3454931 -0.169091E-08  0.441E-06    0.08    3499.1  T
     SCC iter.                  ...        0 min,  0.049 sec
     gradient                   ...        0 min,  0.065 sec
 * total energy  :   -83.6239535 Eh     change       -0.2055501E-04 Eh
   gradient norm :     0.0014406 Eh/α   predicted    -0.1004829E-04 ( -51.12%)
   displ. norm   :     0.2178718 α      lambda       -0.1723869E-04
   maximum displ.:     0.1220401 α      in ANC's #1, #6, #5, ...

........................................................................
.............................. CYCLE   28 ..............................
........................................................................
   1    -84.3440837 -0.843441E+02  0.461E-02    0.08       0.0  T
   2    -84.3297027  0.143811E-01  0.359E-01    0.19       1.0  T
   3    -84.3441110 -0.144083E-01  0.439E-02    0.09       1.0  T
   4    -84.3443384 -0.227455E-03  0.514E-03    0.08       3.0  T
   5    -84.3443416 -0.314858E-05  0.123E-03    0.08      12.5  T
   6    -84.3443354  0.612810E-05  0.732E-03    0.08       2.1  T
   7    -84.3443416 -0.619439E-05  0.490E-04    0.08      31.5  T
   8    -84.3443417 -0.246908E-07  0.155E-04    0.08      99.5  T
   9    -84.3443417 -0.227878E-08  0.726E-05    0.08     212.4  T
     SCC iter.                  ...        0 min,  0.052 sec
     gradient                   ...        0 min,  0.064 sec
 * total energy  :   -83.6239637 Eh     change       -0.1012897E-04 Eh
   gradient norm :     0.0025431 Eh/α   predicted    -0.8801683E-05 ( -13.10%)
   displ. norm   :     0.0233723 α      lambda       -0.1435950E-04
   maximum displ.:     0.0098038 α      in ANC's #1, #10, #17, ...

........................................................................
.............................. CYCLE   29 ..............................
........................................................................
   1    -84.3449804 -0.843450E+02  0.425E-03    0.08       0.0  T
   2    -84.3447178  0.262661E-03  0.476E-02    0.09       1.0  T
   3    -84.3449815 -0.263759E-03  0.215E-03    0.08       7.2  T
   4    -84.3449818 -0.284200E-06  0.134E-03    0.08      11.5  T
   5    -84.3449819 -0.129277E-06  0.696E-04    0.08      22.2  T
   6    -84.3449820 -0.553143E-07  0.171E-04    0.08      90.3  T
   7    -84.3449820 -0.284419E-08  0.312E-05    0.08     494.4  T
     SCC iter.                  ...        0 min,  0.041 sec
     gradient                   ...        0 min,  0.066 sec
 * total energy  :   -83.6239744 Eh     change       -0.1068922E-04 Eh
   gradient norm :     0.0012648 Eh/α   predicted    -0.7191769E-05 ( -32.72%)
   displ. norm   :     0.0840594 α      lambda       -0.1339113E-04
   maximum displ.:     0.0594333 α      in ANC's #1, #11, #26, ...

........................................................................
.............................. CYCLE   30 ..............................
........................................................................
   1    -84.3456966 -0.843457E+02  0.723E-03    0.08       0.0  T
   2    -84.3450358  0.660791E-03  0.758E-02    0.09       1.0  T
   3    -84.3456954 -0.659647E-03  0.682E-03    0.08       2.3  T
   4    -84.3457002 -0.476361E-05  0.278E-03    0.08       5.5  T
   5    -84.3457010 -0.834246E-06  0.712E-04    0.08      21.7  T
   6    -84.3457010 -0.442752E-08  0.375E-04    0.08      41.1  T
   7    -84.3457011 -0.145875E-07  0.803E-05    0.08     192.2  T
   8    -84.3457011 -0.541434E-09  0.377E-05    0.08     409.7  T
     SCC iter.                  ...        0 min,  0.046 sec
     gradient                   ...        0 min,  0.064 sec
 * total energy  :   -83.6239863 Eh     change       -0.1198860E-04 Eh
   gradient norm :     0.0015053 Eh/α   predicted    -0.6717149E-05 ( -43.97%)
   displ. norm   :     0.1032315 α      lambda       -0.8992195E-05
   maximum displ.:     0.0705273 α      in ANC's #1, #11, #12, ...

........................................................................
.............................. CYCLE   31 ..............................
........................................................................
   1    -84.3453948 -0.843454E+02  0.485E-03    0.08       0.0  T
   2    -84.3448431  0.551710E-03  0.684E-02    0.07       1.0  T
   3    -84.3453960 -0.552886E-03  0.374E-03    0.08       4.1  T
   4    -84.3453976 -0.163006E-05  0.798E-04    0.08      19.3  T
   5    -84.3453976 -0.154585E-07  0.435E-04    0.08      35.4  T
   6    -84.3453976 -0.103621E-07  0.674E-05    0.08     228.9  T
   7    -84.3453976 -0.745501E-10  0.226E-05    0.08     682.9  T
     SCC iter.                  ...        0 min,  0.037 sec
     gradient                   ...        0 min,  0.064 sec
 * total energy  :   -83.6239971 Eh     change       -0.1076043E-04 Eh
   gradient norm :     0.0011044 Eh/α   predicted    -0.4519742E-05 ( -58.00%)
   displ. norm   :     0.1144038 α      lambda       -0.9404159E-05
   maximum displ.:     0.0781914 α      in ANC's #1, #11, #12, ...

........................................................................
.............................. CYCLE   32 ..............................
........................................................................
   1    -84.3447194 -0.843447E+02  0.227E-02    0.09       0.0  T
   2    -84.3245209  0.201985E-01  0.414E-01    0.04       1.0  T
   3    -84.3447796 -0.202587E-01  0.581E-03    0.08       2.7  T
   4    -84.3447832 -0.354404E-05  0.172E-03    0.08       9.0  T
   5    -84.3447831  0.467745E-07  0.183E-03    0.08       8.4  T
   6    -84.3447833 -0.212785E-06  0.108E-03    0.08      14.3  T
   7    -84.3447835 -0.130026E-06  0.207E-04    0.08      74.6  T
   8    -84.3447835 -0.472399E-08  0.373E-05    0.08     413.9  T
   9    -84.3447835 -0.143643E-09  0.131E-05    0.08    1180.0  T
     SCC iter.                  ...        0 min,  0.049 sec
     gradient                   ...        0 min,  0.049 sec
 * total energy  :   -83.6240063 Eh     change       -0.9171500E-05 Eh
   gradient norm :     0.0009128 Eh/α   predicted    -0.4731176E-05 ( -48.41%)
   displ. norm   :     0.0635175 α      lambda       -0.3618695E-05
   maximum displ.:     0.0440144 α      in ANC's #1, #11, #12, ...

........................................................................
.............................. CYCLE   33 ..............................
........................................................................
   1    -84.3446715 -0.843447E+02  0.168E-02    0.08       0.0  T
   2    -84.3346426  0.100289E-01  0.292E-01    0.05       1.0  T
   3    -84.3447057 -0.100631E-01  0.220E-03    0.08       7.0  T
   4    -84.3447061 -0.431397E-06  0.957E-04    0.08      16.1  T
   5    -84.3447060  0.178024E-06  0.155E-03    0.08       9.9  T
   6    -84.3447061 -0.171028E-06  0.868E-04    0.08      17.8  T
   7    -84.3447062 -0.845823E-07  0.147E-04    0.08     105.1  T
   8    -84.3447062 -0.243547E-08  0.213E-05    0.08     725.2  T
     SCC iter.                  ...        0 min,  0.040 sec
     gradient                   ...        0 min,  0.055 sec
 * total energy  :   -83.6240104 Eh     change       -0.4133752E-05 Eh
   gradient norm :     0.0008746 Eh/α   predicted    -0.1814964E-05 ( -56.09%)
   displ. norm   :     0.0809427 α      lambda       -0.4380409E-05
   maximum displ.:     0.0582432 α      in ANC's #1, #11, #12, ...

   *** GEOMETRY OPTIMIZATION CONVERGED AFTER 33 ITERATIONS ***

------------------------------------------------------------------------
 total energy gain   :        -0.0182684 Eh      -11.4636 kcal/mol
 total RMSD          :         0.6645478 a0        0.3517 Å
 total power (kW/mol):        -1.4534479 (step)  -10.3709 (real)
------------------------------------------------------------------------

 ANCopt (total)                0 d,  0 h,  0 min,  4.625 sec
 optimizer setup                ...        0 min,  0.001 sec (  0.017%)
 model hessian                  ...        0 min,  0.066 sec (  1.432%)
 ANC generation                 ...        0 min,  0.005 sec (  0.115%)
 coordinate transformation      ...        0 min,  0.001 sec (  0.016%)
 single point calculation       ...        0 min,  4.539 sec ( 98.145%)
 optimization log               ...        0 min,  0.007 sec (  0.144%)
 hessian update                 ...        0 min,  0.001 sec (  0.016%)
 rational function              ...        0 min,  0.003 sec (  0.072%)

================
 final structure:
================
42
 xtb: 6.5.1 (579679a)
C            3.48260912590854       -2.43832365322283       -3.24264611738483
O            3.45458640782160       -1.31521884635292       -2.38261884615454
C            2.27948066439308       -1.12241476996720       -1.70215262154053
O            1.35077044996850       -1.91566154672221       -1.87177702960443
C            2.25288835853280        0.02446309885867       -0.80406306296201
C            3.40235648137609        0.83725944005469       -0.56683327830115
O            4.49757783661941        0.78556924574425       -1.21039113688561
C            3.29031961809655        1.77570846706251        0.58572007942777
O            4.22875938216873        2.45419454591345        1.03289743777916
N            2.08459745362999        1.79526284961653        1.25149824850971
C            0.85234384291453        1.34348303593362        0.61862737767753
C            0.28846304150186        2.50023066282675       -0.25416565089477
C           -0.16877752586660        0.93753215100575        1.73773294206911
C           -0.65424389236010        2.13310077528912        2.56516398609600
C            0.49488916415807       -0.10795505978167        2.64819728555792
N           -1.29429451038440        0.33227444551534        1.02747851345848
C           -2.39249411908709       -0.18392442402789        1.64856509608841
O           -2.63441193416523       -0.05752112772625        2.86345035472139
C           -3.31291246235535       -0.86694830907101        0.75522830839442
N           -4.43728799567914       -1.48163444539871        1.08571072678370
N           -4.97057606231389       -1.96994918869611       -0.07492194559396
C           -4.16703409494411       -1.63966246678727       -1.03408396451364
C           -4.33051932040386       -1.93905028868652       -2.47730829157170
O           -3.09358709582577       -0.94501069408633       -0.59778838174855
N            1.04643878181980        0.17965271531924       -0.18918005282305
H            3.32709527452949       -3.36821237221042       -2.68353775930868
H            4.46400426948323       -2.45992699202138       -3.71705933042297
H            2.70684322234608       -2.36383482965870       -4.01322931155638
H            1.98766989294894        2.55476091859231        1.90734797156093
H            0.25341674642592        3.43014209264479        0.30974779128442
H           -0.71283127764087        2.25063595163713       -0.59985702111731
H            0.93508747822699        2.64096897291097       -1.11972651603539
H            0.19372253659765        2.70613115329250        2.93713578498583
H           -1.23469305283115        1.79189368450092        3.42177267891270
H           -1.28420160759370        2.78764941825636        1.96450918686002
H            1.34783731159843        0.33854523930848        3.15864684653211
H            0.84364016809072       -0.94754361665629        2.04430764234164
H           -0.21043474790329       -0.47077245811844        3.39447637493642
H           -1.05360638882288       -0.02942592563026        0.10594654224814
H           -5.31878326704210       -2.36048087499479       -2.64715982925028
H           -3.57707551339063       -2.65535554784733       -2.80920513604943
H           -4.21762964055778       -1.02909142664082       -3.06645789251534
 
 Bond Distances (Angstroems)
 ---------------------------
C1-O2=1.4148         C1-H26=1.0961        C1-H27=1.0903        C1-H28=1.0960        O2-C1=1.4148         O2-C3=1.3715         
C3-O2=1.3715         C3-O4=1.2331         C3-C5=1.4569         O4-C3=1.2331         C5-C3=1.4569         C5-C6=1.4277         
C5-N25=1.3630        C6-C5=1.4277         C6-O7=1.2714         C6-C8=1.4905         O7-C6=1.2714         C8-C6=1.4905         
C8-O9=1.2414         C8-N10=1.3775        O9-C8=1.2414         N10-C8=1.3775        N10-C11=1.4571       N10-H29=1.0082       
C11-N10=1.4571       C11-C12=1.5549       C11-C13=1.5684       C11-N25=1.4299       C12-C11=1.5549       C12-H30=1.0881       
C12-H31=1.0883       C12-H32=1.0896       C13-C11=1.5684       C13-C14=1.5329       C13-C15=1.5370       C13-N16=1.4620       
C14-C13=1.5329       C14-H33=1.0889       C14-H34=1.0896       C14-H35=1.0891       C15-C13=1.5370       C15-H36=1.0897       
C15-H37=1.0914       C15-H38=1.0891       N16-C13=1.4620       N16-C17=1.3632       N16-H39=1.0188       C17-N16=1.3632       
C17-O18=1.2452       C17-C19=1.4532       O18-C17=1.2452       C19-C17=1.4532       C19-N20=1.3234       C19-O24=1.3729       
N20-C19=1.3234       N20-N21=1.3674       N21-N20=1.3674       N21-C22=1.2941       C22-N21=1.2941       C22-C23=1.4830       
C22-O24=1.3510       C23-C22=1.4830       C23-H40=1.0877       C23-H41=1.0913       C23-H42=1.0899       O24-C19=1.3729       
O24-C22=1.3510       N25-C5=1.3630        N25-C11=1.4299       H26-C1=1.0961        H27-C1=1.0903        H28-C1=1.0960        
H29-N10=1.0082       H30-C12=1.0881       H31-C12=1.0883       H32-C12=1.0896       H33-C14=1.0889       H34-C14=1.0896       
H35-C14=1.0891       H36-C15=1.0897       H37-C15=1.0914       H38-C15=1.0891       H39-N16=1.0188       H40-C23=1.0877       
H41-C23=1.0913       H42-C23=1.0899       
 C  H  Rav=1.0903 sigma=0.0025  Rmin=1.0877  Rmax=1.0961    15
 C  C  Rav=1.5005 sigma=0.0469  Rmin=1.4277  Rmax=1.5684     9
 N  H  Rav=1.0135 sigma=0.0053  Rmin=1.0082  Rmax=1.0188     2
 N  C  Rav=1.3838 sigma=0.0572  Rmin=1.2941  Rmax=1.4620     8
 N  N  Rav=1.3674 sigma=0.0000  Rmin=1.3674  Rmax=1.3674     1
 O  C  Rav=1.3127 sigma=0.0677  Rmin=1.2331  Rmax=1.4148     8
 
 selected bond angles (degree)
 --------------------
H26-C1-O2=111.13               H27-C1-O2=107.34               H27-C1-H26=109.44              H28-C1-O2=111.06               
H28-C1-H26=108.41              H28-C1-H27=109.42              C3-O2-C1=115.48                O4-C3-O2=119.12                
C5-C3-O2=115.60                C5-C3-O4=125.27                C6-C5-C3=122.41                N25-C5-C3=112.57               
N25-C5-C6=124.95               O7-C6-C5=125.90                C8-C6-C5=115.24                C8-C6-O7=118.80                
O9-C8-C6=124.46                N10-C8-C6=116.65               N10-C8-O9=118.68               C11-N10-C8=121.73              
H29-N10-C8=114.16              H29-N10-C11=115.77             
 
 selected dihedral angles (degree)
 ---------------------------------
C3-O2-C1-H26=299.17           C3-O2-C1-H27=179.53           C3-O2-C1-H28= 59.96           O4-C3-O2-C1=  0.24            
C5-C3-O2-C1=179.32            C6-C5-C3-O2=355.42            C6-C5-C3-O4=174.44            N25-C5-C3-O2=178.28           
N25-C5-C3-O4=357.30           O7-C6-C5-C3=  9.78            O7-C6-C5-N25=186.55           C8-C6-C5-C3=192.65            
C8-C6-C5-N25=  9.42           O9-C8-C6-C5=171.93            O9-C8-C6-O7=354.59            N10-C8-C6-C5=357.37           
N10-C8-C6-O7=180.02           C11-N10-C8-C6=337.71          C11-N10-C8-O9=162.81          H29-N10-C8-C6=190.81          
H29-N10-C8-O9= 15.92          
           -------------------------------------------------
          |                Final Singlepoint                |
           -------------------------------------------------

          ...................................................
          :                      SETUP                      :
          :.................................................:
          :  # basis functions                 134          :
          :  # atomic orbitals                 134          :
          :  # shells                           84          :
          :  # electrons                       136          :
          :  # halogen bonds                     0          :
          :  max. iterations                   250          :
          :  Hamiltonian                  GFN1-xTB          :
          :  restarted?                      false          :
          :  GBSA solvation                   true          :
          :  PC potential                    false          :
          :  electronic temp.          300.0000000     K    :
          :  accuracy                    1.0000000          :
          :  -> integral cutoff          0.2500000E+02      :
          :  -> integral neglect         0.1000000E-07      :
          :  -> SCF convergence          0.1000000E-05 Eh   :
          :  -> wf. convergence          0.2000000E-04 e    :
          :  Broyden damping             0.4000000          :
          ...................................................

 iter      E             dE          RMSdq      gap      omega  full diag
   1    -84.3447062 -0.843447E+02  0.729E-06    0.08       0.0  T
   2    -84.3447062  0.126077E-08  0.104E-04    0.08     148.3  T
   3    -84.3447062 -0.126535E-08  0.409E-06    0.08    3772.3  T

   *** convergence criteria satisfied after 3 iterations ***

         #    Occupation            Energy/Eh            Energy/eV
      -------------------------------------------------------------
         1        2.0000           -0.8177716             -22.2527
       ...           ...                  ...                  ...
        62        2.0000           -0.4016993             -10.9308
        63        2.0000           -0.3964286             -10.7874
        64        2.0000           -0.3907135             -10.6319
        65        2.0000           -0.3785912             -10.3020
        66        2.0000           -0.3654207              -9.9436
        67        2.0000           -0.3345099              -9.1025
        68        1.6618           -0.2745505              -7.4709 (HOMO)
        69        0.3382           -0.2715258              -7.3886 (LUMO)
        70                         -0.2367737              -6.4429
        71                         -0.2213642              -6.0236
        72                         -0.1637907              -4.4570
        73                         -0.1515229              -4.1231
       ...                                ...                  ...
       134                          0.7378126              20.0769
      -------------------------------------------------------------
                  HL-Gap            0.0030247 Eh            0.0823 eV
             Fermi-level           -0.2730381 Eh           -7.4297 eV

 SCC (total)                   0 d,  0 h,  0 min,  0.102 sec
 SCC setup                      ...        0 min,  0.002 sec (  1.568%)
 Dispersion                     ...        0 min,  0.000 sec (  0.221%)
 classical contributions        ...        0 min,  0.000 sec (  0.078%)
 integral evaluation            ...        0 min,  0.024 sec ( 23.610%)
 iterations                     ...        0 min,  0.016 sec ( 15.809%)
 molecular gradient             ...        0 min,  0.059 sec ( 57.535%)
 printout                       ...        0 min,  0.001 sec (  1.159%)

         :::::::::::::::::::::::::::::::::::::::::::::::::::::
         ::                     SUMMARY                     ::
         :::::::::::::::::::::::::::::::::::::::::::::::::::::
         :: total energy             -83.624010408682 Eh    ::
         :: total w/o Gsasa/hb       -83.605685389404 Eh    ::
         :: gradient norm              0.000875332351 Eh/a0 ::
         :: HOMO-LUMO gap              0.082305164431 eV    ::
         ::.................................................::
         :: SCC energy               -84.344706210480 Eh    ::
         :: -> electrostatic           0.698865171251 Eh    ::
         :: -> Gsolv                  -0.268467954808 Eh    ::
         ::    -> Gelec               -0.250142935531 Eh    ::
         ::    -> Gsasa               -0.023732358664 Eh    ::
         ::    -> Ghb                 -0.002216939619 Eh    ::
         ::    -> Gshift               0.007624279005 Eh    ::
         :: repulsion energy           0.747904128184 Eh    ::
         :: dispersion energy         -0.027208326385 Eh    ::
         :: halogen bond corr.         0.000000000000 Eh    ::
         :: add. restraining           0.000000000000 Eh    ::
         :: total charge              -2.000000000000 e     ::
         :::::::::::::::::::::::::::::::::::::::::::::::::::::

           -------------------------------------------------
          |                Property Printout                |
           -------------------------------------------------

    * Orbital Energies and Occupations

         #    Occupation            Energy/Eh            Energy/eV
      -------------------------------------------------------------
         1        2.0000           -0.8177716             -22.2527
       ...           ...                  ...                  ...
        56        2.0000           -0.4407388             -11.9931
        57        2.0000           -0.4373113             -11.8998
        58        2.0000           -0.4195940             -11.4177
        59        2.0000           -0.4158598             -11.3161
        60        2.0000           -0.4134610             -11.2508
        61        2.0000           -0.4075050             -11.0888
        62        2.0000           -0.4016993             -10.9308
        63        2.0000           -0.3964286             -10.7874
        64        2.0000           -0.3907135             -10.6319
        65        2.0000           -0.3785912             -10.3020
        66        2.0000           -0.3654207              -9.9436
        67        2.0000           -0.3345099              -9.1025
        68        1.6618           -0.2745505              -7.4709 (HOMO)
        69        0.3382           -0.2715258              -7.3886 (LUMO)
        70                         -0.2367737              -6.4429
        71                         -0.2213642              -6.0236
        72                         -0.1637907              -4.4570
        73                         -0.1515229              -4.1231
        74                         -0.1279362              -3.4813
        75                         -0.1109445              -3.0190
        76                         -0.1047881              -2.8514
        77                         -0.0959223              -2.6102
        78                         -0.0842732              -2.2932
        79                         -0.0806894              -2.1957
       ...                                ...                  ...
       134                          0.7378126              20.0769
      -------------------------------------------------------------
                  HL-Gap            0.0030247 Eh            0.0823 eV
             Fermi-level           -0.2730381 Eh           -7.4297 eV

  Mulliken/CM5 charges         n(s)   n(p)   n(d)
     1C     0.17804  0.05944   0.966  2.856  0.000
     2O    -0.44087 -0.52284   1.691  4.750  0.000
     3C     0.52545  0.58892   0.986  2.489  0.000
     4O    -0.64432 -0.68753   1.741  4.904  0.000
     5C     0.01998  0.09804   1.048  2.932  0.000
     6C     0.22518  0.26796   1.025  2.750  0.000
     7O    -0.69826 -0.73412   1.759  4.940  0.000
     8C     0.41417  0.51434   1.014  2.572  0.000
     9O    -0.65865 -0.69570   1.745  4.913  0.000
    10N    -0.39064 -0.73830   1.445  3.946  0.000
    11C     0.26677  0.36963   1.043  2.690  0.000
    12C    -0.11358 -0.24881   1.022  3.092  0.000
    13C     0.15666  0.19644   1.068  2.775  0.000
    14C    -0.10332 -0.24417   1.014  3.089  0.000
    15C    -0.08931 -0.22666   1.013  3.077  0.000
    16N    -0.34703 -0.69573   1.437  3.910  0.000
    17C     0.41528  0.51956   0.973  2.612  0.000
    18O    -0.65269 -0.69579   1.740  4.912  0.000
    19C     0.29133  0.41005   1.007  2.701  0.000
    20N    -0.30085 -0.39902   1.579  3.722  0.000
    21N    -0.30282 -0.41059   1.570  3.733  0.000
    22C     0.36817  0.47683   0.997  2.635  0.000
    23C    -0.10805 -0.24518   1.009  3.099  0.000
    24O    -0.38700 -0.44095   1.704  4.683  0.000
    25N    -0.53514 -0.71577   1.557  3.978  0.000
    26H     0.02229  0.08389   0.978  0.000  0.000
    27H     0.02277  0.08296   0.977  0.000  0.000
    28H     0.02347  0.08520   0.977  0.000  0.000
    29H     0.21537  0.41699   0.785  0.000  0.000
    30H     0.01840  0.07533   0.982  0.000  0.000
    31H     0.02380  0.08321   0.976  0.000  0.000
    32H     0.02767  0.08625   0.972  0.000  0.000
    33H     0.02336  0.07987   0.977  0.000  0.000
    34H     0.03945  0.09948   0.961  0.000  0.000
    35H     0.02617  0.08342   0.974  0.000  0.000
    36H     0.01775  0.07635   0.982  0.000  0.000
    37H     0.02441  0.08561   0.976  0.000  0.000
    38H     0.02733  0.08662   0.973  0.000  0.000
    39H     0.22440  0.43551   0.776  0.000  0.000
    40H     0.05148  0.10736   0.949  0.000  0.000
    41H     0.06225  0.11620   0.938  0.000  0.000
    42H     0.06111  0.11568   0.939  0.000  0.000

Wiberg/Mayer (AO) data.
largest (>0.10) Wiberg bond orders for each atom

 ---------------------------------------------------------------------------
     #   Z sym  total        # sym  WBO       # sym  WBO       # sym  WBO
 ---------------------------------------------------------------------------
     1   6 C    3.912 --    27 H    0.987    26 H    0.980    28 H    0.980
                             2 O    0.939
     2   8 O    2.135 --     3 C    1.015     1 C    0.939     4 O    0.101
     3   6 C    3.815 --     4 O    1.549     5 C    1.114     2 O    1.015
     4   8 O    1.817 --     3 C    1.549     2 O    0.101
     5   6 C    3.909 --    25 N    1.273     6 C    1.232     3 C    1.114
     6   6 C    3.871 --     7 O    1.407     5 C    1.232     8 C    1.013
     7   8 O    1.652 --     6 C    1.407
     8   6 C    3.859 --     9 O    1.526    10 N    1.153     6 C    1.013
     9   8 O    1.790 --     8 C    1.526    10 N    0.127
    10   7 N    3.247 --     8 C    1.153    11 C    0.929    29 H    0.917
                             9 O    0.127
    11   6 C    3.941 --    25 N    1.027    12 C    0.961    13 C    0.944
                            10 N    0.929
    12   6 C    3.975 --    30 H    0.986    32 H    0.985    31 H    0.985
                            11 C    0.961
    13   6 C    3.934 --    14 C    0.999    15 C    0.991    11 C    0.944
                            16 N    0.937
    14   6 C    3.994 --    13 C    0.999    35 H    0.985    33 H    0.983
                            34 H    0.980
    15   6 C    3.992 --    13 C    0.991    36 H    0.985    38 H    0.985
                            37 H    0.982
    16   7 N    3.268 --    17 C    1.198    13 C    0.937    39 H    0.890
                            18 O    0.143
    17   6 C    3.824 --    18 O    1.467    16 N    1.198    19 C    1.079
    18   8 O    1.744 --    17 C    1.467    16 N    0.143
    19   6 C    3.735 --    20 N    1.477    17 C    1.079    24 O    0.996
    20   7 N    2.808 --    19 C    1.477    21 N    1.188
    21   7 N    2.979 --    22 C    1.625    20 N    1.188
    22   6 C    3.831 --    21 N    1.625    24 O    1.056    23 C    1.026
    23   6 C    3.993 --    22 C    1.026    40 H    0.985    42 H    0.972
                            41 H    0.967
    24   8 O    2.226 --    22 C    1.056    19 C    0.996
    25   7 N    2.663 --     5 C    1.273    11 C    1.027
    26   1 H    1.018 --     1 C    0.980
    27   1 H    1.018 --     1 C    0.987
    28   1 H    1.018 --     1 C    0.980
    29   1 H    0.970 --    10 N    0.917
    30   1 H    1.007 --    12 C    0.986
    31   1 H    1.013 --    12 C    0.985
    32   1 H    1.011 --    12 C    0.985
    33   1 H    1.005 --    14 C    0.983
    34   1 H    1.021 --    14 C    0.980
    35   1 H    1.008 --    14 C    0.985
    36   1 H    1.014 --    15 C    0.985
    37   1 H    1.023 --    15 C    0.982
    38   1 H    1.015 --    15 C    0.985
    39   1 H    0.988 --    16 N    0.890
    40   1 H    1.003 --    23 C    0.985
    41   1 H    0.999 --    23 C    0.967
    42   1 H    1.000 --    23 C    0.972
 ---------------------------------------------------------------------------

Topologies differ in total number of bonds
Writing topology from bond orders to xtbtopo.mol

 dipole moment from electron density (au)
     X       Y       Z   
  -4.6040  -0.0104  -1.9629  total (Debye):   12.721

           -------------------------------------------------
          |                Geometry Summary                 |
           -------------------------------------------------

      molecular mass/u    :      351.3152409
   center of mass at/Å    :        0.0941273      -0.0399444       0.0372543
  moments of inertia/u·Å² :        0.1608389E+04   0.3517376E+04   0.4722481E+04
rotational constants/cm⁻¹ :        0.1048106E-01   0.4792672E-02   0.3569656E-02

 * 35 selected distances

     #   Z          #   Z                                           value/Å
     1   6 C        2   8 O                                       1.4148487
     2   8 O        3   6 C                                       1.3715253
     3   6 C        4   8 O                                       1.2330920
     5   6 C        6   6 C                                       1.4276530
     8   6 C        9   8 O                                       1.2413623
     8   6 C       10   7 N                                       1.3774648
    10   7 N       11   6 C                                       1.4570792
    13   6 C       14   6 C                                       1.5328746
    13   6 C       15   6 C                                       1.5370240 (max)
    13   6 C       16   7 N                                       1.4620489
    16   7 N       17   6 C                                       1.3631774
    19   6 C       20   7 N                                       1.3233587
    21   7 N       22   6 C                                       1.2941256
    22   6 C       23   6 C                                       1.4829893
    19   6 C       24   8 O                                       1.3728991
    22   6 C       24   8 O                                       1.3509936
     5   6 C       25   7 N                                       1.3629695
    11   6 C       25   7 N                                       1.4299395
     1   6 C       26   1 H                                       1.0961204
     1   6 C       27   1 H                                       1.0902620
     1   6 C       28   1 H                                       1.0959745
    10   7 N       29   1 H                                       1.0081524 (min)
    12   6 C       30   1 H                                       1.0881002
    12   6 C       31   1 H                                       1.0882971
    12   6 C       32   1 H                                       1.0895532
    14   6 C       33   1 H                                       1.0889326
    14   6 C       34   1 H                                       1.0895514
    14   6 C       35   1 H                                       1.0890671
    15   6 C       36   1 H                                       1.0896981
    15   6 C       37   1 H                                       1.0914299
    15   6 C       38   1 H                                       1.0890597
    16   7 N       39   1 H                                       1.0188127
    23   6 C       40   1 H                                       1.0877128
    23   6 C       41   1 H                                       1.0912958
    23   6 C       42   1 H                                       1.0898930

 * 5 distinct bonds (by element types)

   Z      Z             #   av. dist./Å        max./Å        min./Å
   1 H    6 C          15     1.0903298     1.0961204     1.0877128
   6 C    6 C           4     1.4951352     1.5370240     1.4276530
   1 H    7 N           2     1.0134826     1.0188127     1.0081524
   6 C    7 N           8     1.3837705     1.4620489     1.2941256
   6 C    8 O           6     1.3307868     1.4148487     1.2330920


optimized geometry written to: xtbopt.xyz


           -------------------------------------------------
          | TOTAL ENERGY              -83.624010408682 Eh   |
          | GRADIENT NORM               0.000875332351 Eh/α |
          | HOMO-LUMO GAP               0.082305164431 eV   |
           -------------------------------------------------

------------------------------------------------------------------------
 * finished run on 2023/06/21 at 17:07:59.412     
------------------------------------------------------------------------
 total:
 * wall-time:     0 d,  0 h,  0 min,  4.998 sec
 *  cpu-time:     0 d,  0 h,  0 min,  4.938 sec
 * ratio c/w:     0.988 speedup
 SCF:
 * wall-time:     0 d,  0 h,  0 min,  0.190 sec
 *  cpu-time:     0 d,  0 h,  0 min,  0.189 sec
 * ratio c/w:     0.994 speedup
 ANC optimizer:
 * wall-time:     0 d,  0 h,  0 min,  4.733 sec
 *  cpu-time:     0 d,  0 h,  0 min,  4.711 sec
 * ratio c/w:     0.995 speedup

