38
 energy: -79.613340677429 gnorm: 0.000646231407 xtb: 6.5.1 (579679a)
C           -6.35343057914999        0.36137077771919        1.43082439006049
O           -4.94750156548321        0.25053456701913        1.66233327139430
C           -4.17571788415883        0.12907204618775        0.55747072519075
O           -4.66552706682733        0.10460355985053       -0.55255423682841
C           -2.72834550847697        0.04362958961687        0.84209171177009
N           -1.96281665851008       -0.05102522196230       -0.29036938906562
C           -0.65955192665624       -0.10555889056700       -0.13180309975422
C            0.15110500930955       -0.20864305850707       -1.42028503394150
C           -0.15287235473964       -1.55388433665492       -2.09500556233566
C           -0.21661170039499        0.95911144667367       -2.34469939723819
N            1.56458162245981       -0.13864981040343       -1.05477642897209
C            2.57607817519754       -0.18230013038442       -1.92324258354334
O            2.47539859495127       -0.28422467174948       -3.14108583234026
C            3.91416373549779       -0.08857496423151       -1.26979787752636
N            5.07402978676652       -0.08991150754073       -1.85214036620027
N            6.01110432137530        0.02302405269084       -0.86549823822034
C            5.36391760613016        0.08602876450875        0.25603103208650
C            5.92699577635866        0.21324967670496        1.61842364731911
O            4.03545540296238        0.02072232441201        0.07091932451944
N            0.01288205363114       -0.08862820453125        1.01136967215110
C           -0.66427832372576       -0.00735660224735        2.19222093053498
O           -0.08293183890077        0.00746892942785        3.28729165156173
C           -2.13330578973570        0.06451921607260        2.08249558273079
O           -2.79026909722269        0.15152883975342        3.26464084010619
H           -6.72339237699503       -0.52952190800052        0.91702333733834
H           -6.82720416740801        0.45602345744097        2.40518045565101
H           -6.56652629265439        1.24330997029890        0.82132824637386
H            0.35940084503487       -1.62969333101739       -3.05288058540312
H           -1.22741084042261       -1.63145051053125       -2.25697566459775
H            0.16828505074742       -2.37421450862746       -1.45402888112984
H           -1.29517888653825        0.95689032351111       -2.49880132947221
H            0.07213608756324        1.90386864701810       -1.88510100710521
H            0.28266150751210        0.86367581939523       -3.30756966478550
H            1.74427529841013       -0.06965078976186       -0.05463226575031
H            7.01036814255113        0.27120795995371        1.55996914261289
H            5.53970838422201        1.10955849865485        2.10166248555448
H            5.64119220441435       -0.64719236819829        2.22266316846310
H           -3.75086474710582        0.20514634799878        3.14730882879016
