      -----------------------------------------------------------      
     |                   =====================                   |     
     |                           x T B                           |     
     |                   =====================                   |     
     |                         S. Grimme                         |     
     |          Mulliken Center for Theoretical Chemistry        |     
     |                    University of Bonn                     |     
      -----------------------------------------------------------      

   * xtb version 6.5.1 (579679a) compiled by 'ehlert@majestix' on 2022-07-11

   xtb is free software: you can redistribute it and/or modify it under
   the terms of the GNU Lesser General Public License as published by
   the Free Software Foundation, either version 3 of the License, or
   (at your option) any later version.
   
   xtb is distributed in the hope that it will be useful,
   but WITHOUT ANY WARRANTY; without even the implied warranty of
   MERCHANTABILITY or FITNESS FOR A PARTICULAR PURPOSE.  See the
   GNU Lesser General Public License for more details.
   
   Cite this work as:
   * C. Bannwarth, E. Caldeweyher, S. Ehlert, A. Hansen, P. Pracht,
     J. Seibert, S. Spicher, S. Grimme, WIREs Comput. Mol. Sci., 2020, 11,
     e01493. DOI: 10.1002/wcms.1493
   
   for GFN2-xTB:
   * C. Bannwarth, S. Ehlert and S. Grimme., J. Chem. Theory Comput., 2019,
     15, 1652-1671. DOI: 10.1021/acs.jctc.8b01176
   for GFN1-xTB:
   * S. Grimme, C. Bannwarth, P. Shushkov, J. Chem. Theory Comput., 2017,
     13, 1989-2009. DOI: 10.1021/acs.jctc.7b00118
   for GFN0-xTB:
   * P. Pracht, E. Caldeweyher, S. Ehlert, S. Grimme, ChemRxiv, 2019, preprint.
     DOI: 10.26434/chemrxiv.8326202.v1
   for GFN-FF:
   * S. Spicher and S. Grimme, Angew. Chem. Int. Ed., 2020, 59, 15665-15673.
     DOI: 10.1002/anie.202004239
   
   for ALPB and GBSA implicit solvation:
   * S. Ehlert, M. Stahn, S. Spicher, S. Grimme, J. Chem. Theory Comput.,
     2021, 17, 4250-4261. DOI: 10.1021/acs.jctc.1c00471
   
   for DFT-D4:
   * E. Caldeweyher, C. Bannwarth and S. Grimme, J. Chem. Phys., 2017,
     147, 034112. DOI: 10.1063/1.4993215
   * E. Caldeweyher, S. Ehlert, A. Hansen, H. Neugebauer, S. Spicher,
     C. Bannwarth and S. Grimme, J. Chem. Phys., 2019, 150, 154122.
     DOI: 10.1063/1.5090222
   * E. Caldeweyher, J.-M. Mewes, S. Ehlert and S. Grimme, Phys. Chem. Chem. Phys.
     2020, 22, 8499-8512. DOI: 10.1039/D0CP00502A
   
   for sTDA-xTB:
   * S. Grimme and C. Bannwarth, J. Chem. Phys., 2016, 145, 054103.
     DOI: 10.1063/1.4959605
   
   in the mass-spec context:
   * V. Asgeirsson, C. Bauer and S. Grimme, Chem. Sci., 2017, 8, 4879.
     DOI: 10.1039/c7sc00601b
   * J. Koopman and S. Grimme, ACS Omega 2019, 4, 12, 15120-15133.
     DOI: 10.1021/acsomega.9b02011
   
   for metadynamics refer to:
   * S. Grimme, J. Chem. Theory Comput., 2019, 155, 2847-2862
     DOI: 10.1021/acs.jctc.9b00143
   
   for SPH calculations refer to:
   * S. Spicher and S. Grimme, J. Chem. Theory Comput., 2021, 17, 1701-1714
     DOI: 10.1021/acs.jctc.0c01306
   
   with help from (in alphabetical order)
   P. Atkinson, C. Bannwarth, F. Bohle, G. Brandenburg, E. Caldeweyher
   M. Checinski, S. Dohm, S. Ehlert, S. Ehrlich, I. Gerasimov, C. Hölzer
   A. Katbashev, J. Koopman, C. Lavigne, S. Lehtola, F. März, M. Müller,
   F. Musil, H. Neugebauer, J. Pisarek, C. Plett, P. Pracht, F. Pultar,
   J. Seibert, P. Shushkov, S. Spicher, M. Stahn, M. Steiner, T. Strunk,
   J. Stückrath, T. Rose, and J. Unsleber
   
 * started run on 2023/06/20 at 15:13:46.276     

           -------------------------------------------------
          |                Calculation Setup                |
           -------------------------------------------------

          program call               : /lustre/hpc/kemi/ree/PhD/git/ReactivityQM/dep/xtb-6.5.1/bin/xtb --gfn 1 /lustre/hpc/kemi/ree/PhD/git/ReactivityQM/calculations/R03/reac01prodE04/conf05/R03_reac01prodE04_conf05_gfn1.xyz --opt --vfukui --chrg -1 --uhf 0 --alpb DMSO
          hostname                   : node068
          coordinate file            : /lustre/hpc/kemi/ree/PhD/git/ReactivityQM/calculations/R03/reac01prodE04/conf05/R03_reac01prodE04_conf05_gfn1.xyz
          omp threads                :                     1

   ID    Z sym.   atoms
    1    6 C      1, 2, 4-7, 9, 10
    2    9 F      3
    3    7 N      8
    4    1 H      11-21

           -------------------------------------------------
          |                 G F N 1 - x T B                 |
           -------------------------------------------------

        Reference                      10.1021/acs.jctc.7b00118
      * Hamiltonian:
        H0-scaling (s, p, d)           1.850000    2.250000    2.000000
        zeta-weighting                 0.000000
      * Dispersion:
        s8                             2.400000
        a1                             0.630000
        a2                             5.000000
        s9                             0.000000
      * Repulsion:
        kExp                           1.500000
        rExp                           1.000000
      * Coulomb:
        alpha                          2.000000
        third order                    atomic
        anisotropic                    false
      * Halogen bond correction:
        rad-scale                      1.300000
        damping                        0.440000

      * Solvation model:               ALPB
        Solvent                        DMSO
        Parameter file                 internal GFN1-xTB/ALPB
        Dielectric constant                4.6680E+01
        Reference state                gsolv [1 M gas/solution]
        Free energy shift                  7.6243E-03 Eh       4.7843E+00 kcal/mol
        Temperature                        2.9815E+02 K
        Density                            1.1000E+00 kg/L
        Solvent mass                       7.8130E+01 g/mol
        Interaction kernel             P16
        Born radius scaling (c1)           1.7672E+00
        Born radii integrator          GBOBC
        Born offset                        0.0000E+00 a0       0.0000E+00 AA
        H-bond correction              true
        Ion screening                  false
        Surface tension                    1.0000E-05 Eh       1.5569E+01 dyn/cm
        Grid points                               230 per atom

          ...................................................
          :                      SETUP                      :
          :.................................................:
          :  # basis functions                  62          :
          :  # atomic orbitals                  62          :
          :  # shells                           42          :
          :  # electrons                        56          :
          :  # halogen bonds                     0          :
          :  max. iterations                   250          :
          :  Hamiltonian                  GFN1-xTB          :
          :  restarted?                      false          :
          :  GBSA solvation                   true          :
          :  PC potential                    false          :
          :  electronic temp.          300.0000000     K    :
          :  accuracy                    1.0000000          :
          :  -> integral cutoff          0.2500000E+02      :
          :  -> integral neglect         0.1000000E-07      :
          :  -> SCF convergence          0.1000000E-05 Eh   :
          :  -> wf. convergence          0.2000000E-04 e    :
          :  Broyden damping             0.4000000          :
          ...................................................

 iter      E             dE          RMSdq      gap      omega  full diag
   1    -31.8108205 -0.318108E+02  0.903E+00    2.82       0.0  T
   2    -31.8497671 -0.389467E-01  0.542E+00    2.84       1.0  T
   3    -31.8501207 -0.353541E-03  0.545E-01    2.79       1.0  T
   4    -31.8515804 -0.145977E-02  0.114E-01    2.82       1.0  T
   5    -31.8517014 -0.120976E-03  0.256E-02    2.82       1.0  T
   6    -31.8517099 -0.850668E-05  0.497E-03    2.82       4.4  T
   7    -31.8517101 -0.155484E-06  0.126E-03    2.82      17.4  T
   8    -31.8517101 -0.505120E-08  0.163E-04    2.82     134.1  T
   9    -31.8517101 -0.187736E-09  0.464E-05    2.82     470.1  T

   *** convergence criteria satisfied after 9 iterations ***

         #    Occupation            Energy/Eh            Energy/eV
      -------------------------------------------------------------
         1        2.0000           -0.7861946             -21.3934
       ...           ...                  ...                  ...
        22        2.0000           -0.4309032             -11.7255
        23        2.0000           -0.4120419             -11.2122
        24        2.0000           -0.4040751             -10.9954
        25        2.0000           -0.3894733             -10.5981
        26        2.0000           -0.3705148             -10.0822
        27        2.0000           -0.3664045              -9.9704
        28        2.0000           -0.2827000              -7.6927 (HOMO)
        29                         -0.1789512              -4.8695 (LUMO)
        30                         -0.1122293              -3.0539
        31                         -0.0911212              -2.4795
        32                         -0.0757622              -2.0616
        33                         -0.0686882              -1.8691
       ...                                ...                  ...
        62                          0.6646778              18.0868
      -------------------------------------------------------------
                  HL-Gap            0.1037488 Eh            2.8231 eV
             Fermi-level           -0.2308256 Eh           -6.2811 eV

 SCC (total)                   0 d,  0 h,  0 min,  0.033 sec
 SCC setup                      ...        0 min,  0.001 sec (  2.123%)
 Dispersion                     ...        0 min,  0.000 sec (  0.262%)
 classical contributions        ...        0 min,  0.000 sec (  0.100%)
 integral evaluation            ...        0 min,  0.008 sec ( 23.990%)
 iterations                     ...        0 min,  0.008 sec ( 23.462%)
 molecular gradient             ...        0 min,  0.016 sec ( 49.290%)
 printout                       ...        0 min,  0.000 sec (  0.721%)

         :::::::::::::::::::::::::::::::::::::::::::::::::::::
         ::                     SUMMARY                     ::
         :::::::::::::::::::::::::::::::::::::::::::::::::::::
         :: total energy             -31.469428041548 Eh    ::
         :: total w/o Gsasa/hb       -31.458581164208 Eh    ::
         :: gradient norm              0.082845419069 Eh/a0 ::
         :: HOMO-LUMO gap              2.823148584249 eV    ::
         ::.................................................::
         :: SCC energy               -31.851710092569 Eh    ::
         :: -> electrostatic           0.139886883364 Eh    ::
         :: -> Gsolv                  -0.084846191533 Eh    ::
         ::    -> Gelec               -0.073999314193 Eh    ::
         ::    -> Gsasa               -0.014245705429 Eh    ::
         ::    -> Ghb                 -0.004225450915 Eh    ::
         ::    -> Gshift               0.007624279005 Eh    ::
         :: repulsion energy           0.392121170261 Eh    ::
         :: dispersion energy         -0.009839119239 Eh    ::
         :: halogen bond corr.         0.000000000000 Eh    ::
         :: add. restraining           0.000000000000 Eh    ::
         :: total charge              -1.000000000000 e     ::
         :::::::::::::::::::::::::::::::::::::::::::::::::::::

      ----------------------------------------------------------- 
     |                   =====================                   |
     |                        A N C O P T                        |
     |                   =====================                   |
     |               Approximate Normal Coordinate               |
     |                Rational Function Optimizer                |
      ----------------------------------------------------------- 

          ...................................................
          :                      SETUP                      :
          :.................................................:
          :   optimization level            normal          :
          :   max. optcycles                   200          :
          :   ANC micro-cycles                  20          :
          :   degrees of freedom                57          :
          :.................................................:
          :   RF solver                   davidson          :
          :   write xtbopt.log                true          :
          :   linear?                        false          :
          :   energy convergence         0.5000000E-05 Eh   :
          :   grad. convergence          0.1000000E-02 Eh/α :
          :   maximium RF displ.         1.0000000          :
          :   Hlow (freq-cutoff)         0.1000000E-01      :
          :   Hmax (freq-cutoff)         5.0000000          :
          :   S6 in model hess.         20.0000000          :
          ...................................................

generating ANC from model Hessian ...
Using Lindh-Hessian (1995)
 Shifting diagonal of input Hessian by   8.207539439803962E-003
 Lowest  eigenvalues of input Hessian
    0.000000    0.000000    0.000000    0.000000    0.000000    0.000000
    0.010000    0.011268    0.015159    0.016377    0.016752    0.019710
    0.022413    0.024764    0.028029    0.032786    0.045605    0.047268
 Highest eigenvalues
    1.392430    1.428556    1.511044    1.726905    1.902109    1.966655
 

........................................................................
.............................. CYCLE    1 ..............................
........................................................................
   1    -31.8517101 -0.318517E+02  0.868E-06    2.82       0.0  T
   2    -31.8517101 -0.415668E-12  0.466E-06    2.82    4685.4  T
   3    -31.8517101 -0.355271E-13  0.184E-06    2.82   11842.6  T
     SCC iter.                  ...        0 min,  0.003 sec
     gradient                   ...        0 min,  0.017 sec
 * total energy  :   -31.4694280 Eh     change       -0.1928058E-10 Eh
   gradient norm :     0.0828471 Eh/α   predicted     0.0000000E+00 (-100.00%)
   displ. norm   :     0.2374661 α      lambda       -0.8866135E-02
   maximum displ.:     0.1020490 α      in ANC's #21, #3, #11, ...

........................................................................
.............................. CYCLE    2 ..............................
........................................................................
   1    -31.8499822 -0.318500E+02  0.837E-02    2.81       0.0  T
   2    -31.8501053 -0.123054E-03  0.353E-02    2.81       1.0  T
   3    -31.8501166 -0.113486E-04  0.134E-02    2.81       1.6  T
   4    -31.8501177 -0.104779E-05  0.611E-03    2.81       3.6  T
   5    -31.8501177 -0.186261E-07  0.115E-03    2.81      18.9  T
   6    -31.8501177 -0.889587E-08  0.245E-04    2.81      89.2  T
   7    -31.8501177 -0.277598E-09  0.514E-05    2.81     424.4  T
   8    -31.8501177 -0.108429E-10  0.158E-05    2.81    1383.9  T
     SCC iter.                  ...        0 min,  0.006 sec
     gradient                   ...        0 min,  0.017 sec
 * total energy  :   -31.4755020 Eh     change       -0.6073971E-02 Eh
   gradient norm :     0.0493545 Eh/α   predicted    -0.4684168E-02 ( -22.88%)
   displ. norm   :     0.2361099 α      lambda       -0.4478471E-02
   maximum displ.:     0.1450718 α      in ANC's #3, #13, #7, ...

........................................................................
.............................. CYCLE    3 ..............................
........................................................................
   1    -31.8503316 -0.318503E+02  0.105E-01    2.84       0.0  T
   2    -31.8505855 -0.253924E-03  0.417E-02    2.84       1.0  T
   3    -31.8506081 -0.226261E-04  0.156E-02    2.83       1.4  T
   4    -31.8506104 -0.227220E-05  0.799E-03    2.83       2.7  T
   5    -31.8506104 -0.493180E-07  0.163E-03    2.83      13.4  T
   6    -31.8506104 -0.114558E-07  0.186E-04    2.83     117.5  T
   7    -31.8506104 -0.170520E-09  0.492E-05    2.83     443.6  T
     SCC iter.                  ...        0 min,  0.006 sec
     gradient                   ...        0 min,  0.017 sec
 * total energy  :   -31.4786056 Eh     change       -0.3103565E-02 Eh
   gradient norm :     0.0288200 Eh/α   predicted    -0.2364088E-02 ( -23.83%)
   displ. norm   :     0.2548256 α      lambda       -0.2466679E-02
   maximum displ.:     0.1980809 α      in ANC's #3, #1, #13, ...

........................................................................
.............................. CYCLE    4 ..............................
........................................................................
   1    -31.8533078 -0.318533E+02  0.119E-01    2.91       0.0  T
   2    -31.8536650 -0.357223E-03  0.455E-02    2.89       1.0  T
   3    -31.8536950 -0.299801E-04  0.152E-02    2.89       1.4  T
   4    -31.8536981 -0.317767E-05  0.803E-03    2.89       2.7  T
   5    -31.8536982 -0.972141E-07  0.200E-03    2.89      10.9  T
   6    -31.8536983 -0.866569E-08  0.258E-04    2.89      84.4  T
   7    -31.8536983 -0.280195E-09  0.487E-05    2.89     448.2  T
   8    -31.8536983 -0.135643E-10  0.189E-05    2.89    1152.8  T
     SCC iter.                  ...        0 min,  0.006 sec
     gradient                   ...        0 min,  0.017 sec
 * total energy  :   -31.4805273 Eh     change       -0.1921743E-02 Eh
   gradient norm :     0.0233868 Eh/α   predicted    -0.1313453E-02 ( -31.65%)
   displ. norm   :     0.3941311 α      lambda       -0.2896548E-02
   maximum displ.:     0.3113956 α      in ANC's #3, #1, #52, ...

........................................................................
.............................. CYCLE    5 ..............................
........................................................................
   1    -31.8581379 -0.318581E+02  0.235E-01    3.05       0.0  T
   2    -31.8594468 -0.130893E-02  0.804E-02    3.00       1.0  T
   3    -31.8595511 -0.104300E-03  0.246E-02    2.99       1.0  T
   4    -31.8595620 -0.109025E-04  0.124E-02    2.98       1.8  T
   5    -31.8595624 -0.349303E-06  0.413E-03    2.98       5.3  T
   6    -31.8595624 -0.115989E-07  0.685E-04    2.98      31.8  T
   7    -31.8595624 -0.143045E-08  0.104E-04    2.98     210.2  T
   8    -31.8595624 -0.646061E-10  0.332E-05    2.98     656.4  T
     SCC iter.                  ...        0 min,  0.006 sec
     gradient                   ...        0 min,  0.017 sec
 * total energy  :   -31.4830552 Eh     change       -0.2527858E-02 Eh
   gradient norm :     0.0240733 Eh/α   predicted    -0.1673276E-02 ( -33.81%)
   displ. norm   :     0.6795798 α      lambda       -0.5540628E-02
   maximum displ.:     0.5043492 α      in ANC's #3, #1, #52, ...

........................................................................
.............................. CYCLE    6 ..............................
........................................................................
   1    -31.8638706 -0.318639E+02  0.673E-01    3.45       0.0  T
   2    -31.8720331 -0.816251E-02  0.207E-01    3.21       1.0  T
   3    -31.8728726 -0.839522E-03  0.633E-02    3.18       1.0  T
   4    -31.8729456 -0.730345E-04  0.244E-02    3.15       1.0  T
   5    -31.8729478 -0.218892E-05  0.118E-02    3.15       1.8  T
   6    -31.8729479 -0.982305E-07  0.281E-03    3.15       7.8  T
   7    -31.8729479 -0.954931E-08  0.513E-04    3.15      42.5  T
   8    -31.8729479 -0.822237E-09  0.792E-05    3.15     275.4  T
   9    -31.8729479 -0.266986E-10  0.260E-05    3.15     840.8  T
     SCC iter.                  ...        0 min,  0.007 sec
     gradient                   ...        0 min,  0.017 sec
 * total energy  :   -31.4885840 Eh     change       -0.5528870E-02 Eh
   gradient norm :     0.0331375 Eh/α   predicted    -0.4049726E-02 ( -26.75%)
   displ. norm   :     0.7998152 α      lambda       -0.9892243E-02
   maximum displ.:     0.4855600 α      in ANC's #3, #52, #1, ...

........................................................................
.............................. CYCLE    7 ..............................
........................................................................
   1    -31.8863211 -0.318863E+02  0.893E-01    3.89       0.0  T
   2    -31.8956733 -0.935219E-02  0.303E-01    3.29       1.0  T
   3    -31.8967276 -0.105425E-02  0.129E-01    3.10       1.0  T
   4    -31.8968821 -0.154585E-03  0.281E-02    2.94       1.0  T
   5    -31.8968875 -0.539255E-05  0.125E-02    2.92       1.7  T
   6    -31.8968879 -0.338821E-06  0.399E-03    2.92       5.5  T
   7    -31.8968879 -0.116694E-07  0.115E-03    2.92      19.0  T
   8    -31.8968879 -0.175623E-08  0.140E-04    2.92     156.1  T
   9    -31.8968879 -0.873186E-10  0.348E-05    2.92     626.3  T
     SCC iter.                  ...        0 min,  0.007 sec
     gradient                   ...        0 min,  0.017 sec
 * total energy  :   -31.4951524 Eh     change       -0.6568335E-02 Eh
   gradient norm :     0.0584776 Eh/α   predicted    -0.8110163E-02 (  23.47%)
   displ. norm   :     0.3205701 α      lambda       -0.5545430E-02
   maximum displ.:     0.1614694 α      in ANC's #52, #53, #21, ...

........................................................................
.............................. CYCLE    8 ..............................
........................................................................
   1    -31.9116280 -0.319116E+02  0.277E-01    3.16       0.0  T
   2    -31.9125236 -0.895637E-03  0.108E-01    2.92       1.0  T
   3    -31.9126218 -0.982229E-04  0.513E-02    2.84       1.0  T
   4    -31.9126368 -0.149439E-04  0.833E-03    2.76       2.6  T
   5    -31.9126372 -0.446710E-06  0.332E-03    2.76       6.6  T
   6    -31.9126372 -0.210449E-07  0.896E-04    2.76      24.3  T
   7    -31.9126372 -0.127433E-08  0.206E-04    2.76     105.7  T
   8    -31.9126372 -0.499512E-10  0.422E-05    2.76     516.8  T
   9    -31.9126372 -0.505551E-11  0.790E-06    2.76    2762.4  T
     SCC iter.                  ...        0 min,  0.007 sec
     gradient                   ...        0 min,  0.017 sec
 * total energy  :   -31.4982481 Eh     change       -0.3095706E-02 Eh
   gradient norm :     0.0351579 Eh/α   predicted    -0.3057652E-02 (  -1.23%)
   displ. norm   :     0.7075051 α      lambda       -0.6923768E-02
   maximum displ.:     0.4015967 α      in ANC's #3, #1, #52, ...

........................................................................
.............................. CYCLE    9 ..............................
........................................................................
   1    -31.8947295 -0.318947E+02  0.252E-01    2.79       0.0  T
   2    -31.8956507 -0.921211E-03  0.968E-02    2.66       1.0  T
   3    -31.8957446 -0.938634E-04  0.475E-02    2.61       1.0  T
   4    -31.8957493 -0.470500E-05  0.887E-03    2.54       2.5  T
   5    -31.8957497 -0.439406E-06  0.202E-03    2.53      10.8  T
   6    -31.8957497 -0.149128E-07  0.627E-04    2.53      34.8  T
   7    -31.8957497 -0.392806E-09  0.129E-04    2.53     168.5  T
   8    -31.8957497 -0.419966E-10  0.228E-05    2.53     958.1  T
     SCC iter.                  ...        0 min,  0.006 sec
     gradient                   ...        0 min,  0.017 sec
 * total energy  :   -31.5012248 Eh     change       -0.2976683E-02 Eh
   gradient norm :     0.0337785 Eh/α   predicted    -0.5194773E-02 (  74.52%)
   displ. norm   :     0.2066121 α      lambda       -0.3122652E-02
   maximum displ.:     0.0814218 α      in ANC's #11, #7, #1, ...

........................................................................
.............................. CYCLE   10 ..............................
........................................................................
   1    -31.9034160 -0.319034E+02  0.561E-02    2.52       0.0  T
   2    -31.9034399 -0.238701E-04  0.255E-02    2.50       1.0  T
   3    -31.9034420 -0.210730E-05  0.133E-02    2.49       1.6  T
   4    -31.9034427 -0.696147E-06  0.193E-03    2.48      11.3  T
   5    -31.9034427 -0.918352E-08  0.417E-04    2.47      52.4  T
   6    -31.9034427 -0.343306E-09  0.120E-04    2.48     182.2  T
   7    -31.9034427 -0.367741E-10  0.250E-05    2.48     872.5  T
     SCC iter.                  ...        0 min,  0.006 sec
     gradient                   ...        0 min,  0.017 sec
 * total energy  :   -31.5033466 Eh     change       -0.2121867E-02 Eh
   gradient norm :     0.0170707 Eh/α   predicted    -0.1627978E-02 ( -23.28%)
   displ. norm   :     0.3866764 α      lambda       -0.2300718E-02
   maximum displ.:     0.2820061 α      in ANC's #1, #52, #7, ...

........................................................................
.............................. CYCLE   11 ..............................
........................................................................
   1    -31.9112182 -0.319112E+02  0.644E-02    2.46       0.0  T
   2    -31.9112907 -0.724660E-04  0.242E-02    2.43       1.0  T
   3    -31.9112975 -0.677345E-05  0.121E-02    2.43       1.8  T
   4    -31.9112977 -0.224576E-06  0.186E-03    2.41      11.7  T
   5    -31.9112977 -0.742171E-08  0.608E-04    2.41      35.9  T
   6    -31.9112977 -0.126641E-08  0.113E-04    2.41     192.8  T
   7    -31.9112977 -0.178666E-10  0.349E-05    2.41     624.9  T
     SCC iter.                  ...        0 min,  0.006 sec
     gradient                   ...        0 min,  0.017 sec
 * total energy  :   -31.5050046 Eh     change       -0.1657946E-02 Eh
   gradient norm :     0.0131094 Eh/α   predicted    -0.1322370E-02 ( -20.24%)
   displ. norm   :     0.5474000 α      lambda       -0.2062896E-02
   maximum displ.:     0.4134602 α      in ANC's #1, #52, #6, ...

........................................................................
.............................. CYCLE   12 ..............................
........................................................................
   1    -31.9085687 -0.319086E+02  0.723E-02    2.40       0.0  T
   2    -31.9086840 -0.115315E-03  0.275E-02    2.38       1.0  T
   3    -31.9086944 -0.103498E-04  0.113E-02    2.38       1.9  T
   4    -31.9086945 -0.109807E-06  0.254E-03    2.37       8.6  T
   5    -31.9086945 -0.126826E-07  0.718E-04    2.37      30.4  T
   6    -31.9086945 -0.151995E-08  0.104E-04    2.37     210.8  T
   7    -31.9086945 -0.259135E-10  0.308E-05    2.37     709.3  T
     SCC iter.                  ...        0 min,  0.006 sec
     gradient                   ...        0 min,  0.017 sec
 * total energy  :   -31.5064195 Eh     change       -0.1414953E-02 Eh
   gradient norm :     0.0145805 Eh/α   predicted    -0.1340518E-02 (  -5.26%)
   displ. norm   :     0.5334137 α      lambda       -0.1606447E-02
   maximum displ.:     0.4367966 α      in ANC's #1, #52, #13, ...

........................................................................
.............................. CYCLE   13 ..............................
........................................................................
   1    -31.9101626 -0.319102E+02  0.571E-02    2.34       0.0  T
   2    -31.9102354 -0.728227E-04  0.211E-02    2.34       1.0  T
   3    -31.9102419 -0.640557E-05  0.841E-03    2.34       2.6  T
   4    -31.9102419 -0.671077E-07  0.213E-03    2.33      10.2  T
   5    -31.9102419 -0.818382E-08  0.686E-04    2.33      31.8  T
   6    -31.9102419 -0.119487E-08  0.574E-05    2.33     379.9  T
   7    -31.9102419 -0.967049E-11  0.193E-05    2.33    1130.4  T
     SCC iter.                  ...        0 min,  0.006 sec
     gradient                   ...        0 min,  0.017 sec
 * total energy  :   -31.5074531 Eh     change       -0.1033588E-02 Eh
   gradient norm :     0.0141404 Eh/α   predicted    -0.1031769E-02 (  -0.18%)
   displ. norm   :     0.4147727 α      lambda       -0.9605188E-03
   maximum displ.:     0.2984895 α      in ANC's #1, #52, #7, ...

........................................................................
.............................. CYCLE   14 ..............................
........................................................................
   1    -31.9112747 -0.319113E+02  0.335E-02    2.31       0.0  T
   2    -31.9112993 -0.246053E-04  0.130E-02    2.31       1.7  T
   3    -31.9113015 -0.221858E-05  0.573E-03    2.31       3.8  T
   4    -31.9113016 -0.372600E-07  0.117E-03    2.31      18.6  T
   5    -31.9113016 -0.337412E-08  0.330E-04    2.31      66.1  T
   6    -31.9113016 -0.236419E-09  0.855E-05    2.31     255.1  T
   7    -31.9113016 -0.141505E-10  0.166E-05    2.31    1314.5  T
     SCC iter.                  ...        0 min,  0.006 sec
     gradient                   ...        0 min,  0.017 sec
 * total energy  :   -31.5081258 Eh     change       -0.6726482E-03 Eh
   gradient norm :     0.0091238 Eh/α   predicted    -0.5628867E-03 ( -16.32%)
   displ. norm   :     0.3736614 α      lambda       -0.5282159E-03
   maximum displ.:     0.2770870 α      in ANC's #1, #17, #52, ...

........................................................................
.............................. CYCLE   15 ..............................
........................................................................
   1    -31.9120049 -0.319120E+02  0.251E-02    2.29       0.0  T
   2    -31.9120201 -0.152427E-04  0.780E-03    2.29       2.8  T
   3    -31.9120214 -0.127768E-05  0.239E-03    2.29       9.1  T
   4    -31.9120214 -0.188201E-07  0.691E-04    2.29      31.6  T
   5    -31.9120214 -0.485471E-09  0.250E-04    2.29      87.4  T
   6    -31.9120214 -0.115069E-09  0.517E-05    2.29     422.0  T
   7    -31.9120214 -0.355627E-11  0.114E-05    2.29    1917.2  T
     SCC iter.                  ...        0 min,  0.006 sec
     gradient                   ...        0 min,  0.016 sec
 * total energy  :   -31.5084601 Eh     change       -0.3343453E-03 Eh
   gradient norm :     0.0076810 Eh/α   predicted    -0.3009912E-03 (  -9.98%)
   displ. norm   :     0.2300506 α      lambda       -0.2530011E-03
   maximum displ.:     0.1616672 α      in ANC's #1, #3, #17, ...

........................................................................
.............................. CYCLE   16 ..............................
........................................................................
   1    -31.9128263 -0.319128E+02  0.109E-02    2.28       0.0  T
   2    -31.9128284 -0.212756E-05  0.418E-03    2.28       5.2  T
   3    -31.9128285 -0.113064E-06  0.248E-03    2.28       8.8  T
   4    -31.9128285 -0.749844E-08  0.826E-04    2.28      26.4  T
   5    -31.9128285 -0.189181E-08  0.136E-04    2.28     160.5  T
   6    -31.9128285 -0.949996E-10  0.497E-05    2.28     439.0  T
     SCC iter.                  ...        0 min,  0.005 sec
     gradient                   ...        0 min,  0.017 sec
 * total energy  :   -31.5085997 Eh     change       -0.1395878E-03 Eh
   gradient norm :     0.0077502 Eh/α   predicted    -0.1331962E-03 (  -4.58%)
   displ. norm   :     0.2562388 α      lambda       -0.2217071E-03
   maximum displ.:     0.1939930 α      in ANC's #1, #17, #52, ...

........................................................................
.............................. CYCLE   17 ..............................
........................................................................
   1    -31.9124056 -0.319124E+02  0.157E-02    2.26       0.0  T
   2    -31.9124108 -0.511578E-05  0.513E-03    2.27       4.3  T
   3    -31.9124112 -0.416043E-06  0.236E-03    2.27       9.2  T
   4    -31.9124112 -0.921710E-08  0.689E-04    2.27      31.7  T
   5    -31.9124112 -0.459842E-09  0.167E-04    2.27     130.6  T
   6    -31.9124112 -0.910383E-10  0.365E-05    2.27     597.2  T
     SCC iter.                  ...        0 min,  0.005 sec
     gradient                   ...        0 min,  0.017 sec
 * total energy  :   -31.5087065 Eh     change       -0.1068050E-03 Eh
   gradient norm :     0.0061030 Eh/α   predicted    -0.1181322E-03 (  10.61%)
   displ. norm   :     0.0914695 α      lambda       -0.1810218E-03
   maximum displ.:     0.0472569 α      in ANC's #3, #17, #1, ...

........................................................................
.............................. CYCLE   18 ..............................
........................................................................
   1    -31.9144142 -0.319144E+02  0.907E-03    2.27       0.0  T
   2    -31.9144147 -0.466750E-06  0.444E-03    2.27       4.9  T
   3    -31.9144147 -0.158285E-07  0.203E-03    2.28      10.7  T
   4    -31.9144147 -0.387317E-08  0.335E-04    2.28      65.1  T
   5    -31.9144147 -0.129910E-08  0.925E-05    2.28     235.8  T
   6    -31.9144147 -0.435740E-10  0.313E-05    2.28     697.0  T
     SCC iter.                  ...        0 min,  0.005 sec
     gradient                   ...        0 min,  0.017 sec
 * total energy  :   -31.5088226 Eh     change       -0.1160742E-03 Eh
   gradient norm :     0.0054644 Eh/α   predicted    -0.9127315E-04 ( -21.37%)
   displ. norm   :     0.1429012 α      lambda       -0.2043674E-03
   maximum displ.:     0.0690417 α      in ANC's #3, #17, #13, ...

........................................................................
.............................. CYCLE   19 ..............................
........................................................................
   1    -31.9139160 -0.319139E+02  0.131E-02    2.28       0.0  T
   2    -31.9139176 -0.157325E-05  0.554E-03    2.29       3.9  T
   3    -31.9139177 -0.100898E-06  0.275E-03    2.29       7.9  T
   4    -31.9139177 -0.170219E-07  0.672E-04    2.29      32.5  T
   5    -31.9139177 -0.112220E-08  0.143E-04    2.29     152.5  T
   6    -31.9139177 -0.935998E-10  0.411E-05    2.29     530.7  T
     SCC iter.                  ...        0 min,  0.005 sec
     gradient                   ...        0 min,  0.017 sec
 * total energy  :   -31.5089772 Eh     change       -0.1546373E-03 Eh
   gradient norm :     0.0070099 Eh/α   predicted    -0.1042749E-03 ( -32.57%)
   displ. norm   :     0.2604893 α      lambda       -0.3226939E-03
   maximum displ.:     0.0980427 α      in ANC's #3, #17, #12, ...

........................................................................
.............................. CYCLE   20 ..............................
........................................................................
   1    -31.9134701 -0.319135E+02  0.268E-02    2.29       0.0  T
   2    -31.9134766 -0.642013E-05  0.121E-02    2.31       1.8  T
   3    -31.9134770 -0.459737E-06  0.592E-03    2.32       3.7  T
   4    -31.9134771 -0.917132E-07  0.121E-03    2.32      18.1  T
   5    -31.9134771 -0.373455E-08  0.332E-04    2.33      65.8  T
   6    -31.9134771 -0.376652E-09  0.801E-05    2.33     272.3  T
   7    -31.9134771 -0.243396E-10  0.149E-05    2.33    1469.4  T
     SCC iter.                  ...        0 min,  0.006 sec
     gradient                   ...        0 min,  0.017 sec
 * total energy  :   -31.5091599 Eh     change       -0.1827224E-03 Eh
   gradient norm :     0.0091360 Eh/α   predicted    -0.1723117E-03 (  -5.70%)
   displ. norm   :     0.0962071 α      lambda       -0.1517752E-03
   maximum displ.:     0.0482248 α      in ANC's #17, #13, #12, ...
 * RMSD in coord.:     1.1306868 α      energy gain  -0.3973191E-01 Eh

generating ANC from model Hessian ...
Using Lindh-Hessian (1995)
 Shifting diagonal of input Hessian by   1.011214006509401E-002
 Lowest  eigenvalues of input Hessian
    0.010000    0.000000    0.000000    0.000000    0.000000    0.000000
    0.000000    0.010119    0.011815    0.013627    0.014290    0.018245
    0.019119    0.019361    0.025383    0.025752    0.027535    0.034049
 Highest eigenvalues
    1.408888    1.541323    1.597319    1.869058    1.942145    1.993511
 

........................................................................
.............................. CYCLE   21 ..............................
........................................................................
   1    -31.9127862 -0.319128E+02  0.774E-03    2.32       0.0  T
   2    -31.9127864 -0.200429E-06  0.400E-03    2.33       5.5  T
   3    -31.9127865 -0.213222E-07  0.111E-03    2.33      19.7  T
   4    -31.9127865 -0.150662E-08  0.273E-04    2.33      79.8  T
   5    -31.9127865 -0.293007E-09  0.730E-05    2.33     299.1  T
   6    -31.9127865 -0.265601E-10  0.212E-05    2.33    1027.3  T
     SCC iter.                  ...        0 min,  0.005 sec
     gradient                   ...        0 min,  0.017 sec
 * total energy  :   -31.5092601 Eh     change       -0.1001646E-03 Eh
   gradient norm :     0.0062707 Eh/α   predicted     0.0000000E+00 (-100.00%)
   displ. norm   :     0.0971509 α      lambda       -0.2145451E-03
   maximum displ.:     0.0687784 α      in ANC's #1, #6, #8, ...

........................................................................
.............................. CYCLE   22 ..............................
........................................................................
   1    -31.9138129 -0.319138E+02  0.911E-03    2.33       0.0  T
   2    -31.9138136 -0.625582E-06  0.407E-03    2.33       5.4  T
   3    -31.9138136 -0.328696E-07  0.189E-03    2.33      11.6  T
   4    -31.9138136 -0.702286E-08  0.512E-04    2.33      42.6  T
   5    -31.9138136 -0.653220E-09  0.130E-04    2.33     168.4  T
   6    -31.9138136 -0.973799E-10  0.229E-05    2.33     952.3  T
     SCC iter.                  ...        0 min,  0.005 sec
     gradient                   ...        0 min,  0.017 sec
 * total energy  :   -31.5094301 Eh     change       -0.1699875E-03 Eh
   gradient norm :     0.0028520 Eh/α   predicted    -0.1083017E-03 ( -36.29%)
   displ. norm   :     0.1772905 α      lambda       -0.2156391E-03
   maximum displ.:     0.1347218 α      in ANC's #1, #6, #2, ...

........................................................................
.............................. CYCLE   23 ..............................
........................................................................
   1    -31.9141783 -0.319142E+02  0.148E-02    2.32       0.0  T
   2    -31.9141804 -0.217712E-05  0.642E-03    2.33       3.4  T
   3    -31.9141806 -0.128731E-06  0.323E-03    2.33       6.8  T
   4    -31.9141806 -0.193532E-07  0.827E-04    2.33      26.4  T
   5    -31.9141806 -0.178122E-08  0.219E-04    2.33      99.6  T
   6    -31.9141806 -0.228404E-09  0.398E-05    2.33     548.8  T
   7    -31.9141806 -0.553868E-11  0.940E-06    2.33    2322.7  T
     SCC iter.                  ...        0 min,  0.006 sec
     gradient                   ...        0 min,  0.017 sec
 * total energy  :   -31.5095749 Eh     change       -0.1447866E-03 Eh
   gradient norm :     0.0019974 Eh/α   predicted    -0.1112138E-03 ( -23.19%)
   displ. norm   :     0.1710262 α      lambda       -0.7035154E-04
   maximum displ.:     0.1474335 α      in ANC's #1, #2, #6, ...

........................................................................
.............................. CYCLE   24 ..............................
........................................................................
   1    -31.9140128 -0.319140E+02  0.118E-02    2.32       0.0  T
   2    -31.9140151 -0.230089E-05  0.448E-03    2.32       4.9  T
   3    -31.9140153 -0.156953E-06  0.218E-03    2.33      10.0  T
   4    -31.9140153 -0.998483E-08  0.617E-04    2.33      35.3  T
   5    -31.9140153 -0.714266E-09  0.195E-04    2.33     112.0  T
   6    -31.9140153 -0.107971E-09  0.324E-05    2.33     673.7  T
     SCC iter.                  ...        0 min,  0.005 sec
     gradient                   ...        0 min,  0.017 sec
 * total energy  :   -31.5096614 Eh     change       -0.8648727E-04 Eh
   gradient norm :     0.0027560 Eh/α   predicted    -0.3571759E-04 ( -58.70%)
   displ. norm   :     0.0879820 α      lambda       -0.6359653E-04
   maximum displ.:     0.0758221 α      in ANC's #1, #2, #4, ...

........................................................................
.............................. CYCLE   25 ..............................
........................................................................
   1    -31.9139645 -0.319140E+02  0.534E-03    2.32       0.0  T
   2    -31.9139651 -0.606311E-06  0.188E-03    2.33      11.6  T
   3    -31.9139651 -0.430563E-07  0.827E-04    2.33      26.4  T
   4    -31.9139651 -0.189370E-08  0.224E-04    2.33      97.3  T
   5    -31.9139651 -0.893756E-10  0.679E-05    2.33     321.6  T
   6    -31.9139651 -0.116565E-10  0.158E-05    2.33    1380.0  T
     SCC iter.                  ...        0 min,  0.005 sec
     gradient                   ...        0 min,  0.017 sec
 * total energy  :   -31.5097222 Eh     change       -0.6079390E-04 Eh
   gradient norm :     0.0020940 Eh/α   predicted    -0.3204752E-04 ( -47.28%)
   displ. norm   :     0.1330949 α      lambda       -0.9812852E-04
   maximum displ.:     0.1067258 α      in ANC's #1, #2, #4, ...

........................................................................
.............................. CYCLE   26 ..............................
........................................................................
   1    -31.9138795 -0.319139E+02  0.806E-03    2.32       0.0  T
   2    -31.9138807 -0.115744E-05  0.314E-03    2.32       6.9  T
   3    -31.9138808 -0.803694E-07  0.156E-03    2.32      14.0  T
   4    -31.9138808 -0.498829E-08  0.377E-04    2.33      57.9  T
   5    -31.9138808 -0.261128E-09  0.110E-04    2.33     199.0  T
   6    -31.9138808 -0.397833E-10  0.267E-05    2.33     815.8  T
     SCC iter.                  ...        0 min,  0.005 sec
     gradient                   ...        0 min,  0.017 sec
 * total energy  :   -31.5098128 Eh     change       -0.9059267E-04 Eh
   gradient norm :     0.0013837 Eh/α   predicted    -0.4993381E-04 ( -44.88%)
   displ. norm   :     0.2981435 α      lambda       -0.1259805E-03
   maximum displ.:     0.2286900 α      in ANC's #1, #2, #6, ...

........................................................................
.............................. CYCLE   27 ..............................
........................................................................
   1    -31.9136509 -0.319137E+02  0.177E-02    2.31       0.0  T
   2    -31.9136558 -0.495481E-05  0.722E-03    2.32       3.0  T
   3    -31.9136562 -0.349760E-06  0.358E-03    2.32       6.1  T
   4    -31.9136562 -0.288588E-07  0.777E-04    2.32      28.1  T
   5    -31.9136562 -0.120689E-08  0.250E-04    2.32      87.2  T
   6    -31.9136562 -0.202139E-09  0.558E-05    2.32     391.1  T
   7    -31.9136562 -0.161400E-10  0.146E-05    2.32    1489.9  T
     SCC iter.                  ...        0 min,  0.006 sec
     gradient                   ...        0 min,  0.017 sec
 * total energy  :   -31.5099746 Eh     change       -0.1618159E-03 Eh
   gradient norm :     0.0025510 Eh/α   predicted    -0.6548086E-04 ( -59.53%)
   displ. norm   :     0.2225126 α      lambda       -0.1146190E-03
   maximum displ.:     0.1648597 α      in ANC's #1, #2, #4, ...

........................................................................
.............................. CYCLE   28 ..............................
........................................................................
   1    -31.9136299 -0.319136E+02  0.133E-02    2.31       0.0  T
   2    -31.9136323 -0.247962E-05  0.551E-03    2.32       4.0  T
   3    -31.9136325 -0.181328E-06  0.261E-03    2.32       8.4  T
   4    -31.9136325 -0.194505E-07  0.526E-04    2.32      41.5  T
   5    -31.9136325 -0.595350E-09  0.187E-04    2.32     116.7  T
   6    -31.9136325 -0.102894E-09  0.372E-05    2.32     587.2  T
     SCC iter.                  ...        0 min,  0.005 sec
     gradient                   ...        0 min,  0.017 sec
 * total energy  :   -31.5100794 Eh     change       -0.1048272E-03 Eh
   gradient norm :     0.0029541 Eh/α   predicted    -0.6014730E-04 ( -42.62%)
   displ. norm   :     0.3431185 α      lambda       -0.1612625E-03
   maximum displ.:     0.2453873 α      in ANC's #1, #2, #4, ...

........................................................................
.............................. CYCLE   29 ..............................
........................................................................
   1    -31.9135218 -0.319135E+02  0.206E-02    2.31       0.0  T
   2    -31.9135272 -0.546042E-05  0.860E-03    2.31       2.5  T
   3    -31.9135276 -0.406407E-06  0.395E-03    2.31       5.5  T
   4    -31.9135277 -0.516636E-07  0.818E-04    2.31      26.7  T
   5    -31.9135277 -0.129483E-08  0.292E-04    2.31      74.8  T
   6    -31.9135277 -0.229605E-09  0.546E-05    2.31     399.8  T
   7    -31.9135277 -0.165095E-10  0.164E-05    2.31    1333.2  T
     SCC iter.                  ...        0 min,  0.006 sec
     gradient                   ...        0 min,  0.017 sec
 * total energy  :   -31.5102383 Eh     change       -0.1589096E-03 Eh
   gradient norm :     0.0030924 Eh/α   predicted    -0.9012625E-04 ( -43.28%)
   displ. norm   :     0.9453316 α      lambda       -0.4508648E-03
   maximum displ.:     0.6650900 α      in ANC's #1, #2, #4, ...

........................................................................
.............................. CYCLE   30 ..............................
........................................................................
   1    -31.9113783 -0.319114E+02  0.480E-02    2.29       0.0  T
   2    -31.9114108 -0.325584E-04  0.193E-02    2.29       1.1  T
   3    -31.9114133 -0.245937E-05  0.896E-03    2.30       2.4  T
   4    -31.9114135 -0.259247E-06  0.210E-03    2.30      10.4  T
   5    -31.9114135 -0.585403E-08  0.716E-04    2.30      30.5  T
   6    -31.9114136 -0.108008E-08  0.120E-04    2.30     181.6  T
   7    -31.9114136 -0.767635E-10  0.325E-05    2.30     672.3  T
     SCC iter.                  ...        0 min,  0.006 sec
     gradient                   ...        0 min,  0.016 sec
 * total energy  :   -31.5106268 Eh     change       -0.3884526E-03 Eh
   gradient norm :     0.0074914 Eh/α   predicted    -0.4269005E-03 (   9.90%)
   displ. norm   :     0.6179012 α      lambda       -0.3143821E-03
   maximum displ.:     0.4331184 α      in ANC's #1, #2, #4, ...

........................................................................
.............................. CYCLE   31 ..............................
........................................................................
   1    -31.9109278 -0.319109E+02  0.236E-02    2.29       0.0  T
   2    -31.9109366 -0.883312E-05  0.876E-03    2.29       2.5  T
   3    -31.9109373 -0.667412E-06  0.378E-03    2.29       5.8  T
   4    -31.9109373 -0.561268E-07  0.934E-04    2.29      23.4  T
   5    -31.9109373 -0.113397E-08  0.330E-04    2.29      66.2  T
   6    -31.9109373 -0.159140E-09  0.539E-05    2.29     404.9  T
   7    -31.9109373 -0.124132E-10  0.111E-05    2.29    1969.5  T
     SCC iter.                  ...        0 min,  0.006 sec
     gradient                   ...        0 min,  0.017 sec
 * total energy  :   -31.5108364 Eh     change       -0.2096418E-03 Eh
   gradient norm :     0.0089229 Eh/α   predicted    -0.2172080E-03 (   3.61%)
   displ. norm   :     0.2794694 α      lambda       -0.5006735E-03
   maximum displ.:     0.1620297 α      in ANC's #5, #1, #2, ...

........................................................................
.............................. CYCLE   32 ..............................
........................................................................
   1    -31.9162506 -0.319163E+02  0.281E-02    2.28       0.0  T
   2    -31.9162531 -0.252788E-05  0.132E-02    2.29       1.7  T
   3    -31.9162533 -0.234181E-06  0.345E-03    2.30       6.3  T
   4    -31.9162534 -0.479450E-07  0.141E-03    2.31      15.5  T
   5    -31.9162534 -0.386808E-08  0.237E-04    2.31      91.9  T
   6    -31.9162534 -0.348262E-09  0.756E-05    2.31     288.5  T
   7    -31.9162534 -0.258495E-10  0.119E-05    2.31    1832.3  T
     SCC iter.                  ...        0 min,  0.006 sec
     gradient                   ...        0 min,  0.017 sec
 * total energy  :   -31.5111055 Eh     change       -0.2691159E-03 Eh
   gradient norm :     0.0046540 Eh/α   predicted    -0.2698889E-03 (   0.29%)
   displ. norm   :     0.4190027 α      lambda       -0.2779849E-03
   maximum displ.:     0.2444585 α      in ANC's #1, #2, #5, ...

........................................................................
.............................. CYCLE   33 ..............................
........................................................................
   1    -31.9149664 -0.319150E+02  0.163E-02    2.30       0.0  T
   2    -31.9149691 -0.265034E-05  0.748E-03    2.31       2.9  T
   3    -31.9149693 -0.242640E-06  0.308E-03    2.31       7.1  T
   4    -31.9149694 -0.436578E-07  0.998E-04    2.32      21.9  T
   5    -31.9149694 -0.148308E-08  0.280E-04    2.32      77.9  T
   6    -31.9149694 -0.159623E-09  0.607E-05    2.32     359.6  T
   7    -31.9149694 -0.149214E-10  0.114E-05    2.32    1915.0  T
     SCC iter.                  ...        0 min,  0.006 sec
     gradient                   ...        0 min,  0.017 sec
 * total energy  :   -31.5113150 Eh     change       -0.2094992E-03 Eh
   gradient norm :     0.0042777 Eh/α   predicted    -0.1633985E-03 ( -22.01%)
   displ. norm   :     0.3376269 α      lambda       -0.2106876E-03
   maximum displ.:     0.1973806 α      in ANC's #5, #2, #1, ...

........................................................................
.............................. CYCLE   34 ..............................
........................................................................
   1    -31.9133052 -0.319133E+02  0.185E-02    2.31       0.0  T
   2    -31.9133076 -0.244199E-05  0.842E-03    2.32       2.6  T
   3    -31.9133079 -0.342266E-06  0.231E-03    2.33       9.5  T
   4    -31.9133080 -0.232711E-07  0.977E-04    2.34      22.3  T
   5    -31.9133080 -0.172746E-08  0.228E-04    2.34      95.8  T
   6    -31.9133080 -0.211610E-09  0.668E-05    2.34     326.7  T
   7    -31.9133080 -0.211315E-10  0.138E-05    2.34    1580.6  T
     SCC iter.                  ...        0 min,  0.006 sec
     gradient                   ...        0 min,  0.017 sec
 * total energy  :   -31.5114490 Eh     change       -0.1339875E-03 Eh
   gradient norm :     0.0053695 Eh/α   predicted    -0.1173542E-03 ( -12.41%)
   displ. norm   :     0.2630270 α      lambda       -0.1002942E-03
   maximum displ.:     0.1691205 α      in ANC's #2, #1, #5, ...

........................................................................
.............................. CYCLE   35 ..............................
........................................................................
   1    -31.9128831 -0.319129E+02  0.690E-03    2.34       0.0  T
   2    -31.9128836 -0.442824E-06  0.290E-03    2.34       7.5  T
   3    -31.9128836 -0.306996E-07  0.116E-03    2.34      18.9  T
   4    -31.9128836 -0.585252E-08  0.280E-04    2.34      78.0  T
   5    -31.9128836 -0.173703E-09  0.114E-04    2.34     191.8  T
   6    -31.9128836 -0.278533E-10  0.276E-05    2.34     791.8  T
     SCC iter.                  ...        0 min,  0.005 sec
     gradient                   ...        0 min,  0.016 sec
 * total energy  :   -31.5115195 Eh     change       -0.7047247E-04 Eh
   gradient norm :     0.0041940 Eh/α   predicted    -0.5362434E-04 ( -23.91%)
   displ. norm   :     0.2130220 α      lambda       -0.1414427E-03
   maximum displ.:     0.1374997 α      in ANC's #5, #2, #3, ...

........................................................................
.............................. CYCLE   36 ..............................
........................................................................
   1    -31.9145326 -0.319145E+02  0.226E-02    2.33       0.0  T
   2    -31.9145349 -0.237437E-05  0.992E-03    2.35       2.2  T
   3    -31.9145353 -0.325888E-06  0.242E-03    2.36       9.0  T
   4    -31.9145353 -0.166400E-07  0.999E-04    2.36      21.8  T
   5    -31.9145353 -0.167519E-08  0.248E-04    2.36      88.1  T
   6    -31.9145353 -0.189580E-09  0.734E-05    2.36     297.3  T
   7    -31.9145353 -0.221974E-10  0.174E-05    2.36    1253.9  T
     SCC iter.                  ...        0 min,  0.006 sec
     gradient                   ...        0 min,  0.016 sec
 * total energy  :   -31.5115691 Eh     change       -0.4966062E-04 Eh
   gradient norm :     0.0030246 Eh/α   predicted    -0.7393201E-04 (  48.87%)
   displ. norm   :     0.2104316 α      lambda       -0.9950333E-04
   maximum displ.:     0.1525026 α      in ANC's #2, #1, #7, ...

........................................................................
.............................. CYCLE   37 ..............................
........................................................................
   1    -31.9141993 -0.319142E+02  0.877E-03    2.37       0.0  T
   2    -31.9141996 -0.305301E-06  0.390E-03    2.36       5.6  T
   3    -31.9141997 -0.404067E-07  0.122E-03    2.36      17.9  T
   4    -31.9141997 -0.891434E-08  0.402E-04    2.36      54.3  T
   5    -31.9141997 -0.284235E-09  0.992E-05    2.36     220.0  T
   6    -31.9141997 -0.264393E-10  0.241E-05    2.36     903.8  T
     SCC iter.                  ...        0 min,  0.005 sec
     gradient                   ...        0 min,  0.016 sec
 * total energy  :   -31.5116336 Eh     change       -0.6441160E-04 Eh
   gradient norm :     0.0024677 Eh/α   predicted    -0.5195563E-04 ( -19.34%)
   displ. norm   :     0.0857850 α      lambda       -0.4630646E-04
   maximum displ.:     0.0631394 α      in ANC's #2, #4, #3, ...

........................................................................
.............................. CYCLE   38 ..............................
........................................................................
   1    -31.9145084 -0.319145E+02  0.313E-03    2.36       0.0  T
   2    -31.9145084 -0.627314E-07  0.150E-03    2.36      14.6  T
   3    -31.9145085 -0.752805E-08  0.508E-04    2.36      43.0  T
   4    -31.9145085 -0.904105E-09  0.163E-04    2.36     133.9  T
   5    -31.9145085 -0.540226E-10  0.395E-05    2.36     552.0  T
     SCC iter.                  ...        0 min,  0.004 sec
     gradient                   ...        0 min,  0.016 sec
 * total energy  :   -31.5116713 Eh     change       -0.3770733E-04 Eh
   gradient norm :     0.0020642 Eh/α   predicted    -0.2332549E-04 ( -38.14%)
   displ. norm   :     0.2053417 α      lambda       -0.1133858E-03
   maximum displ.:     0.1231333 α      in ANC's #1, #2, #4, ...

........................................................................
.............................. CYCLE   39 ..............................
........................................................................
   1    -31.9151091 -0.319151E+02  0.479E-03    2.36       0.0  T
   2    -31.9151096 -0.403974E-06  0.205E-03    2.36      10.6  T
   3    -31.9151096 -0.174584E-07  0.115E-03    2.36      19.0  T
   4    -31.9151096 -0.141538E-08  0.230E-04    2.36      94.7  T
   5    -31.9151096 -0.221288E-09  0.603E-05    2.36     361.7  T
   6    -31.9151096 -0.205134E-10  0.274E-05    2.36     797.3  T
     SCC iter.                  ...        0 min,  0.005 sec
     gradient                   ...        0 min,  0.016 sec
 * total energy  :   -31.5117553 Eh     change       -0.8408649E-04 Eh
   gradient norm :     0.0027559 Eh/α   predicted    -0.5908536E-04 ( -29.73%)
   displ. norm   :     0.2025521 α      lambda       -0.8260320E-04
   maximum displ.:     0.1433757 α      in ANC's #1, #4, #5, ...

........................................................................
.............................. CYCLE   40 ..............................
........................................................................
   1    -31.9149435 -0.319149E+02  0.562E-03    2.36       0.0  T
   2    -31.9149441 -0.602993E-06  0.185E-03    2.36      11.8  T
   3    -31.9149441 -0.328867E-07  0.828E-04    2.37      26.4  T
   4    -31.9149441 -0.285480E-08  0.243E-04    2.37      89.8  T
   5    -31.9149441 -0.161293E-09  0.789E-05    2.37     276.6  T
   6    -31.9149441 -0.155573E-10  0.220E-05    2.37     994.0  T
     SCC iter.                  ...        0 min,  0.005 sec
     gradient                   ...        0 min,  0.016 sec
 * total energy  :   -31.5118257 Eh     change       -0.7031054E-04 Eh
   gradient norm :     0.0032464 Eh/α   predicted    -0.4299778E-04 ( -38.85%)
   displ. norm   :     0.1536281 α      lambda       -0.7235607E-04
   maximum displ.:     0.1200519 α      in ANC's #1, #4, #5, ...

........................................................................
.............................. CYCLE   41 ..............................
........................................................................
   1    -31.9148472 -0.319148E+02  0.616E-03    2.37       0.0  T
   2    -31.9148477 -0.516615E-06  0.215E-03    2.37      10.2  T
   3    -31.9148477 -0.338966E-07  0.931E-04    2.37      23.4  T
   4    -31.9148477 -0.417674E-08  0.249E-04    2.37      87.6  T
   5    -31.9148477 -0.150397E-09  0.989E-05    2.37     220.6  T
   6    -31.9148477 -0.175895E-10  0.264E-05    2.37     826.5  T
     SCC iter.                  ...        0 min,  0.005 sec
     gradient                   ...        0 min,  0.016 sec
 * total energy  :   -31.5118915 Eh     change       -0.6587446E-04 Eh
   gradient norm :     0.0022274 Eh/α   predicted    -0.3703421E-04 ( -43.78%)
   displ. norm   :     0.1680684 α      lambda       -0.8218529E-04
   maximum displ.:     0.1346803 α      in ANC's #1, #4, #5, ...

........................................................................
.............................. CYCLE   42 ..............................
........................................................................
   1    -31.9146417 -0.319146E+02  0.753E-03    2.38       0.0  T
   2    -31.9146425 -0.779549E-06  0.281E-03    2.38       7.8  T
   3    -31.9146425 -0.588762E-07  0.124E-03    2.38      17.5  T
   4    -31.9146425 -0.849094E-08  0.331E-04    2.39      66.0  T
   5    -31.9146425 -0.257472E-09  0.129E-04    2.39     168.7  T
   6    -31.9146425 -0.342979E-10  0.291E-05    2.39     750.8  T
     SCC iter.                  ...        0 min,  0.005 sec
     gradient                   ...        0 min,  0.016 sec
 * total energy  :   -31.5119636 Eh     change       -0.7209715E-04 Eh
   gradient norm :     0.0013885 Eh/α   predicted    -0.4225840E-04 ( -41.39%)
   displ. norm   :     0.3491720 α      lambda       -0.9822206E-04
   maximum displ.:     0.2801980 α      in ANC's #1, #4, #5, ...
 * RMSD in coord.:     0.9096433 α      energy gain  -0.2803683E-02 Eh

generating ANC from model Hessian ...
Using Lindh-Hessian (1995)
 Shifting diagonal of input Hessian by   9.658354206434150E-003
 Lowest  eigenvalues of input Hessian
    0.000000    0.000000    0.000000    0.000000    0.000000    0.000000
    0.010000    0.010221    0.011468    0.013187    0.017780    0.018178
    0.018659    0.020396    0.024877    0.025387    0.027360    0.032592
 Highest eigenvalues
    1.397492    1.540321    1.599340    1.867294    1.940213    1.993056
 

........................................................................
.............................. CYCLE   43 ..............................
........................................................................
   1    -31.9153419 -0.319153E+02  0.112E-02    2.40       0.0  T
   2    -31.9153437 -0.180143E-05  0.411E-03    2.40       5.3  T
   3    -31.9153438 -0.106994E-06  0.206E-03    2.40      10.6  T
   4    -31.9153438 -0.670995E-08  0.511E-04    2.40      42.7  T
   5    -31.9153438 -0.548042E-09  0.143E-04    2.40     152.5  T
   6    -31.9153438 -0.593090E-10  0.355E-05    2.40     614.8  T
     SCC iter.                  ...        0 min,  0.005 sec
     gradient                   ...        0 min,  0.016 sec
 * total energy  :   -31.5120646 Eh     change       -0.1009522E-03 Eh
   gradient norm :     0.0034231 Eh/α   predicted     0.0000000E+00 (-100.00%)
   displ. norm   :     0.0388256 α      lambda       -0.1191678E-04
   maximum displ.:     0.0182604 α      in ANC's #1, #4, #6, ...

........................................................................
.............................. CYCLE   44 ..............................
........................................................................
   1    -31.9152904 -0.319153E+02  0.344E-03    2.40       0.0  T
   2    -31.9152904 -0.145516E-07  0.186E-03    2.40      11.7  T
   3    -31.9152904 -0.140122E-08  0.354E-04    2.40      61.7  T
   4    -31.9152904 -0.169099E-09  0.899E-05    2.40     242.7  T
   5    -31.9152904 -0.333777E-10  0.234E-05    2.40     933.4  T
     SCC iter.                  ...        0 min,  0.004 sec
     gradient                   ...        0 min,  0.016 sec
 * total energy  :   -31.5120943 Eh     change       -0.2974532E-04 Eh
   gradient norm :     0.0012545 Eh/α   predicted    -0.1839398E-04 ( -38.16%)
   displ. norm   :     0.1724768 α      lambda       -0.6201093E-04
   maximum displ.:     0.0867772 α      in ANC's #4, #1, #6, ...

........................................................................
.............................. CYCLE   45 ..............................
........................................................................
   1    -31.9148689 -0.319149E+02  0.783E-03    2.40       0.0  T
   2    -31.9148690 -0.150541E-06  0.410E-03    2.40       5.3  T
   3    -31.9148691 -0.105937E-07  0.118E-03    2.40      18.6  T
   4    -31.9148691 -0.165232E-08  0.277E-04    2.40      78.7  T
   5    -31.9148691 -0.293976E-09  0.708E-05    2.40     308.3  T
   6    -31.9148691 -0.188578E-10  0.149E-05    2.40    1469.3  T
     SCC iter.                  ...        0 min,  0.005 sec
     gradient                   ...        0 min,  0.016 sec
 * total energy  :   -31.5121458 Eh     change       -0.5149509E-04 Eh
   gradient norm :     0.0042920 Eh/α   predicted    -0.3141727E-04 ( -38.99%)
   displ. norm   :     0.0815638 α      lambda       -0.3395146E-04
   maximum displ.:     0.0463992 α      in ANC's #4, #1, #6, ...

........................................................................
.............................. CYCLE   46 ..............................
........................................................................
   1    -31.9148607 -0.319149E+02  0.116E-03    2.40       0.0  T
   2    -31.9148608 -0.163593E-07  0.479E-04    2.40      45.6  T
   3    -31.9148608 -0.955108E-09  0.235E-04    2.40      92.9  T
   4    -31.9148608 -0.101121E-09  0.593E-05    2.40     368.1  T
   5    -31.9148608 -0.634870E-11  0.150E-05    2.40    1453.8  T
     SCC iter.                  ...        0 min,  0.004 sec
     gradient                   ...        0 min,  0.016 sec
 * total energy  :   -31.5121779 Eh     change       -0.3210775E-04 Eh
   gradient norm :     0.0040343 Eh/α   predicted    -0.1708961E-04 ( -46.77%)
   displ. norm   :     0.2743909 α      lambda       -0.1261244E-03
   maximum displ.:     0.1625698 α      in ANC's #4, #1, #6, ...

........................................................................
.............................. CYCLE   47 ..............................
........................................................................
   1    -31.9146024 -0.319146E+02  0.525E-03    2.41       0.0  T
   2    -31.9146026 -0.218011E-06  0.250E-03    2.41       8.7  T
   3    -31.9146027 -0.107409E-07  0.121E-03    2.41      18.0  T
   4    -31.9146027 -0.217072E-08  0.204E-04    2.41     107.2  T
   5    -31.9146027 -0.146201E-09  0.525E-05    2.41     416.0  T
   6    -31.9146027 -0.194973E-10  0.131E-05    2.41    1668.6  T
     SCC iter.                  ...        0 min,  0.005 sec
     gradient                   ...        0 min,  0.016 sec
 * total energy  :   -31.5122755 Eh     change       -0.9753962E-04 Eh
   gradient norm :     0.0022855 Eh/α   predicted    -0.6781829E-04 ( -30.47%)
   displ. norm   :     0.2500212 α      lambda       -0.8000720E-04
   maximum displ.:     0.1509365 α      in ANC's #1, #4, #6, ...

........................................................................
.............................. CYCLE   48 ..............................
........................................................................
   1    -31.9143911 -0.319144E+02  0.510E-03    2.41       0.0  T
   2    -31.9143914 -0.216237E-06  0.237E-03    2.41       9.2  T
   3    -31.9143914 -0.960801E-08  0.120E-03    2.41      18.2  T
   4    -31.9143914 -0.191623E-08  0.201E-04    2.41     108.5  T
   5    -31.9143914 -0.147953E-09  0.472E-05    2.41     462.1  T
   6    -31.9143914 -0.153406E-10  0.110E-05    2.41    1979.3  T
     SCC iter.                  ...        0 min,  0.005 sec
     gradient                   ...        0 min,  0.016 sec
 * total energy  :   -31.5123347 Eh     change       -0.5926039E-04 Eh
   gradient norm :     0.0025664 Eh/α   predicted    -0.4250948E-04 ( -28.27%)
   displ. norm   :     0.2013792 α      lambda       -0.6311015E-04
   maximum displ.:     0.1306510 α      in ANC's #1, #4, #6, ...

........................................................................
.............................. CYCLE   49 ..............................
........................................................................
   1    -31.9149577 -0.319150E+02  0.364E-03    2.42       0.0  T
   2    -31.9149579 -0.155801E-06  0.135E-03    2.42      16.2  T
   3    -31.9149579 -0.882424E-08  0.694E-04    2.42      31.5  T
   4    -31.9149579 -0.111794E-08  0.162E-04    2.42     134.9  T
   5    -31.9149579 -0.458407E-10  0.548E-05    2.42     398.4  T
     SCC iter.                  ...        0 min,  0.004 sec
     gradient                   ...        0 min,  0.016 sec
 * total energy  :   -31.5123873 Eh     change       -0.5259497E-04 Eh
   gradient norm :     0.0026267 Eh/α   predicted    -0.3284611E-04 ( -37.55%)
   displ. norm   :     0.3095549 α      lambda       -0.8525290E-04
   maximum displ.:     0.2022310 α      in ANC's #1, #4, #6, ...

........................................................................
.............................. CYCLE   50 ..............................
........................................................................
   1    -31.9146986 -0.319147E+02  0.581E-03    2.42       0.0  T
   2    -31.9146990 -0.346430E-06  0.242E-03    2.42       9.0  T
   3    -31.9146990 -0.218141E-07  0.120E-03    2.42      18.1  T
   4    -31.9146990 -0.348138E-08  0.253E-04    2.43      86.1  T
   5    -31.9146990 -0.160835E-09  0.992E-05    2.43     219.9  T
   6    -31.9146990 -0.291251E-10  0.177E-05    2.43    1236.1  T
     SCC iter.                  ...        0 min,  0.005 sec
     gradient                   ...        0 min,  0.016 sec
 * total energy  :   -31.5124527 Eh     change       -0.6533670E-04 Eh
   gradient norm :     0.0035905 Eh/α   predicted    -0.4671403E-04 ( -28.50%)
   displ. norm   :     0.2254695 α      lambda       -0.7940458E-04
   maximum displ.:     0.1584276 α      in ANC's #1, #4, #6, ...

........................................................................
.............................. CYCLE   51 ..............................
........................................................................
   1    -31.9161193 -0.319161E+02  0.605E-03    2.43       0.0  T
   2    -31.9161195 -0.199067E-06  0.294E-03    2.43       7.4  T
   3    -31.9161195 -0.993435E-08  0.140E-03    2.43      15.6  T
   4    -31.9161195 -0.371355E-08  0.238E-04    2.43      91.7  T
   5    -31.9161195 -0.304862E-09  0.766E-05    2.43     284.7  T
   6    -31.9161195 -0.217319E-10  0.144E-05    2.43    1516.2  T
     SCC iter.                  ...        0 min,  0.005 sec
     gradient                   ...        0 min,  0.016 sec
 * total energy  :   -31.5125062 Eh     change       -0.5354100E-04 Eh
   gradient norm :     0.0029975 Eh/α   predicted    -0.4172211E-04 ( -22.07%)
   displ. norm   :     0.2369572 α      lambda       -0.5393271E-04
   maximum displ.:     0.1638721 α      in ANC's #1, #4, #6, ...

........................................................................
.............................. CYCLE   52 ..............................
........................................................................
   1    -31.9152994 -0.319153E+02  0.467E-03    2.43       0.0  T
   2    -31.9152996 -0.192348E-06  0.192E-03    2.43      11.4  T
   3    -31.9152996 -0.113655E-07  0.848E-04    2.43      25.7  T
   4    -31.9152996 -0.159578E-08  0.263E-04    2.43      82.9  T
   5    -31.9152996 -0.177955E-09  0.792E-05    2.43     275.6  T
   6    -31.9152996 -0.211635E-10  0.144E-05    2.43    1514.8  T
     SCC iter.                  ...        0 min,  0.005 sec
     gradient                   ...        0 min,  0.016 sec
 * total energy  :   -31.5125447 Eh     change       -0.3847615E-04 Eh
   gradient norm :     0.0028332 Eh/α   predicted    -0.2849332E-04 ( -25.95%)
   displ. norm   :     0.2139806 α      lambda       -0.6748740E-04
   maximum displ.:     0.1483095 α      in ANC's #1, #4, #3, ...

........................................................................
.............................. CYCLE   53 ..............................
........................................................................
   1    -31.9158680 -0.319159E+02  0.602E-03    2.44       0.0  T
   2    -31.9158682 -0.222079E-06  0.293E-03    2.43       7.5  T
   3    -31.9158682 -0.704585E-08  0.140E-03    2.43      15.6  T
   4    -31.9158682 -0.104276E-08  0.268E-04    2.43      81.5  T
   5    -31.9158682 -0.453653E-09  0.628E-05    2.43     347.4  T
   6    -31.9158682 -0.294413E-10  0.189E-05    2.43    1154.0  T
     SCC iter.                  ...        0 min,  0.005 sec
     gradient                   ...        0 min,  0.016 sec
 * total energy  :   -31.5125983 Eh     change       -0.5360042E-04 Eh
   gradient norm :     0.0020078 Eh/α   predicted    -0.3528939E-04 ( -34.16%)
   displ. norm   :     0.4096806 α      lambda       -0.8948398E-04
   maximum displ.:     0.2815754 α      in ANC's #1, #4, #3, ...

........................................................................
.............................. CYCLE   54 ..............................
........................................................................
   1    -31.9146225 -0.319146E+02  0.803E-03    2.44       0.0  T
   2    -31.9146232 -0.690259E-06  0.343E-03    2.44       6.4  T
   3    -31.9146232 -0.281647E-07  0.171E-03    2.43      12.7  T
   4    -31.9146232 -0.334276E-08  0.441E-04    2.43      49.5  T
   5    -31.9146232 -0.627178E-09  0.141E-04    2.43     155.2  T
   6    -31.9146232 -0.765255E-10  0.297E-05    2.43     734.2  T
     SCC iter.                  ...        0 min,  0.005 sec
     gradient                   ...        0 min,  0.016 sec
 * total energy  :   -31.5126515 Eh     change       -0.5317639E-04 Eh
   gradient norm :     0.0038075 Eh/α   predicted    -0.5226260E-04 (  -1.72%)
   displ. norm   :     0.1174112 α      lambda       -0.5625643E-04
   maximum displ.:     0.0775606 α      in ANC's #2, #3, #1, ...

........................................................................
.............................. CYCLE   55 ..............................
........................................................................
   1    -31.9160020 -0.319160E+02  0.697E-03    2.43       0.0  T
   2    -31.9160022 -0.213497E-06  0.355E-03    2.43       6.1  T
   3    -31.9160023 -0.854729E-08  0.139E-03    2.43      15.7  T
   4    -31.9160023 -0.257402E-08  0.246E-04    2.43      88.8  T
   5    -31.9160023 -0.167702E-09  0.724E-05    2.43     301.2  T
   6    -31.9160023 -0.146336E-10  0.135E-05    2.43    1618.5  T
     SCC iter.                  ...        0 min,  0.005 sec
     gradient                   ...        0 min,  0.017 sec
 * total energy  :   -31.5126922 Eh     change       -0.4070757E-04 Eh
   gradient norm :     0.0029535 Eh/α   predicted    -0.2851956E-04 ( -29.94%)
   displ. norm   :     0.3650839 α      lambda       -0.8772789E-04
   maximum displ.:     0.2216087 α      in ANC's #1, #2, #4, ...

........................................................................
.............................. CYCLE   56 ..............................
........................................................................
   1    -31.9159026 -0.319159E+02  0.761E-03    2.44       0.0  T
   2    -31.9159037 -0.102685E-05  0.234E-03    2.44       9.3  T
   3    -31.9159037 -0.318558E-07  0.110E-03    2.44      19.9  T
   4    -31.9159037 -0.321670E-08  0.224E-04    2.43      97.5  T
   5    -31.9159037 -0.182954E-09  0.702E-05    2.43     310.9  T
   6    -31.9159037 -0.595435E-11  0.148E-05    2.43    1474.8  T
     SCC iter.                  ...        0 min,  0.005 sec
     gradient                   ...        0 min,  0.017 sec
 * total energy  :   -31.5127707 Eh     change       -0.7850464E-04 Eh
   gradient norm :     0.0026973 Eh/α   predicted    -0.4971260E-04 ( -36.68%)
   displ. norm   :     0.3317747 α      lambda       -0.7960646E-04
   maximum displ.:     0.1965869 α      in ANC's #1, #2, #4, ...

........................................................................
.............................. CYCLE   57 ..............................
........................................................................
   1    -31.9146820 -0.319147E+02  0.865E-03    2.44       0.0  T
   2    -31.9146829 -0.877170E-06  0.345E-03    2.44       6.3  T
   3    -31.9146830 -0.261368E-07  0.180E-03    2.44      12.1  T
   4    -31.9146830 -0.266184E-08  0.319E-04    2.44      68.4  T
   5    -31.9146830 -0.185892E-09  0.117E-04    2.44     186.7  T
   6    -31.9146830 -0.328981E-10  0.163E-05    2.44    1341.9  T
     SCC iter.                  ...        0 min,  0.005 sec
     gradient                   ...        0 min,  0.017 sec
 * total energy  :   -31.5128184 Eh     change       -0.4774862E-04 Eh
   gradient norm :     0.0034685 Eh/α   predicted    -0.4418972E-04 (  -7.45%)
   displ. norm   :     0.0754773 α      lambda       -0.5256029E-04
   maximum displ.:     0.0646614 α      in ANC's #2, #3, #8, ...

........................................................................
.............................. CYCLE   58 ..............................
........................................................................
   1    -31.9159896 -0.319160E+02  0.605E-03    2.44       0.0  T
   2    -31.9159898 -0.215285E-06  0.274E-03    2.44       8.0  T
   3    -31.9159898 -0.238706E-07  0.908E-04    2.44      24.0  T
   4    -31.9159898 -0.265852E-08  0.342E-04    2.44      63.8  T
   5    -31.9159898 -0.189303E-09  0.777E-05    2.44     281.0  T
   6    -31.9159898 -0.235296E-10  0.245E-05    2.44     891.5  T
     SCC iter.                  ...        0 min,  0.005 sec
     gradient                   ...        0 min,  0.017 sec
 * total energy  :   -31.5128553 Eh     change       -0.3687777E-04 Eh
   gradient norm :     0.0024952 Eh/α   predicted    -0.2643256E-04 ( -28.32%)
   displ. norm   :     0.1098403 α      lambda       -0.3817035E-04
   maximum displ.:     0.0832739 α      in ANC's #2, #4, #1, ...

........................................................................
.............................. CYCLE   59 ..............................
........................................................................
   1    -31.9162261 -0.319162E+02  0.527E-03    2.44       0.0  T
   2    -31.9162263 -0.261892E-06  0.227E-03    2.44       9.6  T
   3    -31.9162264 -0.158231E-07  0.104E-03    2.45      21.0  T
   4    -31.9162264 -0.240780E-08  0.301E-04    2.45      72.5  T
   5    -31.9162264 -0.154461E-09  0.842E-05    2.45     259.2  T
   6    -31.9162264 -0.304503E-10  0.223E-05    2.45     976.4  T
     SCC iter.                  ...        0 min,  0.005 sec
     gradient                   ...        0 min,  0.017 sec
 * total energy  :   -31.5128850 Eh     change       -0.2973978E-04 Eh
   gradient norm :     0.0021095 Eh/α   predicted    -0.1931568E-04 ( -35.05%)
   displ. norm   :     0.1106625 α      lambda       -0.3355651E-04
   maximum displ.:     0.0834191 α      in ANC's #2, #4, #1, ...

........................................................................
.............................. CYCLE   60 ..............................
........................................................................
   1    -31.9160545 -0.319161E+02  0.412E-03    2.44       0.0  T
   2    -31.9160547 -0.252525E-06  0.170E-03    2.44      12.8  T
   3    -31.9160547 -0.135848E-07  0.847E-04    2.45      25.8  T
   4    -31.9160547 -0.108065E-08  0.213E-04    2.45     102.4  T
   5    -31.9160547 -0.126754E-09  0.637E-05    2.45     342.8  T
   6    -31.9160547 -0.144169E-10  0.180E-05    2.45    1215.5  T
     SCC iter.                  ...        0 min,  0.005 sec
     gradient                   ...        0 min,  0.017 sec
 * total energy  :   -31.5129114 Eh     change       -0.2640779E-04 Eh
   gradient norm :     0.0017747 Eh/α   predicted    -0.1698689E-04 ( -35.67%)
   displ. norm   :     0.1711392 α      lambda       -0.2783782E-04
   maximum displ.:     0.1275430 α      in ANC's #2, #4, #6, ...

........................................................................
.............................. CYCLE   61 ..............................
........................................................................
   1    -31.9155817 -0.319156E+02  0.589E-03    2.44       0.0  T
   2    -31.9155824 -0.728561E-06  0.201E-03    2.44      10.8  T
   3    -31.9155825 -0.434037E-07  0.891E-04    2.44      24.5  T
   4    -31.9155825 -0.136595E-08  0.280E-04    2.44      78.0  T
   5    -31.9155825 -0.163364E-09  0.781E-05    2.44     279.4  T
   6    -31.9155825 -0.163070E-10  0.211E-05    2.44    1033.3  T
     SCC iter.                  ...        0 min,  0.005 sec
     gradient                   ...        0 min,  0.017 sec
 * total energy  :   -31.5129394 Eh     change       -0.2797536E-04 Eh
   gradient norm :     0.0024532 Eh/α   predicted    -0.1410293E-04 ( -49.59%)
   displ. norm   :     0.0776438 α      lambda       -0.1643069E-04
   maximum displ.:     0.0619515 α      in ANC's #2, #4, #3, ...

........................................................................
.............................. CYCLE   62 ..............................
........................................................................
   1    -31.9156354 -0.319156E+02  0.283E-03    2.44       0.0  T
   2    -31.9156355 -0.162647E-06  0.102E-03    2.44      21.3  T
   3    -31.9156355 -0.977603E-08  0.530E-04    2.44      41.2  T
   4    -31.9156355 -0.264308E-09  0.157E-04    2.44     138.8  T
   5    -31.9156355 -0.523919E-10  0.313E-05    2.44     696.2  T
     SCC iter.                  ...        0 min,  0.004 sec
     gradient                   ...        0 min,  0.016 sec
 * total energy  :   -31.5129536 Eh     change       -0.1413243E-04 Eh
   gradient norm :     0.0026572 Eh/α   predicted    -0.8268763E-05 ( -41.49%)
   displ. norm   :     0.1983133 α      lambda       -0.4007966E-04
[...]
 model hessian                  ...        0 min,  0.021 sec (  0.939%)
 ANC generation                 ...        0 min,  0.003 sec (  0.127%)
 coordinate transformation      ...        0 min,  0.001 sec (  0.029%)
 single point calculation       ...        0 min,  2.156 sec ( 98.063%)
 optimization log               ...        0 min,  0.007 sec (  0.335%)
 hessian update                 ...        0 min,  0.001 sec (  0.030%)
 rational function              ...        0 min,  0.006 sec (  0.268%)

================
 final structure:
================
21
 xtb: 6.5.1 (579679a)
C           -3.09433074744790       -0.17036056767381        0.30196264243850
C           -1.62082857334530       -0.16937797513013        0.02111047375025
F           -3.70508685218661        1.87527043758284        2.49681659608700
C           -0.73435196881102       -0.82584753592903        0.87667634981138
C            0.62972412370849       -0.80649164611097        0.63462378915596
C            1.14734430112953       -0.13112735116861       -0.46957122869356
C            2.63525008016570       -0.14108212791929       -0.73237200725641
N            3.38367260262594        0.06423504143295        0.51282212593951
C            0.26751916839179        0.52378388025329       -1.32502318978733
C           -1.09982613403551        0.50451119470731       -1.08160542699343
H           -3.42159748980924       -1.15010603916761        0.65231712588338
H           -3.66224390053612        0.09308884729041       -0.59050292252124
H           -3.32382740078866        0.56592610704680        1.08874024578024
H           -1.11555761456437       -1.36560554772012        1.73870018925494
H            1.31054013766299       -1.31677964008236        1.30925382805047
H            2.92052593513083       -1.12079641242542       -1.13419404824228
H            2.89728759629622        0.61763287580649       -1.48409831156785
H            4.35147257135654       -0.16288027830476        0.34008277291175
H            3.35189047770697        1.04669901823379        0.75522124817846
H            0.64990815747243        1.05140699097650       -2.19243382623313
H           -1.76748447025482        1.01790072819189       -1.76649742593829
 
 Bond Distances (Angstroems)
 ---------------------------
C1-C2=1.5000         C1-H11=1.0908        C1-H12=1.0901        C1-H13=1.1017        C2-C1=1.5000         C2-C4=1.3960         
C2-C10=1.3934        C4-C2=1.3960         C4-C5=1.3855         C4-H14=1.0862        C5-C4=1.3855         C5-C6=1.3940         
C5-H15=1.0858        C6-C5=1.3940         C6-C7=1.5110         C6-C9=1.3910         C7-C6=1.5110         C7-N8=1.4672         
C7-H16=1.0967        C7-H17=1.0997        N8-C7=1.4672         N8-H18=1.0090        N8-H19=1.0124        C9-C6=1.3910         
C9-C10=1.3890        C9-H20=1.0849        C10-C2=1.3934        C10-C9=1.3890        C10-H21=1.0855       H11-C1=1.0908        
H12-C1=1.0901        H13-C1=1.1017        H14-C4=1.0862        H15-C5=1.0858        H16-C7=1.0967        H17-C7=1.0997        
H18-N8=1.0090        H19-N8=1.0124        H20-C9=1.0849        H21-C10=1.0855       
 C  H  Rav=1.0913 sigma=0.0062  Rmin=1.0849  Rmax=1.1017     9
 C  C  Rav=1.4200 sigma=0.0495  Rmin=1.3855  Rmax=1.5110     8
 N  H  Rav=1.0107 sigma=0.0017  Rmin=1.0090  Rmax=1.0124     2
 N  C  Rav=1.4672 sigma=0.0000  Rmin=1.4672  Rmax=1.4672     1
 
 selected bond angles (degree)
 --------------------
H11-C1-C2=110.82               H12-C1-C2=111.00               H12-C1-H11=108.89              H13-C1-C2=109.75               
H13-C1-H11=107.96              H13-C1-H12=108.34              C4-C2-C1=120.58                C10-C2-C1=121.05               
C10-C2-C4=118.36               C5-C4-C2=120.77                H14-C4-C2=119.82               H14-C4-C5=119.41               
C6-C5-C4=120.71                H15-C5-C4=120.14               H15-C5-C6=119.14               C7-C6-C5=120.01                
C9-C6-C5=118.71                C9-C6-C7=121.27                N8-C7-C6=110.72                H16-C7-C6=109.01               
H16-C7-N8=107.65               H17-C7-C6=110.43               H17-C7-N8=111.22               H17-C7-H16=107.69              
H18-N8-C7=108.21               H19-N8-C7=108.84               H19-N8-H18=106.83              C10-C9-C6=120.55               
H20-C9-C6=119.85               H20-C9-C10=119.59              C9-C10-C2=120.90               H21-C10-C2=119.87              
H21-C10-C9=119.23              
 
 selected dihedral angles (degree)
 ---------------------------------
C4-C2-C1-H11=319.24           C4-C2-C1-H12=198.12           C4-C2-C1-H13= 78.39           C10-C2-C1-H11=140.45          
C10-C2-C1-H12= 19.32          C10-C2-C1-H13=259.60          C5-C4-C2-C1=181.21            C5-C4-C2-C10=  0.03           
H14-C4-C2-C1=  1.69           H14-C4-C2-C10=180.52          C6-C5-C4-C2=359.97            C6-C5-C4-H14=179.49           
H15-C5-C4-C2=179.72           H15-C5-C4-H14=359.24          C7-C6-C5-C4=181.10            C7-C6-C5-H15=  1.35           
C9-C6-C5-C4=  0.00            C9-C6-C5-H15=180.24           N8-C7-C6-C5=316.97            N8-C7-C6-C9=138.10            
H16-C7-C6-C5= 75.21           H16-C7-C6-C9=256.35           H17-C7-C6-C5=193.33           H17-C7-C6-C9= 14.47           
H18-N8-C7-C6=166.87           H18-N8-C7-H16= 47.79          H18-N8-C7-H17=290.04          H19-N8-C7-C6=282.61           
H19-N8-C7-H16=163.54          H19-N8-C7-H17= 45.78          C10-C9-C6-C5=  0.03           C10-C9-C6-C7=178.91           
H20-C9-C6-C5=180.27           H20-C9-C6-C7=359.15           C9-C10-C2-C1=178.81           C9-C10-C2-C4=  0.00           
H21-C10-C2-C1=358.43          H21-C10-C2-C4=179.61          C2-C10-C9-C6=359.97           C2-C10-C9-H20=179.73          
H21-C10-C9-C6=180.36          H21-C10-C9-H20=  0.12         
           -------------------------------------------------
          |                Final Singlepoint                |
           -------------------------------------------------

          ...................................................
          :                      SETUP                      :
          :.................................................:
          :  # basis functions                  62          :
          :  # atomic orbitals                  62          :
          :  # shells                           42          :
          :  # electrons                        56          :
          :  # halogen bonds                     0          :
          :  max. iterations                   250          :
          :  Hamiltonian                  GFN1-xTB          :
          :  restarted?                      false          :
          :  GBSA solvation                   true          :
          :  PC potential                    false          :
          :  electronic temp.          300.0000000     K    :
          :  accuracy                    1.0000000          :
          :  -> integral cutoff          0.2500000E+02      :
          :  -> integral neglect         0.1000000E-07      :
          :  -> SCF convergence          0.1000000E-05 Eh   :
          :  -> wf. convergence          0.2000000E-04 e    :
          :  Broyden damping             0.4000000          :
          ...................................................

 iter      E             dE          RMSdq      gap      omega  full diag
   1    -31.9162273 -0.319162E+02  0.124E-05    2.44       0.0  T
   2    -31.9162273 -0.603961E-12  0.619E-06    2.44    3525.8  T
   3    -31.9162273 -0.888178E-13  0.212E-06    2.44   10308.7  T

   *** convergence criteria satisfied after 3 iterations ***

         #    Occupation            Energy/Eh            Energy/eV
      -------------------------------------------------------------
         1        2.0000           -0.7375227             -20.0690
       ...           ...                  ...                  ...
        22        2.0000           -0.4464408             -12.1483
        23        2.0000           -0.4204782             -11.4418
        24        2.0000           -0.4048794             -11.0173
        25        2.0000           -0.3963695             -10.7858
        26        2.0000           -0.3323155              -9.0428
        27        2.0000           -0.3323129              -9.0427
        28        2.0000           -0.3318690              -9.0306 (HOMO)
        29                         -0.2422210              -6.5912 (LUMO)
        30                         -0.2381192              -6.4796
        31                         -0.1185375              -3.2256
        32                         -0.1057013              -2.8763
        33                         -0.0984522              -2.6790
       ...                                ...                  ...
        62                          0.6646825              18.0869
      -------------------------------------------------------------
                  HL-Gap            0.0896480 Eh            2.4394 eV
             Fermi-level           -0.2870450 Eh           -7.8109 eV

 SCC (total)                   0 d,  0 h,  0 min,  0.035 sec
 SCC setup                      ...        0 min,  0.001 sec (  1.750%)
 Dispersion                     ...        0 min,  0.000 sec (  0.184%)
 classical contributions        ...        0 min,  0.000 sec (  0.066%)
 integral evaluation            ...        0 min,  0.010 sec ( 27.989%)
 iterations                     ...        0 min,  0.003 sec (  8.502%)
 molecular gradient             ...        0 min,  0.021 sec ( 60.538%)
 printout                       ...        0 min,  0.000 sec (  0.911%)

         :::::::::::::::::::::::::::::::::::::::::::::::::::::
         ::                     SUMMARY                     ::
         :::::::::::::::::::::::::::::::::::::::::::::::::::::
         :: total energy             -31.513068127303 Eh    ::
         :: total w/o Gsasa/hb       -31.500167571556 Eh    ::
         :: gradient norm              0.000634718326 Eh/a0 ::
         :: HOMO-LUMO gap              2.439445074678 eV    ::
         ::.................................................::
         :: SCC energy               -31.916227339814 Eh    ::
         :: -> electrostatic           0.300959398618 Eh    ::
         :: -> Gsolv                  -0.130334379252 Eh    ::
         ::    -> Gelec               -0.117433823505 Eh    ::
         ::    -> Gsasa               -0.015324925017 Eh    ::
         ::    -> Ghb                 -0.005199909735 Eh    ::
         ::    -> Gshift               0.007624279005 Eh    ::
         :: repulsion energy           0.412733410907 Eh    ::
         :: dispersion energy         -0.009574198396 Eh    ::
         :: halogen bond corr.         0.000000000000 Eh    ::
         :: add. restraining           0.000000000000 Eh    ::
         :: total charge              -1.000000000000 e     ::
         :::::::::::::::::::::::::::::::::::::::::::::::::::::

           -------------------------------------------------
          |                Property Printout                |
           -------------------------------------------------

    * Orbital Energies and Occupations

         #    Occupation            Energy/Eh            Energy/eV
      -------------------------------------------------------------
         1        2.0000           -0.7375227             -20.0690
       ...           ...                  ...                  ...
        16        2.0000           -0.5070023             -13.7962
        17        2.0000           -0.4982005             -13.5567
        18        2.0000           -0.4845987             -13.1866
        19        2.0000           -0.4777900             -13.0013
        20        2.0000           -0.4686433             -12.7524
        21        2.0000           -0.4481938             -12.1960
        22        2.0000           -0.4464408             -12.1483
        23        2.0000           -0.4204782             -11.4418
        24        2.0000           -0.4048794             -11.0173
        25        2.0000           -0.3963695             -10.7858
        26        2.0000           -0.3323155              -9.0428
        27        2.0000           -0.3323129              -9.0427
        28        2.0000           -0.3318690              -9.0306 (HOMO)
        29                         -0.2422210              -6.5912 (LUMO)
        30                         -0.2381192              -6.4796
        31                         -0.1185375              -3.2256
        32                         -0.1057013              -2.8763
        33                         -0.0984522              -2.6790
        34                         -0.0893746              -2.4320
        35                         -0.0852273              -2.3192
        36                         -0.0783855              -2.1330
        37                         -0.0742191              -2.0196
        38                         -0.0560315              -1.5247
        39                         -0.0453002              -1.2327
       ...                                ...                  ...
        62                          0.6646825              18.0869
      -------------------------------------------------------------
                  HL-Gap            0.0896480 Eh            2.4394 eV
             Fermi-level           -0.2870450 Eh           -7.8109 eV

  Mulliken/CM5 charges         n(s)   n(p)   n(d)
     1C    -0.09837 -0.24165   1.010  3.089  0.000
     2C     0.02324  0.00550   1.085  2.892  0.000
     3F    -0.95021 -0.95598   1.980  5.970  0.000
     4C    -0.04828 -0.10169   1.059  2.990  0.000
     5C    -0.03968 -0.09112   1.058  2.982  0.000
     6C    -0.01282 -0.02329   1.085  2.928  0.000
     7C     0.08681  0.03672   1.006  2.907  0.000
     8N    -0.52481 -0.98074   1.474  4.050  0.000
     9C    -0.05099 -0.10439   1.059  2.992  0.000
    10C    -0.05073 -0.10435   1.059  2.992  0.000
    11H     0.01863  0.07101   0.981  0.000  0.000
    12H     0.01688  0.06947   0.983  0.000  0.000
    13H     0.08052  0.13656   0.919  0.000  0.000
    14H     0.02197  0.07847   0.978  0.000  0.000
    15H     0.01874  0.07875   0.981  0.000  0.000
    16H     0.02395  0.08838   0.976  0.000  0.000
    17H     0.01570  0.07853   0.984  0.000  0.000
    18H     0.21452  0.40355   0.785  0.000  0.000
    19H     0.20954  0.39764   0.790  0.000  0.000
    20H     0.02286  0.07957   0.977  0.000  0.000
    21H     0.02253  0.07907   0.977  0.000  0.000

Wiberg/Mayer (AO) data.
largest (>0.10) Wiberg bond orders for each atom

 ---------------------------------------------------------------------------
     #   Z sym  total        # sym  WBO       # sym  WBO       # sym  WBO
 ---------------------------------------------------------------------------
     1   6 C    3.989 --     2 C    1.030    12 H    0.986    11 H    0.981
                            13 H    0.932
     2   6 C    3.987 --    10 C    1.413     4 C    1.400     1 C    1.030
                             6 C    0.106
     3   9 F    0.096
     4   6 C    3.996 --     5 C    1.460     2 C    1.400    14 H    0.974
                             9 C    0.108
     5   6 C    3.996 --     4 C    1.460     6 C    1.406    15 H    0.973
                            10 C    0.108
     6   6 C    3.988 --     9 C    1.420     5 C    1.406     7 C    1.004
                             2 C    0.106
     7   6 C    3.979 --     6 C    1.004     8 N    0.990    17 H    0.975
                            16 H    0.970
     8   7 N    2.945 --     7 C    0.990    19 H    0.952    18 H    0.949
     9   6 C    3.995 --    10 C    1.444     6 C    1.420    20 H    0.973
                             4 C    0.108
    10   6 C    3.995 --     9 C    1.444     2 C    1.413    21 H    0.973
                             5 C    0.108
    11   1 H    1.007 --     1 C    0.981
    12   1 H    1.006 --     1 C    0.986
    13   1 H    1.039 --     1 C    0.932
    14   1 H    1.003 --     4 C    0.974
    15   1 H    1.014 --     5 C    0.973
    16   1 H    1.013 --     7 C    0.970
    17   1 H    1.005 --     7 C    0.975
    18   1 H    0.962 --     8 N    0.949
    19   1 H    0.965 --     8 N    0.952
    20   1 H    1.003 --     9 C    0.973
    21   1 H    1.004 --    10 C    0.973
 ---------------------------------------------------------------------------

Topologies differ in total number of bonds
Writing topology from bond orders to xtbtopo.mol

 dipole moment from electron density (au)
     X       Y       Z   
   7.1013  -2.8900  -4.9117  total (Debye):   23.143

           -------------------------------------------------
          |                Geometry Summary                 |
           -------------------------------------------------

      molecular mass/u    :      140.1783418
   center of mass at/Å    :       -0.3084813       0.1511835       0.2283908
  moments of inertia/u·Å² :        0.2156175E+03   0.9179589E+03   0.9889483E+03
rotational constants/cm⁻¹ :        0.7818304E-01   0.1836426E-01   0.1704602E-01

 * 18 selected distances

     #   Z          #   Z                                           value/Å
     2   6 C        4   6 C                                       1.3959894
     4   6 C        5   6 C                                       1.3855209
     5   6 C        6   6 C                                       1.3940210
     7   6 C        8   7 N                                       1.4672424 (max)
     6   6 C        9   6 C                                       1.3909707
     2   6 C       10   6 C                                       1.3933962
     9   6 C       10   6 C                                       1.3889770
     1   6 C       11   1 H                                       1.0907581
     1   6 C       12   1 H                                       1.0901495
     1   6 C       13   1 H                                       1.1017286
     4   6 C       14   1 H                                       1.0861592
     5   6 C       15   1 H                                       1.0858316
     7   6 C       16   1 H                                       1.0966693
     7   6 C       17   1 H                                       1.0997294
     8   7 N       18   1 H                                       1.0089882 (min)
     8   7 N       19   1 H                                       1.0124244
     9   6 C       20   1 H                                       1.0849004
    10   6 C       21   1 H                                       1.0855477

 * 4 distinct bonds (by element types)

   Z      Z             #   av. dist./Å        max./Å        min./Å
   1 H    6 C           9     1.0912749     1.1017286     1.0849004
   6 C    6 C           6     1.3914792     1.3959894     1.3855209
   1 H    7 N           2     1.0107063     1.0124244     1.0089882
   6 C    7 N           1     1.4672424     1.4672424     1.4672424


optimized geometry written to: xtbopt.xyz


           -------------------------------------------------
          | TOTAL ENERGY              -31.513068127303 Eh   |
          | GRADIENT NORM               0.000634718326 Eh/α |
          | HOMO-LUMO GAP               2.439445074678 eV   |
           -------------------------------------------------

------------------------------------------------------------------------
 * finished run on 2023/06/20 at 15:13:48.644     
------------------------------------------------------------------------
 total:
 * wall-time:     0 d,  0 h,  0 min,  2.368 sec
 *  cpu-time:     0 d,  0 h,  0 min,  2.265 sec
 * ratio c/w:     0.957 speedup
 SCF:
 * wall-time:     0 d,  0 h,  0 min,  0.033 sec
 *  cpu-time:     0 d,  0 h,  0 min,  0.033 sec
 * ratio c/w:     1.000 speedup
 ANC optimizer:
 * wall-time:     0 d,  0 h,  0 min,  2.245 sec
 *  cpu-time:     0 d,  0 h,  0 min,  2.209 sec
 * ratio c/w:     0.984 speedup

