      -----------------------------------------------------------      
     |                   =====================                   |     
     |                           x T B                           |     
     |                   =====================                   |     
     |                         S. Grimme                         |     
     |          Mulliken Center for Theoretical Chemistry        |     
     |                    University of Bonn                     |     
      -----------------------------------------------------------      

   * xtb version 6.5.1 (579679a) compiled by 'ehlert@majestix' on 2022-07-11

   xtb is free software: you can redistribute it and/or modify it under
   the terms of the GNU Lesser General Public License as published by
   the Free Software Foundation, either version 3 of the License, or
   (at your option) any later version.
   
   xtb is distributed in the hope that it will be useful,
   but WITHOUT ANY WARRANTY; without even the implied warranty of
   MERCHANTABILITY or FITNESS FOR A PARTICULAR PURPOSE.  See the
   GNU Lesser General Public License for more details.
   
   Cite this work as:
   * C. Bannwarth, E. Caldeweyher, S. Ehlert, A. Hansen, P. Pracht,
     J. Seibert, S. Spicher, S. Grimme, WIREs Comput. Mol. Sci., 2020, 11,
     e01493. DOI: 10.1002/wcms.1493
   
   for GFN2-xTB:
   * C. Bannwarth, S. Ehlert and S. Grimme., J. Chem. Theory Comput., 2019,
     15, 1652-1671. DOI: 10.1021/acs.jctc.8b01176
   for GFN1-xTB:
   * S. Grimme, C. Bannwarth, P. Shushkov, J. Chem. Theory Comput., 2017,
     13, 1989-2009. DOI: 10.1021/acs.jctc.7b00118
   for GFN0-xTB:
   * P. Pracht, E. Caldeweyher, S. Ehlert, S. Grimme, ChemRxiv, 2019, preprint.
     DOI: 10.26434/chemrxiv.8326202.v1
   for GFN-FF:
   * S. Spicher and S. Grimme, Angew. Chem. Int. Ed., 2020, 59, 15665-15673.
     DOI: 10.1002/anie.202004239
   
   for ALPB and GBSA implicit solvation:
   * S. Ehlert, M. Stahn, S. Spicher, S. Grimme, J. Chem. Theory Comput.,
     2021, 17, 4250-4261. DOI: 10.1021/acs.jctc.1c00471
   
   for DFT-D4:
   * E. Caldeweyher, C. Bannwarth and S. Grimme, J. Chem. Phys., 2017,
     147, 034112. DOI: 10.1063/1.4993215
   * E. Caldeweyher, S. Ehlert, A. Hansen, H. Neugebauer, S. Spicher,
     C. Bannwarth and S. Grimme, J. Chem. Phys., 2019, 150, 154122.
     DOI: 10.1063/1.5090222
   * E. Caldeweyher, J.-M. Mewes, S. Ehlert and S. Grimme, Phys. Chem. Chem. Phys.
     2020, 22, 8499-8512. DOI: 10.1039/D0CP00502A
   
   for sTDA-xTB:
   * S. Grimme and C. Bannwarth, J. Chem. Phys., 2016, 145, 054103.
     DOI: 10.1063/1.4959605
   
   in the mass-spec context:
   * V. Asgeirsson, C. Bauer and S. Grimme, Chem. Sci., 2017, 8, 4879.
     DOI: 10.1039/c7sc00601b
   * J. Koopman and S. Grimme, ACS Omega 2019, 4, 12, 15120-15133.
     DOI: 10.1021/acsomega.9b02011
   
   for metadynamics refer to:
   * S. Grimme, J. Chem. Theory Comput., 2019, 155, 2847-2862
     DOI: 10.1021/acs.jctc.9b00143
   
   for SPH calculations refer to:
   * S. Spicher and S. Grimme, J. Chem. Theory Comput., 2021, 17, 1701-1714
     DOI: 10.1021/acs.jctc.0c01306
   
   with help from (in alphabetical order)
   P. Atkinson, C. Bannwarth, F. Bohle, G. Brandenburg, E. Caldeweyher
   M. Checinski, S. Dohm, S. Ehlert, S. Ehrlich, I. Gerasimov, C. Hölzer
   A. Katbashev, J. Koopman, C. Lavigne, S. Lehtola, F. März, M. Müller,
   F. Musil, H. Neugebauer, J. Pisarek, C. Plett, P. Pracht, F. Pultar,
   J. Seibert, P. Shushkov, S. Spicher, M. Stahn, M. Steiner, T. Strunk,
   J. Stückrath, T. Rose, and J. Unsleber
   
 * started run on 2023/06/20 at 15:09:35.283     

           -------------------------------------------------
          |                Calculation Setup                |
           -------------------------------------------------

          program call               : /lustre/hpc/kemi/ree/PhD/git/ReactivityQM/dep/xtb-6.5.1/bin/xtb --gfn 1 /lustre/hpc/kemi/ree/PhD/git/ReactivityQM/calculations/R02/reac01prodE09/conf10/R02_reac01prodE09_conf10_gfn1.xyz --opt --vfukui --chrg -1 --uhf 0 --alpb DMSO
          hostname                   : node315
          coordinate file            : /lustre/hpc/kemi/ree/PhD/git/ReactivityQM/calculations/R02/reac01prodE09/conf10/R02_reac01prodE09_conf10_gfn1.xyz
          omp threads                :                     1

   ID    Z sym.   atoms
    1    6 C      1, 3, 5, 7-10, 12, 14, 16, 17, 20, 22, 24
    2    8 O      2, 4, 13, 15, 23, 25
    3    7 N      6, 11, 18, 19, 21
    4    1 H      26-43

           -------------------------------------------------
          |                 G F N 1 - x T B                 |
           -------------------------------------------------

        Reference                      10.1021/acs.jctc.7b00118
      * Hamiltonian:
        H0-scaling (s, p, d)           1.850000    2.250000    2.000000
        zeta-weighting                 0.000000
      * Dispersion:
        s8                             2.400000
        a1                             0.630000
        a2                             5.000000
        s9                             0.000000
      * Repulsion:
        kExp                           1.500000
        rExp                           1.000000
      * Coulomb:
        alpha                          2.000000
        third order                    atomic
        anisotropic                    false
      * Halogen bond correction:
        rad-scale                      1.300000
        damping                        0.440000

      * Solvation model:               ALPB
        Solvent                        DMSO
        Parameter file                 internal GFN1-xTB/ALPB
        Dielectric constant                4.6680E+01
        Reference state                gsolv [1 M gas/solution]
        Free energy shift                  7.6243E-03 Eh       4.7843E+00 kcal/mol
        Temperature                        2.9815E+02 K
        Density                            1.1000E+00 kg/L
        Solvent mass                       7.8130E+01 g/mol
        Interaction kernel             P16
        Born radius scaling (c1)           1.7672E+00
        Born radii integrator          GBOBC
        Born offset                        0.0000E+00 a0       0.0000E+00 AA
        H-bond correction              true
        Ion screening                  false
        Surface tension                    1.0000E-05 Eh       1.5569E+01 dyn/cm
        Grid points                               230 per atom

          ...................................................
          :                      SETUP                      :
          :.................................................:
          :  # basis functions                 136          :
          :  # atomic orbitals                 136          :
          :  # shells                           86          :
          :  # electrons                       136          :
          :  # halogen bonds                     0          :
          :  max. iterations                   250          :
          :  Hamiltonian                  GFN1-xTB          :
          :  restarted?                      false          :
          :  GBSA solvation                   true          :
          :  PC potential                    false          :
          :  electronic temp.          300.0000000     K    :
          :  accuracy                    1.0000000          :
          :  -> integral cutoff          0.2500000E+02      :
          :  -> integral neglect         0.1000000E-07      :
          :  -> SCF convergence          0.1000000E-05 Eh   :
          :  -> wf. convergence          0.2000000E-04 e    :
          :  Broyden damping             0.4000000          :
          ...................................................

 iter      E             dE          RMSdq      gap      omega  full diag
   1    -84.3067009 -0.843067E+02  0.859E+00    0.18       0.0  T
   2    -84.2894614  0.172395E-01  0.536E+00    1.21       1.0  T
   3    -84.2562581  0.332032E-01  0.285E+00    0.34       1.0  T
   4    -84.4988842 -0.242626E+00  0.114E+00    1.65       1.0  T
   5    -84.5437891 -0.449049E-01  0.703E-01    0.94       1.0  T
   6    -84.3307713  0.213018E+00  0.137E+00    0.59       1.0  T
   7    -84.5459068 -0.215135E+00  0.634E-01    0.74       1.0  T
   8    -84.5529933 -0.708654E-02  0.535E-01    0.29       1.0  T
   9    -84.5541709 -0.117756E-02  0.495E-01    0.02       1.0  T
  10    -84.5525857  0.158521E-02  0.535E-01    0.29       1.0  T
  11    -84.5679844 -0.153987E-01  0.406E-01    0.14       1.0  T
  12    -84.5645133  0.347110E-02  0.427E-01    0.01       1.0  T
  13    -84.5764709 -0.119576E-01  0.326E-01    0.11       1.0  T
  14    -84.5906710 -0.142001E-01  0.110E-01    0.03       1.0  T
  15    -84.5915841 -0.913151E-03  0.790E-02    0.06       1.0  T
  16    -84.5924391 -0.854946E-03  0.252E-02    0.04       1.0  T
  17    -84.5925088 -0.697211E-04  0.134E-02    0.05       1.1  T
  18    -84.5925360 -0.272370E-04  0.137E-03    0.05      11.1  T
  19    -84.5925356  0.463099E-06  0.222E-03    0.05       6.9  T
  20    -84.5925363 -0.748622E-06  0.110E-04    0.05     138.0  T
  21    -84.5925363 -0.179318E-08  0.236E-05    0.05     647.2  T

   *** convergence criteria satisfied after 21 iterations ***

         #    Occupation            Energy/Eh            Energy/eV
      -------------------------------------------------------------
         1        2.0000           -0.8166918             -22.2233
       ...           ...                  ...                  ...
        62        2.0000           -0.4212444             -11.4626
        63        2.0000           -0.4142910             -11.2734
        64        2.0000           -0.4083671             -11.1122
        65        2.0000           -0.4040946             -10.9960
        66        2.0000           -0.3925531             -10.6819
        67        2.0000           -0.3869748             -10.5301
        68        1.4370           -0.2891691              -7.8687 (HOMO)
        69        0.5630           -0.2873886              -7.8202 (LUMO)
        70                         -0.2471748              -6.7260
        71                         -0.2422440              -6.5918
        72                         -0.2016267              -5.4865
        73                         -0.1498010              -4.0763
       ...                                ...                  ...
       136                          0.7315785              19.9073
      -------------------------------------------------------------
                  HL-Gap            0.0017806 Eh            0.0485 eV
             Fermi-level           -0.2882789 Eh           -7.8445 eV

 SCC (total)                   0 d,  0 h,  0 min,  0.198 sec
 SCC setup                      ...        0 min,  0.002 sec (  1.158%)
 Dispersion                     ...        0 min,  0.000 sec (  0.224%)
 classical contributions        ...        0 min,  0.000 sec (  0.072%)
 integral evaluation            ...        0 min,  0.035 sec ( 17.664%)
 iterations                     ...        0 min,  0.077 sec ( 38.739%)
 molecular gradient             ...        0 min,  0.082 sec ( 41.593%)
 printout                       ...        0 min,  0.001 sec (  0.521%)

         :::::::::::::::::::::::::::::::::::::::::::::::::::::
         ::                     SUMMARY                     ::
         :::::::::::::::::::::::::::::::::::::::::::::::::::::
         :: total energy             -83.837535580823 Eh    ::
         :: total w/o Gsasa/hb       -83.813910832029 Eh    ::
         :: gradient norm              0.124497613309 Eh/a0 ::
         :: HOMO-LUMO gap              0.048452283659 eV    ::
         ::.................................................::
         :: SCC energy               -84.592536307531 Eh    ::
         :: -> electrostatic           0.439207323710 Eh    ::
         :: -> Gsolv                  -0.104273370586 Eh    ::
         ::    -> Gelec               -0.080648621792 Eh    ::
         ::    -> Gsasa               -0.025250322031 Eh    ::
         ::    -> Ghb                 -0.005998705768 Eh    ::
         ::    -> Gshift               0.007624279005 Eh    ::
         :: repulsion energy           0.780579557674 Eh    ::
         :: dispersion energy         -0.025578830966 Eh    ::
         :: halogen bond corr.         0.000000000000 Eh    ::
         :: add. restraining           0.000000000000 Eh    ::
         :: total charge              -1.000000000000 e     ::
         :::::::::::::::::::::::::::::::::::::::::::::::::::::

      ----------------------------------------------------------- 
     |                   =====================                   |
     |                        A N C O P T                        |
     |                   =====================                   |
     |               Approximate Normal Coordinate               |
     |                Rational Function Optimizer                |
      ----------------------------------------------------------- 

          ...................................................
          :                      SETUP                      :
          :.................................................:
          :   optimization level            normal          :
          :   max. optcycles                   200          :
          :   ANC micro-cycles                  20          :
          :   degrees of freedom               123          :
          :.................................................:
          :   RF solver                   davidson          :
          :   write xtbopt.log                true          :
          :   linear?                        false          :
          :   energy convergence         0.5000000E-05 Eh   :
          :   grad. convergence          0.1000000E-02 Eh/α :
          :   maximium RF displ.         1.0000000          :
          :   Hlow (freq-cutoff)         0.1000000E-01      :
          :   Hmax (freq-cutoff)         5.0000000          :
          :   S6 in model hess.         20.0000000          :
          ...................................................

generating ANC from model Hessian ...
Using Lindh-Hessian (1995)
 Shifting diagonal of input Hessian by   9.815979208050123E-003
 Lowest  eigenvalues of input Hessian
    0.000000    0.000000    0.000000    0.000000    0.000000    0.000000
    0.010000    0.010149    0.010223    0.010835    0.011873    0.012296
    0.012697    0.014123    0.014313    0.015479    0.015990    0.016145
 Highest eigenvalues
    1.975613    2.051513    2.161146    2.253247    2.291632    2.411620
 

........................................................................
.............................. CYCLE    1 ..............................
........................................................................
   1    -84.5925363 -0.845925E+02  0.455E-05    0.05       0.0  T
   2    -84.5925362  0.111431E-06  0.856E-04    0.05      17.8  T
   3    -84.5925363 -0.111748E-06  0.285E-06    0.05    5345.2  T
   4    -84.5925363 -0.117950E-11  0.398E-07    0.05   38277.6  T
     SCC iter.                  ...        0 min,  0.015 sec
     gradient                   ...        0 min,  0.083 sec
 * total energy  :   -83.8375356 Eh     change       -0.8238032E-10 Eh
   gradient norm :     0.1244977 Eh/α   predicted     0.0000000E+00 (-100.00%)
   displ. norm   :     0.2435283 α      lambda       -0.1431053E-01
   maximum displ.:     0.0914147 α      in ANC's #25, #32, #6, ...

........................................................................
.............................. CYCLE    2 ..............................
........................................................................
   1    -84.5908366 -0.845908E+02  0.253E-01    0.09       0.0  T
   2    -84.3381503  0.252686E+00  0.137E+00    0.59       1.0  T
   3    -84.5702283 -0.232078E+00  0.439E-01    0.01       1.0  T
   4    -84.5719343 -0.170594E-02  0.433E-01    0.17       1.0  T
   5    -84.5944432 -0.225089E-01  0.189E-01    0.08       1.0  T
   6    -84.5966620 -0.221886E-02  0.147E-01    0.03       1.0  T
   7    -84.5997430 -0.308099E-02  0.396E-02    0.06       1.0  T
   8    -84.5998909 -0.147881E-03  0.248E-02    0.05       1.0  T
   9    -84.5999853 -0.943476E-04  0.215E-03    0.05       7.1  T
  10    -84.5999859 -0.684896E-06  0.403E-04    0.05      37.8  T
  11    -84.5999859  0.917365E-08  0.466E-04    0.05      32.7  T
  12    -84.5999860 -0.315361E-07  0.113E-04    0.05     134.6  T
  13    -84.5999860 -0.125614E-08  0.682E-05    0.05     223.7  T
     SCC iter.                  ...        0 min,  0.046 sec
     gradient                   ...        0 min,  0.082 sec
 * total energy  :   -83.8477716 Eh     change       -0.1023601E-01 Eh
   gradient norm :     0.0558410 Eh/α   predicted    -0.7584867E-02 ( -25.90%)
   displ. norm   :     0.2770243 α      lambda       -0.5947767E-02
   maximum displ.:     0.1008718 α      in ANC's #6, #7, #25, ...

........................................................................
.............................. CYCLE    3 ..............................
........................................................................
   1    -84.5961601 -0.845962E+02  0.266E-01    0.10       0.0  T
   2    -84.3382767  0.257883E+00  0.139E+00    0.64       1.0  T
   3    -84.5576061 -0.219329E+00  0.564E-01    0.02       1.0  T
   4    -84.5799924 -0.223863E-01  0.420E-01    0.17       1.0  T
   5    -84.6025018 -0.225094E-01  0.164E-01    0.08       1.0  T
   6    -84.6048172 -0.231545E-02  0.112E-01    0.04       1.0  T
   7    -84.6066906 -0.187334E-02  0.197E-02    0.06       1.0  T
   8    -84.6067130 -0.224329E-04  0.159E-02    0.05       1.0  T
   9    -84.6067497 -0.366701E-04  0.408E-03    0.05       3.7  T
  10    -84.6067523 -0.256776E-05  0.180E-04    0.05      84.9  T
  11    -84.6067523 -0.398883E-08  0.224E-05    0.05     680.9  T
  12    -84.6067523  0.410367E-09  0.547E-05    0.05     278.9  T
     SCC iter.                  ...        0 min,  0.043 sec
     gradient                   ...        0 min,  0.082 sec
 * total energy  :   -83.8512823 Eh     change       -0.3510701E-02 Eh
   gradient norm :     0.0158504 Eh/α   predicted    -0.3203145E-02 (  -8.76%)
   displ. norm   :     0.2096602 α      lambda       -0.9965854E-03
   maximum displ.:     0.0926377 α      in ANC's #6, #7, #13, ...

........................................................................
.............................. CYCLE    4 ..............................
........................................................................
   1    -84.6047851 -0.846048E+02  0.131E-01    0.08       0.0  T
   2    -84.3542739  0.250511E+00  0.130E+00    0.30       1.0  T
   3    -84.6052437 -0.250970E+00  0.122E-01    0.04       1.0  T
   4    -84.6072847 -0.204107E-02  0.344E-02    0.06       1.0  T
   5    -84.6071181  0.166660E-03  0.486E-02    0.05       1.0  T
   6    -84.6074677 -0.349631E-03  0.631E-03    0.05       2.4  T
   7    -84.6074738 -0.612673E-05  0.127E-03    0.05      12.0  T
   8    -84.6074739 -0.653105E-07  0.106E-03    0.05      14.3  T
   9    -84.6074741 -0.170893E-06  0.171E-04    0.05      89.0  T
  10    -84.6074741 -0.406648E-08  0.587E-05    0.05     259.7  T
     SCC iter.                  ...        0 min,  0.036 sec
     gradient                   ...        0 min,  0.082 sec
 * total energy  :   -83.8520606 Eh     change       -0.7783542E-03 Eh
   gradient norm :     0.0154749 Eh/α   predicted    -0.5201991E-03 ( -33.17%)
   displ. norm   :     0.3693595 α      lambda       -0.1224602E-02
   maximum displ.:     0.1637441 α      in ANC's #6, #7, #13, ...

........................................................................
.............................. CYCLE    5 ..............................
........................................................................
   1    -84.5997484 -0.845997E+02  0.215E-01    0.10       0.0  T
   2    -84.3358904  0.263858E+00  0.138E+00    0.53       1.0  T
   3    -84.5821874 -0.246297E+00  0.402E-01    0.01       1.0  T
   4    -84.6007665 -0.185791E-01  0.199E-01    0.09       1.0  T
   5    -84.6057731 -0.500654E-02  0.907E-02    0.04       1.0  T
   6    -84.6066757 -0.902671E-03  0.465E-02    0.05       1.0  T
   7    -84.6070003 -0.324565E-03  0.256E-03    0.06       6.0  T
   8    -84.6070013 -0.968453E-06  0.725E-04    0.05      21.0  T
   9    -84.6070010  0.280481E-06  0.153E-03    0.06      10.0  T
  10    -84.6070013 -0.338617E-06  0.366E-04    0.05      41.7  T
  11    -84.6070014 -0.210443E-07  0.122E-05    0.06    1254.5  T
  12    -84.6070014  0.265345E-09  0.432E-05    0.06     352.6  T
     SCC iter.                  ...        0 min,  0.042 sec
     gradient                   ...        0 min,  0.080 sec
 * total energy  :   -83.8529399 Eh     change       -0.8792108E-03 Eh
   gradient norm :     0.0156032 Eh/α   predicted    -0.6958464E-03 ( -20.86%)
   displ. norm   :     0.3802668 α      lambda       -0.9278319E-03
   maximum displ.:     0.1593064 α      in ANC's #6, #7, #11, ...

........................................................................
.............................. CYCLE    6 ..............................
........................................................................
   1    -84.5944637 -0.845945E+02  0.278E-01    0.12       0.0  T
   2    -84.3200008  0.274463E+00  0.144E+00    0.69       1.0  T
   3    -84.5414538 -0.221453E+00  0.650E-01    0.03       1.0  T
   4    -84.6008110 -0.593572E-01  0.190E-01    0.09       1.0  T
   5    -84.6061352 -0.532421E-02  0.537E-02    0.05       1.0  T
   6    -84.6060997  0.354750E-04  0.544E-02    0.05       1.0  T
   7    -84.6065384 -0.438715E-03  0.150E-03    0.06      10.1  T
   8    -84.6065386 -0.122526E-06  0.651E-04    0.06      23.4  T
   9    -84.6065380  0.559065E-06  0.200E-03    0.06       7.6  T
  10    -84.6065386 -0.604985E-06  0.301E-04    0.06      50.6  T
  11    -84.6065386 -0.108014E-07  0.147E-04    0.06     104.0  T
  12    -84.6065386 -0.322476E-08  0.344E-05    0.06     442.7  T
     SCC iter.                  ...        0 min,  0.041 sec
     gradient                   ...        0 min,  0.079 sec
 * total energy  :   -83.8537020 Eh     change       -0.7621521E-03 Eh
   gradient norm :     0.0156227 Eh/α   predicted    -0.5310045E-03 ( -30.33%)
   displ. norm   :     0.5628439 α      lambda       -0.1441769E-02
   maximum displ.:     0.2275099 α      in ANC's #11, #6, #10, ...

........................................................................
.............................. CYCLE    7 ..............................
........................................................................
   1    -84.5814910 -0.845815E+02  0.392E-01    0.21       0.0  T
   2    -84.2871972  0.294294E+00  0.155E+00    0.93       1.0  T
   3    -84.4890492 -0.201852E+00  0.872E-01    0.05       1.0  T
   4    -84.5921645 -0.103115E+00  0.282E-01    0.14       1.0  T
   5    -84.6049561 -0.127915E-01  0.155E-02    0.06       1.0  T
   6    -84.6028404  0.211567E-02  0.119E-01    0.05       1.0  T
   7    -84.6048750 -0.203456E-02  0.234E-02    0.07       1.0  T
   8    -84.6049605 -0.855190E-04  0.449E-03    0.06       3.4  T
   9    -84.6049590  0.145457E-05  0.544E-03    0.06       2.8  T
  10    -84.6049634 -0.440361E-05  0.962E-04    0.06      15.8  T
  11    -84.6049635 -0.101960E-06  0.490E-04    0.06      31.1  T
  12    -84.6049636 -0.359013E-07  0.103E-04    0.06     148.0  T
  13    -84.6049636 -0.164971E-08  0.126E-05    0.06    1207.5  T
     SCC iter.                  ...        0 min,  0.045 sec
     gradient                   ...        0 min,  0.079 sec
 * total energy  :   -83.8548608 Eh     change       -0.1158807E-02 Eh
   gradient norm :     0.0211869 Eh/α   predicted    -0.9494385E-03 ( -18.07%)
   displ. norm   :     0.4973707 α      lambda       -0.1529116E-02
   maximum displ.:     0.2206183 α      in ANC's #11, #10, #14, ...

........................................................................
.............................. CYCLE    8 ..............................
........................................................................
   1    -84.5840362 -0.845840E+02  0.381E-01    0.27       0.0  T
   2    -84.2682757  0.315760E+00  0.159E+00    0.84       1.0  T
   3    -84.5836987 -0.315423E+00  0.391E-01    0.02       1.0  T
   4    -84.5953693 -0.116706E-01  0.251E-01    0.14       1.0  T
   5    -84.6029909 -0.762156E-02  0.135E-01    0.05       1.0  T
   6    -84.6054512 -0.246031E-02  0.139E-02    0.07       1.1  T
   7    -84.6054658 -0.145772E-04  0.634E-03    0.07       2.4  T
   8    -84.6054699 -0.416783E-05  0.301E-03    0.07       5.1  T
   9    -84.6054704 -0.410722E-06  0.248E-03    0.07       6.1  T
  10    -84.6054710 -0.628010E-06  0.140E-03    0.07      10.9  T
  11    -84.6054713 -0.273453E-06  0.427E-04    0.07      35.7  T
  12    -84.6054713 -0.259432E-07  0.110E-04    0.07     139.3  T
  13    -84.6054713 -0.134884E-08  0.588E-05    0.07     259.1  T
     SCC iter.                  ...        0 min,  0.044 sec
     gradient                   ...        0 min,  0.080 sec
 * total energy  :   -83.8558743 Eh     change       -0.1013479E-02 Eh
   gradient norm :     0.0268328 Eh/α   predicted    -0.9537018E-03 (  -5.90%)
   displ. norm   :     0.2405835 α      lambda       -0.1379963E-02
   maximum displ.:     0.0813159 α      in ANC's #11, #8, #12, ...

........................................................................
.............................. CYCLE    9 ..............................
........................................................................
   1    -84.6022106 -0.846022E+02  0.286E-01    0.17       0.0  T
   2    -84.2791528  0.323058E+00  0.155E+00    0.66       1.0  T
   3    -84.5975116 -0.318359E+00  0.336E-01    0.03       1.0  T
   4    -84.6098961 -0.123845E-01  0.170E-01    0.11       1.0  T
   5    -84.6144047 -0.450864E-02  0.892E-03    0.07       1.7  T
   6    -84.6143930  0.117216E-04  0.110E-02    0.07       1.4  T
   7    -84.6144031 -0.100825E-04  0.604E-03    0.08       2.5  T
   8    -84.6144089 -0.582059E-05  0.287E-04    0.07      53.2  T
   9    -84.6144088  0.986329E-07  0.847E-04    0.07      18.0  T
  10    -84.6144089 -0.969408E-07  0.285E-04    0.07      53.6  T
  11    -84.6144089 -0.120829E-07  0.508E-05    0.07     300.1  T
  12    -84.6144089 -0.290285E-09  0.247E-05    0.07     616.2  T
     SCC iter.                  ...        0 min,  0.041 sec
     gradient                   ...        0 min,  0.080 sec
 * total energy  :   -83.8568083 Eh     change       -0.9340287E-03 Eh
   gradient norm :     0.0224480 Eh/α   predicted    -0.7299186E-03 ( -21.85%)
   displ. norm   :     0.3941812 α      lambda       -0.1408769E-02
   maximum displ.:     0.1814200 α      in ANC's #11, #14, #12, ...

........................................................................
.............................. CYCLE   10 ..............................
........................................................................
   1    -84.5981229 -0.845981E+02  0.300E-01    0.21       0.0  T
   2    -84.2595579  0.338565E+00  0.160E+00    0.67       1.0  T
   3    -84.6047272 -0.345169E+00  0.220E-01    0.05       1.0  T
   4    -84.6098981 -0.517091E-02  0.100E-01    0.10       1.0  T
   5    -84.6070867  0.281143E-02  0.173E-01    0.05       1.0  T
   6    -84.6113661 -0.427941E-02  0.326E-02    0.09       1.0  T
   7    -84.6115341 -0.167988E-03  0.344E-03    0.08       4.4  T
   8    -84.6115344 -0.284294E-06  0.291E-03    0.08       5.2  T
   9    -84.6115355 -0.113248E-05  0.970E-04    0.08      15.7  T
  10    -84.6115356 -0.137660E-06  0.135E-04    0.08     112.9  T
  11    -84.6115356 -0.260712E-08  0.368E-05    0.08     414.0  T
     SCC iter.                  ...        0 min,  0.038 sec
     gradient                   ...        0 min,  0.080 sec
 * total energy  :   -83.8575383 Eh     change       -0.7299391E-03 Eh
   gradient norm :     0.0174062 Eh/α   predicted    -0.8138799E-03 (  11.50%)
   displ. norm   :     0.3065096 α      lambda       -0.1296615E-02
   maximum displ.:     0.1401316 α      in ANC's #6, #7, #11, ...

........................................................................
.............................. CYCLE   11 ..............................
........................................................................
   1    -84.6144526 -0.846145E+02  0.158E-01    0.05       0.0  T
   2    -84.5970851  0.173675E-01  0.434E-01    0.52       1.0  T
   3    -84.6048614 -0.777630E-02  0.313E-01    0.20       1.0  T
   4    -84.6170984 -0.122369E-01  0.106E-01    0.10       1.0  T
   5    -84.6101432  0.695512E-02  0.234E-01    0.04       1.0  T
   6    -84.6128703 -0.272703E-02  0.198E-01    0.13       1.0  T
   7    -84.6185252 -0.565492E-02  0.252E-02    0.07       1.0  T
   8    -84.6185864 -0.611646E-04  0.153E-02    0.08       1.0  T
   9    -84.6186211 -0.347032E-04  0.207E-03    0.08       7.4  T
  10    -84.6186214 -0.322270E-06  0.149E-03    0.08      10.2  T
  11    -84.6186217 -0.332329E-06  0.148E-04    0.08     102.9  T
  12    -84.6186217 -0.292417E-08  0.518E-05    0.08     294.2  T
     SCC iter.                  ...        0 min,  0.041 sec
     gradient                   ...        0 min,  0.080 sec
 * total energy  :   -83.8581046 Eh     change       -0.5663265E-03 Eh
   gradient norm :     0.0163857 Eh/α   predicted    -0.7092388E-03 (  25.23%)
   displ. norm   :     0.2646443 α      lambda       -0.6448323E-03
   maximum displ.:     0.1370839 α      in ANC's #11, #14, #12, ...

........................................................................
.............................. CYCLE   12 ..............................
........................................................................
   1    -84.6071404 -0.846071E+02  0.239E-01    0.16       0.0  T
   2    -84.2664766  0.340664E+00  0.158E+00    0.54       1.0  T
   3    -84.6094462 -0.342970E+00  0.213E-01    0.05       1.0  T
   4    -84.6152854 -0.583921E-02  0.588E-02    0.09       1.0  T
   5    -84.6133767  0.190871E-02  0.130E-01    0.06       1.0  T
   6    -84.6157494 -0.237264E-02  0.260E-02    0.09       1.0  T
   7    -84.6158537 -0.104308E-03  0.360E-03    0.08       4.2  T
   8    -84.6158551 -0.147395E-05  0.181E-03    0.08       8.4  T
   9    -84.6158556 -0.419923E-06  0.671E-04    0.08      22.7  T
  10    -84.6158556 -0.651527E-07  0.924E-05    0.08     165.0  T
  11    -84.6158556 -0.119442E-09  0.881E-05    0.08     173.1  T
     SCC iter.                  ...        0 min,  0.038 sec
     gradient                   ...        0 min,  0.080 sec
 * total energy  :   -83.8584783 Eh     change       -0.3737464E-03 Eh
   gradient norm :     0.0152919 Eh/α   predicted    -0.3450266E-03 (  -7.68%)
   displ. norm   :     0.2096092 α      lambda       -0.6616689E-03
   maximum displ.:     0.0838240 α      in ANC's #14, #6, #5, ...

........................................................................
.............................. CYCLE   13 ..............................
........................................................................
   1    -84.6159441 -0.846159E+02  0.782E-02    0.07       0.0  T
   2    -84.6005552  0.153889E-01  0.348E-01    0.28       1.0  T
   3    -84.6152692 -0.147139E-01  0.101E-01    0.10       1.0  T
   4    -84.6133636  0.190556E-02  0.151E-01    0.05       1.0  T
   5    -84.6168065 -0.344285E-02  0.327E-03    0.08       4.7  T
   6    -84.6167824  0.240139E-04  0.128E-02    0.08       1.2  T
   7    -84.6168066 -0.241270E-04  0.357E-04    0.08      42.7  T
   8    -84.6168066  0.356725E-08  0.337E-04    0.08      45.3  T
   9    -84.6168066 -0.148063E-07  0.117E-04    0.08     130.0  T
  10    -84.6168066 -0.965201E-09  0.809E-05    0.08     188.4  T
     SCC iter.                  ...        0 min,  0.034 sec
     gradient                   ...        0 min,  0.086 sec
 * total energy  :   -83.8587942 Eh     change       -0.3158656E-03 Eh
   gradient norm :     0.0122804 Eh/α   predicted    -0.3453722E-03 (   9.34%)
   displ. norm   :     0.1865199 α      lambda       -0.3030066E-03
   maximum displ.:     0.0767902 α      in ANC's #12, #11, #14, ...

........................................................................
.............................. CYCLE   14 ..............................
........................................................................
   1    -84.6155137 -0.846155E+02  0.506E-02    0.09       0.0  T
   2    -84.4808165  0.134697E+00  0.944E-01    0.05       1.0  T
   3    -84.6156929 -0.134876E+00  0.330E-02    0.09       1.0  T
   4    -84.6158609 -0.168014E-03  0.315E-03    0.08       4.8  T
   5    -84.6158586  0.237694E-05  0.452E-03    0.08       3.4  T
   6    -84.6158593 -0.697616E-06  0.342E-03    0.08       4.5  T
   7    -84.6158607 -0.143431E-05  0.139E-03    0.08      11.0  T
   8    -84.6158610 -0.284639E-06  0.386E-05    0.08     395.4  T
   9    -84.6158610 -0.128949E-09  0.109E-05    0.08    1394.8  T
     SCC iter.                  ...        0 min,  0.031 sec
     gradient                   ...        0 min,  0.081 sec
 * total energy  :   -83.8590175 Eh     change       -0.2233055E-03 Eh
   gradient norm :     0.0096126 Eh/α   predicted    -0.1567822E-03 ( -29.79%)
   displ. norm   :     0.2246580 α      lambda       -0.2972664E-03
   maximum displ.:     0.0999962 α      in ANC's #12, #7, #14, ...

........................................................................
.............................. CYCLE   15 ..............................
........................................................................
   1    -84.6156336 -0.846156E+02  0.430E-02    0.09       0.0  T
   2    -84.5287303  0.869034E-01  0.759E-01    0.02       1.0  T
   3    -84.6156215 -0.868912E-01  0.402E-02    0.09       1.0  T
   4    -84.6158556 -0.234173E-03  0.907E-03    0.08       1.7  T
   5    -84.6158667 -0.110339E-04  0.186E-03    0.08       8.2  T
   6    -84.6158661  0.530011E-06  0.224E-03    0.08       6.8  T
   7    -84.6158667 -0.597464E-06  0.955E-04    0.08      16.0  T
   8    -84.6158669 -0.134404E-06  0.103E-04    0.08     147.5  T
   9    -84.6158669 -0.124068E-08  0.469E-05    0.08     325.2  T
     SCC iter.                  ...        0 min,  0.031 sec
     gradient                   ...        0 min,  0.081 sec
 * total energy  :   -83.8592084 Eh     change       -0.1908855E-03 Eh
   gradient norm :     0.0054439 Eh/α   predicted    -0.1561369E-03 ( -18.20%)
   displ. norm   :     0.1731451 α      lambda       -0.1224394E-03
   maximum displ.:     0.0715792 α      in ANC's #12, #14, #7, ...

........................................................................
.............................. CYCLE   16 ..............................
........................................................................
   1    -84.6153120 -0.846153E+02  0.898E-02    0.10       0.0  T
   2    -84.3213241  0.293988E+00  0.140E+00    0.16       1.0  T
   3    -84.6165053 -0.295181E+00  0.114E-02    0.08       1.3  T
   4    -84.6164974  0.786675E-05  0.141E-02    0.08       1.1  T
   5    -84.6165160 -0.185595E-04  0.803E-03    0.08       1.9  T
   6    -84.6165239 -0.795122E-05  0.204E-03    0.08       7.5  T
   7    -84.6165244 -0.469097E-06  0.836E-04    0.08      18.2  T
   8    -84.6165245 -0.971060E-07  0.156E-04    0.08      98.1  T
   9    -84.6165245 -0.275102E-08  0.567E-05    0.08     269.0  T
     SCC iter.                  ...        0 min,  0.031 sec
     gradient                   ...        0 min,  0.081 sec
 * total energy  :   -83.8592956 Eh     change       -0.8725338E-04 Eh
   gradient norm :     0.0043913 Eh/α   predicted    -0.6305545E-04 ( -27.73%)
   displ. norm   :     0.1765951 α      lambda       -0.1155559E-03
   maximum displ.:     0.0887656 α      in ANC's #12, #14, #3, ...

........................................................................
.............................. CYCLE   17 ..............................
........................................................................
   1    -84.6159359 -0.846159E+02  0.745E-02    0.10       0.0  T
   2    -84.3589902  0.256946E+00  0.131E+00    0.12       1.0  T
   3    -84.6167161 -0.257726E+00  0.178E-02    0.09       1.0  T
   4    -84.6167623 -0.462276E-04  0.540E-03    0.08       2.8  T
   5    -84.6167642 -0.185200E-05  0.383E-03    0.08       4.0  T
   6    -84.6167651 -0.935191E-06  0.254E-03    0.08       6.0  T
   7    -84.6167660 -0.879808E-06  0.641E-04    0.08      23.8  T
   8    -84.6167660 -0.579073E-07  0.112E-04    0.08     136.7  T
   9    -84.6167660 -0.136144E-08  0.443E-05    0.08     343.9  T
     SCC iter.                  ...        0 min,  0.031 sec
     gradient                   ...        0 min,  0.081 sec
 * total energy  :   -83.8593700 Eh     change       -0.7432279E-04 Eh
   gradient norm :     0.0039409 Eh/α   predicted    -0.5958355E-04 ( -19.83%)
   displ. norm   :     0.1571241 α      lambda       -0.7689524E-04
   maximum displ.:     0.0760101 α      in ANC's #3, #4, #2, ...

........................................................................
.............................. CYCLE   18 ..............................
........................................................................
   1    -84.6170553 -0.846171E+02  0.584E-02    0.10       0.0  T
   2    -84.4250976  0.191958E+00  0.113E+00    0.07       1.0  T
   3    -84.6175406 -0.192443E+00  0.136E-02    0.09       1.1  T
   4    -84.6175679 -0.273203E-04  0.355E-03    0.08       4.3  T
   5    -84.6175676  0.352646E-06  0.356E-03    0.08       4.3  T
   6    -84.6175682 -0.591007E-06  0.272E-03    0.08       5.6  T
   7    -84.6175692 -0.103797E-05  0.601E-04    0.08      25.4  T
   8    -84.6175693 -0.507908E-07  0.124E-04    0.08     123.3  T
   9    -84.6175693 -0.184050E-08  0.420E-05    0.08     363.1  T
     SCC iter.                  ...        0 min,  0.031 sec
     gradient                   ...        0 min,  0.080 sec
 * total energy  :   -83.8594214 Eh     change       -0.5141246E-04 Eh
   gradient norm :     0.0040286 Eh/α   predicted    -0.3940191E-04 ( -23.36%)
   displ. norm   :     0.1680296 α      lambda       -0.6915520E-04
   maximum displ.:     0.0806997 α      in ANC's #3, #12, #2, ...

........................................................................
.............................. CYCLE   19 ..............................
........................................................................
   1    -84.6158085 -0.846158E+02  0.737E-02    0.10       0.0  T
   2    -84.3557448  0.260064E+00  0.131E+00    0.12       1.0  T
   3    -84.6166497 -0.260905E+00  0.387E-03    0.09       3.9  T
   4    -84.6166344  0.152365E-04  0.114E-02    0.08       1.3  T
   5    -84.6166396 -0.519813E-05  0.931E-03    0.08       1.6  T
   6    -84.6166497 -0.101127E-04  0.373E-03    0.08       4.1  T
   7    -84.6166517 -0.197635E-05  0.614E-04    0.08      24.8  T
   8    -84.6166518 -0.485513E-07  0.184E-04    0.08      82.7  T
   9    -84.6166518 -0.446381E-08  0.419E-05    0.08     363.7  T
     SCC iter.                  ...        0 min,  0.031 sec
     gradient                   ...        0 min,  0.081 sec
 * total energy  :   -83.8594693 Eh     change       -0.4790768E-04 Eh
   gradient norm :     0.0032321 Eh/α   predicted    -0.3555722E-04 ( -25.78%)
   displ. norm   :     0.1984429 α      lambda       -0.8015014E-04
   maximum displ.:     0.1099001 α      in ANC's #3, #2, #4, ...

........................................................................
.............................. CYCLE   20 ..............................
........................................................................
   1    -84.6172005 -0.846172E+02  0.378E-02    0.08       0.0  T
   2    -84.6074616  0.973888E-02  0.265E-01    0.18       1.0  T
   3    -84.6172265 -0.976488E-02  0.363E-02    0.09       1.0  T
   4    -84.6174037 -0.177168E-03  0.960E-03    0.08       1.6  T
   5    -84.6173671  0.365532E-04  0.185E-02    0.09       1.0  T
   6    -84.6174154 -0.482618E-04  0.369E-03    0.08       4.1  T
   7    -84.6174174 -0.205642E-05  0.182E-04    0.08      83.7  T
   8    -84.6174174 -0.459053E-08  0.482E-05    0.08     316.5  T
   9    -84.6174174 -0.210846E-09  0.258E-05    0.08     590.4  T
     SCC iter.                  ...        0 min,  0.031 sec
     gradient                   ...        0 min,  0.080 sec
 * total energy  :   -83.8595192 Eh     change       -0.4992615E-04 Eh
   gradient norm :     0.0041658 Eh/α   predicted    -0.4165503E-04 ( -16.57%)
   displ. norm   :     0.1777744 α      lambda       -0.6658692E-04
   maximum displ.:     0.0942037 α      in ANC's #3, #2, #4, ...
 * RMSD in coord.:     0.5299527 α      energy gain  -0.2198363E-01 Eh

generating ANC from model Hessian ...
Using Lindh-Hessian (1995)
 Shifting diagonal of input Hessian by   9.791589753094047E-003
 Lowest  eigenvalues of input Hessian
    0.000000    0.000000    0.000000    0.000000    0.000000    0.000000
    0.010000    0.010130    0.010194    0.010852    0.011948    0.012168
    0.012779    0.014059    0.014405    0.014527    0.016269    0.016381
 Highest eigenvalues
    2.000323    2.108475    2.171604    2.219285    2.317479    2.398284
 

........................................................................
.............................. CYCLE   21 ..............................
........................................................................
   1    -84.6159761 -0.846160E+02  0.480E-02    0.10       0.0  T
   2    -84.4714855  0.144491E+00  0.979E-01    0.05       1.0  T
   3    -84.6163394 -0.144854E+00  0.732E-03    0.08       2.1  T
   4    -84.6162900  0.494256E-04  0.198E-02    0.08       1.0  T
   5    -84.6163176 -0.276078E-04  0.137E-02    0.08       1.1  T
   6    -84.6163399 -0.222675E-04  0.547E-03    0.08       2.8  T
   7    -84.6163441 -0.419618E-05  0.119E-03    0.08      12.8  T
   8    -84.6163443 -0.189016E-06  0.336E-04    0.08      45.4  T
   9    -84.6163443 -0.156431E-07  0.405E-05    0.08     376.5  T
  10    -84.6163443 -0.626130E-10  0.331E-05    0.08     460.9  T
     SCC iter.                  ...        0 min,  0.034 sec
     gradient                   ...        0 min,  0.082 sec
 * total energy  :   -83.8595685 Eh     change       -0.4926577E-04 Eh
   gradient norm :     0.0041842 Eh/α   predicted     0.0000000E+00 (-100.00%)
   displ. norm   :     0.0364572 α      lambda       -0.4526693E-04
   maximum displ.:     0.0146474 α      in ANC's #2, #3, #9, ...

........................................................................
.............................. CYCLE   22 ..............................
........................................................................
   1    -84.6167211 -0.846167E+02  0.804E-03    0.09       0.0  T
   2    -84.6146677  0.205332E-02  0.118E-01    0.06       1.0  T
   3    -84.6167290 -0.206126E-02  0.409E-03    0.08       3.7  T
   4    -84.6167290  0.103175E-07  0.384E-03    0.08       4.0  T
   5    -84.6167307 -0.166178E-05  0.144E-03    0.08      10.6  T
   6    -84.6167309 -0.279422E-06  0.174E-04    0.08      87.8  T
   7    -84.6167309 -0.421008E-08  0.177E-05    0.08     860.3  T
     SCC iter.                  ...        0 min,  0.024 sec
     gradient                   ...        0 min,  0.082 sec
 * total energy  :   -83.8596084 Eh     change       -0.3990333E-04 Eh
   gradient norm :     0.0021844 Eh/α   predicted    -0.2421878E-04 ( -39.31%)
   displ. norm   :     0.1113648 α      lambda       -0.8879950E-04
   maximum displ.:     0.0487872 α      in ANC's #2, #3, #9, ...

........................................................................
.............................. CYCLE   23 ..............................
........................................................................
   1    -84.6171770 -0.846172E+02  0.107E-02    0.09       0.0  T
   2    -84.6136176  0.355932E-02  0.155E-01    0.06       1.0  T
   3    -84.6171877 -0.357005E-02  0.729E-03    0.08       2.1  T
   4    -84.6171860  0.171312E-05  0.755E-03    0.08       2.0  T
   5    -84.6171923 -0.627026E-05  0.296E-03    0.08       5.2  T
   6    -84.6171934 -0.119060E-05  0.485E-04    0.08      31.4  T
   7    -84.6171935 -0.335638E-07  0.351E-05    0.08     434.2  T
   8    -84.6171935 -0.128537E-09  0.542E-06    0.08    2814.2  T
     SCC iter.                  ...        0 min,  0.028 sec
     gradient                   ...        0 min,  0.081 sec
 * total energy  :   -83.8596644 Eh     change       -0.5598434E-04 Eh
   gradient norm :     0.0026183 Eh/α   predicted    -0.4495072E-04 ( -19.71%)
   displ. norm   :     0.0815510 α      lambda       -0.3139739E-04
   maximum displ.:     0.0388968 α      in ANC's #2, #3, #12, ...

........................................................................
.............................. CYCLE   24 ..............................
........................................................................
   1    -84.6172563 -0.846173E+02  0.467E-03    0.08       0.0  T
   2    -84.6168866  0.369679E-03  0.502E-02    0.10       1.0  T
   3    -84.6172588 -0.372253E-03  0.125E-03    0.08      12.2  T
   4    -84.6172589 -0.872817E-07  0.607E-04    0.08      25.1  T
   5    -84.6172589 -0.284692E-08  0.332E-04    0.08      45.9  T
   6    -84.6172589 -0.143376E-07  0.346E-05    0.08     440.5  T
   7    -84.6172589 -0.410409E-10  0.157E-05    0.08     970.9  T
     SCC iter.                  ...        0 min,  0.025 sec
     gradient                   ...        0 min,  0.074 sec
 * total energy  :   -83.8596909 Eh     change       -0.2653137E-04 Eh
   gradient norm :     0.0030469 Eh/α   predicted    -0.1611524E-04 ( -39.26%)
   displ. norm   :     0.1843096 α      lambda       -0.6895892E-04
   maximum displ.:     0.0889686 α      in ANC's #2, #3, #12, ...

........................................................................
.............................. CYCLE   25 ..............................
........................................................................
   1    -84.6170990 -0.846171E+02  0.184E-02    0.08       0.0  T
   2    -84.6127576  0.434138E-02  0.174E-01    0.13       1.0  T
   3    -84.6171364 -0.437877E-02  0.979E-03    0.09       1.6  T
   4    -84.6171488 -0.124706E-04  0.159E-03    0.08       9.6  T
   5    -84.6171490 -0.199057E-06  0.333E-04    0.08      45.8  T
   6    -84.6171490  0.724537E-07  0.724E-04    0.08      21.1  T
   7    -84.6171490 -0.627225E-07  0.295E-04    0.08      51.7  T
   8    -84.6171490 -0.128230E-07  0.533E-05    0.08     286.4  T
   9    -84.6171490 -0.386521E-09  0.117E-05    0.08    1301.6  T
     SCC iter.                  ...        0 min,  0.028 sec
     gradient                   ...        0 min,  0.075 sec
 * total energy  :   -83.8597433 Eh     change       -0.5237780E-04 Eh
   gradient norm :     0.0028575 Eh/α   predicted    -0.3565106E-04 ( -31.93%)
   displ. norm   :     0.2221340 α      lambda       -0.6782688E-04
   maximum displ.:     0.1104584 α      in ANC's #2, #3, #12, ...

........................................................................
.............................. CYCLE   26 ..............................
........................................................................
   1    -84.6168093 -0.846168E+02  0.224E-02    0.08       0.0  T
   2    -84.6111910  0.561831E-02  0.199E-01    0.14       1.0  T
   3    -84.6168564 -0.566536E-02  0.145E-02    0.09       1.1  T
   4    -84.6168808 -0.244652E-04  0.493E-03    0.08       3.1  T
   5    -84.6168837 -0.290789E-05  0.575E-04    0.08      26.5  T
   6    -84.6168834  0.320383E-06  0.150E-03    0.08      10.2  T
   7    -84.6168837 -0.289709E-06  0.498E-04    0.08      30.6  T
   8    -84.6168837 -0.368882E-07  0.876E-05    0.08     174.0  T
   9    -84.6168837 -0.973273E-09  0.269E-05    0.08     567.3  T
     SCC iter.                  ...        0 min,  0.032 sec
     gradient                   ...        0 min,  0.078 sec
 * total energy  :   -83.8597936 Eh     change       -0.5030648E-04 Eh
   gradient norm :     0.0031223 Eh/α   predicted    -0.3558932E-04 ( -29.25%)
   displ. norm   :     0.2102347 α      lambda       -0.6426693E-04
   maximum displ.:     0.1083843 α      in ANC's #2, #3, #12, ...

........................................................................
.............................. CYCLE   27 ..............................
........................................................................
   1    -84.6168867 -0.846169E+02  0.200E-02    0.08       0.0  T
   2    -84.6120294  0.485728E-02  0.185E-01    0.14       1.0  T
   3    -84.6169266 -0.489716E-02  0.126E-02    0.09       1.2  T
   4    -84.6169376 -0.110068E-04  0.816E-03    0.09       1.9  T
   5    -84.6169460 -0.844902E-05  0.100E-03    0.08      15.2  T
   6    -84.6169455  0.565280E-06  0.223E-03    0.08       6.8  T
   7    -84.6169462 -0.713368E-06  0.316E-04    0.08      48.3  T
   8    -84.6169462 -0.153777E-07  0.174E-05    0.08     874.7  T
   9    -84.6169462  0.868283E-11  0.115E-05    0.08    1327.1  T
     SCC iter.                  ...        0 min,  0.031 sec
     gradient                   ...        0 min,  0.077 sec
 * total energy  :   -83.8598437 Eh     change       -0.5011521E-04 Eh
   gradient norm :     0.0034959 Eh/α   predicted    -0.3357034E-04 ( -33.01%)
   displ. norm   :     0.2209778 α      lambda       -0.8132363E-04
   maximum displ.:     0.1181034 α      in ANC's #2, #3, #1, ...

........................................................................
.............................. CYCLE   28 ..............................
........................................................................
   1    -84.6174753 -0.846175E+02  0.156E-02    0.08       0.0  T
   2    -84.6141459  0.332946E-02  0.153E-01    0.12       1.0  T
   3    -84.6175036 -0.335771E-02  0.825E-03    0.09       1.8  T
   4    -84.6174995  0.408014E-05  0.923E-03    0.09       1.7  T
   5    -84.6175100 -0.105210E-04  0.194E-03    0.08       7.9  T
   6    -84.6175102 -0.199468E-06  0.168E-03    0.08       9.1  T
   7    -84.6175106 -0.411305E-06  0.127E-04    0.08     120.2  T
   8    -84.6175106 -0.243155E-08  0.148E-05    0.08    1030.9  T
     SCC iter.                  ...        0 min,  0.029 sec
     gradient                   ...        0 min,  0.081 sec
 * total energy  :   -83.8599046 Eh     change       -0.6093749E-04 Eh
   gradient norm :     0.0033365 Eh/α   predicted    -0.4264757E-04 ( -30.01%)
   displ. norm   :     0.2020056 α      lambda       -0.6303383E-04
   maximum displ.:     0.1122466 α      in ANC's #2, #3, #1, ...

........................................................................
.............................. CYCLE   29 ..............................
........................................................................
   1    -84.6178021 -0.846178E+02  0.503E-03    0.08       0.0  T
   2    -84.6174358  0.366283E-03  0.494E-02    0.07       1.0  T
   3    -84.6178045 -0.368695E-03  0.231E-03    0.08       6.6  T
   4    -84.6178035  0.987199E-06  0.303E-03    0.08       5.0  T
   5    -84.6178045 -0.992543E-06  0.962E-04    0.08      15.9  T
   6    -84.6178046 -0.118152E-06  0.739E-05    0.08     206.3  T
   7    -84.6178046 -0.245890E-09  0.317E-05    0.08     481.5  T
     SCC iter.                  ...        0 min,  0.025 sec
     gradient                   ...        0 min,  0.081 sec
 * total energy  :   -83.8599497 Eh     change       -0.4509419E-04 Eh
   gradient norm :     0.0025969 Eh/α   predicted    -0.3280349E-04 ( -27.26%)
   displ. norm   :     0.1612678 α      lambda       -0.3434039E-04
   maximum displ.:     0.0926592 α      in ANC's #2, #3, #1, ...

........................................................................
.............................. CYCLE   30 ..............................
........................................................................
   1    -84.6177471 -0.846177E+02  0.148E-02    0.09       0.0  T
   2    -84.6090575  0.868963E-02  0.241E-01    0.05       1.0  T
   3    -84.6177805 -0.872296E-02  0.246E-03    0.08       6.2  T
   4    -84.6177803  0.199122E-06  0.245E-03    0.08       6.2  T
   5    -84.6177807 -0.448340E-06  0.153E-03    0.08      10.0  T
   6    -84.6177810 -0.304555E-06  0.268E-04    0.08      56.9  T
   7    -84.6177810 -0.101542E-07  0.230E-05    0.08     663.6  T
   8    -84.6177810 -0.198668E-10  0.137E-05    0.08    1116.5  T
     SCC iter.                  ...        0 min,  0.029 sec
     gradient                   ...        0 min,  0.082 sec
 * total energy  :   -83.8599751 Eh     change       -0.2534040E-04 Eh
   gradient norm :     0.0021377 Eh/α   predicted    -0.1761694E-04 ( -30.48%)
   displ. norm   :     0.1354020 α      lambda       -0.2563218E-04
   maximum displ.:     0.0805550 α      in ANC's #2, #3, #1, ...

........................................................................
.............................. CYCLE   31 ..............................
........................................................................
   1    -84.6178186 -0.846178E+02  0.198E-02    0.09       0.0  T
   2    -84.6007951  0.170236E-01  0.337E-01    0.03       1.0  T
   3    -84.6178780 -0.170830E-01  0.222E-03    0.08       6.9  T
   4    -84.6178758  0.221752E-05  0.432E-03    0.08       3.5  T
   5    -84.6178767 -0.832103E-06  0.342E-03    0.08       4.5  T
   6    -84.6178782 -0.149544E-05  0.850E-04    0.08      17.9  T
   7    -84.6178783 -0.990252E-07  0.193E-04    0.08      78.8  T
   8    -84.6178783 -0.535026E-08  0.223E-05    0.08     683.9  T
     SCC iter.                  ...        0 min,  0.028 sec
     gradient                   ...        0 min,  0.072 sec
 * total energy  :   -83.8599945 Eh     change       -0.1943801E-04 Eh
   gradient norm :     0.0015799 Eh/α   predicted    -0.1305466E-04 ( -32.84%)
   displ. norm   :     0.2219547 α      lambda       -0.2209325E-04
   maximum displ.:     0.1338336 α      in ANC's #2, #1, #3, ...

........................................................................
.............................. CYCLE   32 ..............................
........................................................................
   1    -84.6169867 -0.846170E+02  0.397E-02    0.09       0.0  T
   2    -84.5260657  0.909210E-01  0.776E-01    0.03       1.0  T
   3    -84.6172191 -0.911535E-01  0.717E-03    0.09       2.1  T
   4    -84.6172196 -0.505750E-06  0.723E-03    0.08       2.1  T
   5    -84.6172184  0.123877E-05  0.758E-03    0.08       2.0  T
   6    -84.6172244 -0.604007E-05  0.357E-03    0.08       4.3  T
   7    -84.6172261 -0.168119E-05  0.113E-03    0.08      13.5  T
   8    -84.6172263 -0.181757E-06  0.226E-04    0.08      67.6  T
   9    -84.6172263 -0.648990E-08  0.665E-05    0.08     229.2  T
  10    -84.6172263 -0.462720E-09  0.342E-05    0.08     446.1  T
     SCC iter.                  ...        0 min,  0.036 sec
     gradient                   ...        0 min,  0.078 sec
 * total energy  :   -83.8600130 Eh     change       -0.1852907E-04 Eh
   gradient norm :     0.0020110 Eh/α   predicted    -0.1128877E-04 ( -39.08%)
   displ. norm   :     0.0423496 α      lambda       -0.1405784E-04
   maximum displ.:     0.0206788 α      in ANC's #2, #5, #1, ...

........................................................................
.............................. CYCLE   33 ..............................
........................................................................
   1    -84.6182116 -0.846182E+02  0.115E-02    0.09       0.0  T
   2    -84.6142288  0.398280E-02  0.164E-01    0.06       1.0  T
   3    -84.6182280 -0.399917E-02  0.342E-03    0.09       4.5  T
   4    -84.6182287 -0.707760E-06  0.270E-03    0.08       5.6  T
   5    -84.6182293 -0.611184E-06  0.149E-03    0.08      10.2  T
   6    -84.6182296 -0.304093E-06  0.179E-04    0.08      85.4  T
   7    -84.6182296 -0.370524E-08  0.492E-05    0.09     310.1  T
     SCC iter.                  ...        0 min,  0.025 sec
     gradient                   ...        0 min,  0.079 sec
 * total energy  :   -83.8600202 Eh     change       -0.7187370E-05 Eh
   gradient norm :     0.0018420 Eh/α   predicted    -0.7063678E-05 (  -1.72%)
   displ. norm   :     0.0741699 α      lambda       -0.1187247E-04
   maximum displ.:     0.0441481 α      in ANC's #2, #1, #12, ...

........................................................................
.............................. CYCLE   34 ..............................
........................................................................
   1    -84.6179610 -0.846180E+02  0.181E-02    0.09       0.0  T
   2    -84.6045565  0.134045E-01  0.299E-01    0.04       1.0  T
   3    -84.6180086 -0.134522E-01  0.301E-03    0.09       5.1  T
   4    -84.6180096 -0.101656E-05  0.166E-03    0.08       9.2  T
   5    -84.6180098 -0.205903E-06  0.104E-03    0.09      14.7  T
   6    -84.6180100 -0.109539E-06  0.438E-04    0.09      34.8  T
   7    -84.6180100 -0.277855E-07  0.686E-05    0.09     222.4  T
   8    -84.6180100 -0.664755E-09  0.642E-06    0.09    2374.5  T
     SCC iter.                  ...        0 min,  0.028 sec
     gradient                   ...        0 min,  0.080 sec
 * total energy  :   -83.8600324 Eh     change       -0.1221429E-04 Eh
   gradient norm :     0.0013443 Eh/α   predicted    -0.5951250E-05 ( -51.28%)
   displ. norm   :     0.0767151 α      lambda       -0.7323908E-05
   maximum displ.:     0.0482645 α      in ANC's #2, #1, #13, ...

........................................................................
.............................. CYCLE   35 ..............................
........................................................................
   1    -84.6178539 -0.846179E+02  0.211E-02    0.09       0.0  T
   2    -84.5983375  0.195164E-01  0.361E-01    0.03       1.0  T
   3    -84.6179185 -0.195810E-01  0.388E-03    0.09       3.9  T
   4    -84.6179206 -0.214418E-05  0.120E-03    0.09      12.8  T
   5    -84.6179206  0.231112E-07  0.121E-03    0.09      12.6  T
   6    -84.6179207 -0.147096E-06  0.559E-04    0.09      27.3  T
   7    -84.6179208 -0.435027E-07  0.128E-04    0.09     119.6  T
   8    -84.6179208 -0.237044E-08  0.118E-05    0.09    1294.3  T
     SCC iter.                  ...        0 min,  0.028 sec
     gradient                   ...        0 min,  0.081 sec
 * total energy  :   -83.8600404 Eh     change       -0.7959065E-05 Eh
   gradient norm :     0.0009553 Eh/α   predicted    -0.3674793E-05 ( -53.83%)
   displ. norm   :     0.0737970 α      lambda       -0.5446594E-05
   maximum displ.:     0.0460317 α      in ANC's #2, #1, #4, ...

........................................................................
.............................. CYCLE   36 ..............................
........................................................................
   1    -84.6178693 -0.846179E+02  0.218E-02    0.09       0.0  T
   2    -84.5963263  0.215430E-01  0.379E-01    0.03       1.0  T
   3    -84.6179413 -0.216149E-01  0.214E-03    0.09       7.1  T
   4    -84.6179413 -0.732505E-07  0.218E-03    0.09       7.0  T
   5    -84.6179414 -0.245233E-07  0.209E-03    0.09       7.3  T
   6    -84.6179419 -0.499812E-06  0.836E-04    0.09      18.2  T
   7    -84.6179420 -0.981820E-07  0.157E-04    0.09      97.4  T
   8    -84.6179420 -0.342726E-08  0.298E-05    0.09     511.0  T
     SCC iter.                  ...        0 min,  0.020 sec
     gradient                   ...        0 min,  0.079 sec
 * total energy  :   -83.8600465 Eh     change       -0.6115862E-05 Eh
   gradient norm :     0.0007071 Eh/α   predicted    -0.2733931E-05 ( -55.30%)
   displ. norm   :     0.0748007 α      lambda       -0.4448712E-05
   maximum displ.:     0.0450520 α      in ANC's #2, #1, #4, ...

........................................................................
.............................. CYCLE   37 ..............................
........................................................................
   1    -84.6178867 -0.846179E+02  0.164E-02    0.09       0.0  T
   2    -84.6072138  0.106729E-01  0.268E-01    0.04       1.0  T
   3    -84.6179277 -0.107139E-01  0.654E-04    0.09      23.3  T
   4    -84.6179266  0.113974E-05  0.294E-03    0.09       5.2  T
   5    -84.6179272 -0.635038E-06  0.201E-03    0.09       7.6  T
   6    -84.6179277 -0.509877E-06  0.561E-04    0.09      27.2  T
   7    -84.6179277 -0.433687E-07  0.116E-04    0.09     131.4  T
   8    -84.6179277 -0.184228E-08  0.229E-05    0.09     666.4  T
     SCC iter.                  ...        0 min,  0.030 sec
     gradient                   ...        0 min,  0.084 sec
 * total energy  :   -83.8600518 Eh     change       -0.5319173E-05 Eh
   gradient norm :     0.0006864 Eh/α   predicted    -0.2232280E-05 ( -58.03%)
   displ. norm   :     0.0949283 α      lambda       -0.5143365E-05
   maximum displ.:     0.0551864 α      in ANC's #2, #1, #4, ...

........................................................................
.............................. CYCLE   38 ..............................
........................................................................
   1    -84.6179084 -0.846179E+02  0.128E-02    0.09       0.0  T
   2    -84.6118806  0.602778E-02  0.201E-01    0.05       1.0  T
   3    -84.6179336 -0.605304E-02  0.182E-03    0.09       8.4  T
   4    -84.6179314  0.226510E-05  0.430E-03    0.09       3.5  T
   5    -84.6179332 -0.183272E-05  0.232E-03    0.09       6.6  T
   6    -84.6179339 -0.707571E-06  0.467E-04    0.09      32.7  T
   7    -84.6179339 -0.309490E-07  0.483E-05    0.09     315.7  T
   8    -84.6179339 -0.279300E-09  0.150E-05    0.09    1020.0  T
     SCC iter.                  ...        0 min,  0.029 sec
     gradient                   ...        0 min,  0.083 sec
 * total energy  :   -83.8600582 Eh     change       -0.6329802E-05 Eh
   gradient norm :     0.0008264 Eh/α   predicted    -0.2585890E-05 ( -59.15%)
   displ. norm   :     0.1282826 α      lambda       -0.6348843E-05
   maximum displ.:     0.0732077 α      in ANC's #2, #1, #4, ...

........................................................................
.............................. CYCLE   39 ..............................
........................................................................
   1    -84.6178599 -0.846179E+02  0.576E-03    0.09       0.0  T
   2    -84.6169464  0.913550E-03  0.790E-02    0.07       1.0  T
   3    -84.6178644 -0.917978E-03  0.238E-03    0.09       6.4  T
   4    -84.6178620  0.233859E-05  0.459E-03    0.09       3.3  T
   5    -84.6178645 -0.244930E-05  0.175E-03    0.09       8.7  T
   6    -84.6178649 -0.413082E-06  0.146E-04    0.09     104.7  T
   7    -84.6178649 -0.269468E-08  0.353E-05    0.09     432.3  T
     SCC iter.                  ...        0 min,  0.026 sec
     gradient                   ...        0 min,  0.083 sec
 * total energy  :   -83.8600659 Eh     change       -0.7705754E-05 Eh
   gradient norm :     0.0009018 Eh/α   predicted    -0.3198151E-05 ( -58.50%)
   displ. norm   :     0.1591951 α      lambda       -0.7048948E-05
   maximum displ.:     0.0883268 α      in ANC's #2, #1, #4, ...

........................................................................
.............................. CYCLE   40 ..............................
........................................................................
   1    -84.6178472 -0.846178E+02  0.839E-03    0.08       0.0  T
   2    -84.6166826  0.116453E-02  0.890E-02    0.11       1.0  T
   3    -84.6178571 -0.117449E-02  0.103E-03    0.09      14.9  T
   4    -84.6178559  0.125765E-05  0.312E-03    0.09       4.9  T
   5    -84.6178571 -0.127013E-05  0.469E-04    0.09      32.5  T
   6    -84.6178572 -0.167392E-07  0.158E-04    0.09      96.7  T
   7    -84.6178572 -0.349215E-08  0.135E-05    0.09    1131.0  T
     SCC iter.                  ...        0 min,  0.026 sec
     gradient                   ...        0 min,  0.084 sec
 * total energy  :   -83.8600743 Eh     change       -0.8390221E-05 Eh
   gradient norm :     0.0007986 Eh/α   predicted    -0.3565258E-05 ( -57.51%)
   displ. norm   :     0.1787579 α      lambda       -0.6942390E-05
   maximum displ.:     0.0999178 α      in ANC's #1, #2, #4, ...

........................................................................
.............................. CYCLE   41 ..............................
........................................................................
   1    -84.6177764 -0.846178E+02  0.202E-02    0.08       0.0  T
   2    -84.6130186  0.475779E-02  0.182E-01    0.14       1.0  T
   3    -84.6178251 -0.480642E-02  0.889E-03    0.09       1.7  T
   4    -84.6178349 -0.987635E-05  0.412E-03    0.09       3.7  T
   5    -84.6178371 -0.216843E-05  0.122E-03    0.09      12.5  T
   6    -84.6178373 -0.187232E-06  0.556E-04    0.09      27.4  T
   7    -84.6178373 -0.452248E-07  0.240E-05    0.09     635.5  T
   8    -84.6178373 -0.220268E-10  0.165E-05    0.09     924.6  T
     SCC iter.                  ...        0 min,  0.029 sec
     gradient                   ...        0 min,  0.083 sec
 * total energy  :   -83.8600821 Eh     change       -0.7827630E-05 Eh
   gradient norm :     0.0007481 Eh/α   predicted    -0.3521000E-05 ( -55.02%)
   displ. norm   :     0.1468210 α      lambda       -0.4752845E-05
   maximum displ.:     0.0830259 α      in ANC's #1, #2, #4, ...

........................................................................
.............................. CYCLE   42 ..............................
........................................................................
   1    -84.6178727 -0.846179E+02  0.287E-02    0.08       0.0  T
   2    -84.6104945  0.737810E-02  0.229E-01    0.16       1.0  T
   3    -84.6179236 -0.742906E-02  0.226E-02    0.09       1.0  T
   4    -84.6179914 -0.678354E-04  0.725E-03    0.08       2.1  T
   5    -84.6179983 -0.686109E-05  0.291E-03    0.09       5.2  T
   6    -84.6179995 -0.120886E-05  0.136E-04    0.09     111.8  T
   7    -84.6179995 -0.225705E-08  0.183E-05    0.09     832.0  T
   8    -84.6179995  0.406430E-11  0.148E-05    0.09    1029.1  T
     SCC iter.                  ...        0 min,  0.030 sec
     gradient                   ...        0 min,  0.083 sec
 * total energy  :   -83.8600869 Eh     change       -0.4820367E-05 Eh
   gradient norm :     0.0005330 Eh/α   predicted    -0.2403253E-05 ( -50.14%)
   displ. norm   :     0.1023278 α      lambda       -0.3372368E-05
   maximum displ.:     0.0594401 α      in ANC's #1, #2, #4, ...

   *** GEOMETRY OPTIMIZATION CONVERGED AFTER 42 ITERATIONS ***

------------------------------------------------------------------------
 total energy gain   :        -0.0225513 Eh      -14.1512 kcal/mol
 total RMSD          :         0.7313627 a0        0.3870 Å
 total power (kW/mol):        -1.4097262 (step)   -9.3017 (real)
------------------------------------------------------------------------

 ANCopt (total)                0 d,  0 h,  0 min,  6.365 sec
 optimizer setup                ...        0 min,  0.001 sec (  0.014%)
 model hessian                  ...        0 min,  0.049 sec (  0.773%)
 ANC generation                 ...        0 min,  0.005 sec (  0.083%)
 coordinate transformation      ...        0 min,  0.001 sec (  0.022%)
 single point calculation       ...        0 min,  6.285 sec ( 98.742%)
 optimization log               ...        0 min,  0.012 sec (  0.185%)
 hessian update                 ...        0 min,  0.001 sec (  0.020%)
 rational function              ...        0 min,  0.006 sec (  0.097%)

================
 final structure:
================
43
 xtb: 6.5.1 (579679a)
C            5.52582601916498        2.92293062772166        0.19290634422762
O            4.43108584274816        2.04271334184567       -0.04603277706934
C            4.28394406516293        1.61551439606997       -1.31454882439299
O            5.05533123022190        1.96673622530306       -2.20869517090560
C            3.15438230680172        0.72061265262560       -1.51965279665276
N            2.37862678042334        0.40925933547098       -0.42396948005649
C            1.37103218398177       -0.38081443422369       -0.58006303890770
C            0.52964916980907       -0.80525339986146        0.60852571463460
C            0.58975634942676        0.27223907785081        1.70047244707628
C            1.12583347526392       -2.13091851417870        1.11416569050383
N           -0.83216522268364       -1.00668004829381        0.11061426227754
C           -1.86274546543426       -1.31300773069216        1.07444733798128
O           -1.60322375734928       -1.91743451603866        2.15250875295552
C           -3.11266019200318       -0.87343619255516        0.70557773918634
O           -3.41730708509915       -0.25221673511070       -0.51883613650377
C           -4.75764948023305       -0.15458676519645       -0.52555779613505
C           -5.41566339725793        0.49315362279094       -1.69087823641253
N           -5.36339235923137       -0.63830219008062        0.49111997871016
N           -4.36564971295114       -1.20596502909022        1.33230553057938
C           -4.52297404357347       -0.72622405073230        2.71010199719176
N            1.05538201822402       -0.93263890607055       -1.78798215464469
C            1.75468202331558       -0.69626226348472       -2.96654526610175
O            1.39810794304925       -1.23154478507863       -4.01564673025719
C            2.87567970033132        0.19599933128447       -2.77841116213722
O            3.61911140122798        0.48127926469592       -3.86919693205729
H            5.42957738676799        3.82553477104307       -0.41683642981793
H            6.47161424508272        2.42961018821926       -0.04788218609993
H            5.49783161119011        3.18151151828651        1.25009873097565
H            1.62790778225963        0.46115029658920        1.97188105781756
H            0.14941547321823        1.19910192256943        1.33425414386449
H            0.04418721417743       -0.05960019661184        2.58239534931402
H            2.18612898584135       -1.99496555611567        1.32586695865327
H            0.62267702117708       -2.45446847729939        2.02313339256378
H            1.01162724271291       -2.90091001886726        0.35185018647773
H           -1.12206208041485       -0.21294835871933       -0.45167416475745
H           -6.49308554763479        0.50514792088354       -1.54557682362587
H           -5.17767112319492       -0.05079748655163       -2.60509958217744
H           -5.05210330381814        1.51427426627227       -1.80161293961526
H           -5.51186938727248       -1.01229335289602        3.06447890069218
H           -3.75709358910758       -1.20850092328833        3.31670966443247
H           -4.41174889717440        0.36059007259672        2.76569202769779
H            0.24373451079884       -1.53382409910517       -1.84702534537983
H            4.34593166205631        1.09623419802322       -3.61323323410478
 
 Bond Distances (Angstroems)
 ---------------------------
C1-O2=1.4249         C1-H26=1.0935        C1-H27=1.0936        C1-H28=1.0887        O2-C1=1.4249         O2-C3=1.3466         
C3-O2=1.3466         C3-O4=1.2320         C3-C5=1.4556         O4-C3=1.2320         C5-C3=1.4556         C5-N6=1.3781         
C5-C24=1.3919        N6-C5=1.3781         N6-C7=1.2899         C7-N6=1.2899         C7-C8=1.5168         C7-N21=1.3650        
C8-C7=1.5168         C8-C9=1.5352         C8-C10=1.5390        C8-N11=1.4639        C9-C8=1.5352         C9-H29=1.0895        
C9-H30=1.0895        C9-H31=1.0888        C10-C8=1.5390        C10-H32=1.0897       C10-H33=1.0882       C10-H34=1.0895       
N11-C8=1.4639        N11-C12=1.4439       N11-H35=1.0150       C12-N11=1.4439       C12-O13=1.2629       C12-C14=1.3753       
O13-C12=1.2629       C14-C12=1.3753       C14-O15=1.4064       C14-N19=1.4399       O15-C14=1.4064       O15-C16=1.3439       
C16-O15=1.3439       C16-C17=1.4868       C16-N18=1.2785       C17-C16=1.4868       C17-H36=1.0872       C17-H37=1.0901       
C17-H38=1.0896       N18-C16=1.2785       N18-N19=1.4231       N19-C14=1.4399       N19-N18=1.4231       N19-C20=1.4674       
C20-N19=1.4674       C20-H39=1.0887       C20-H40=1.0896       C20-H41=1.0939       N21-C7=1.3650        N21-C22=1.3906       
N21-H42=1.0118       C22-N21=1.3906       C22-O23=1.2306       C22-C24=1.4450       O23-C22=1.2306       C24-C5=1.3919        
C24-C22=1.4450       C24-O25=1.3505       O25-C24=1.3505       O25-H43=0.9859       H26-C1=1.0935        H27-C1=1.0936        
H28-C1=1.0887        H29-C9=1.0895        H30-C9=1.0895        H31-C9=1.0888        H32-C10=1.0897       H33-C10=1.0882       
H34-C10=1.0895       H35-N11=1.0150       H36-C17=1.0872       H37-C17=1.0901       H38-C17=1.0896       H39-C20=1.0887       
H40-C20=1.0896       H41-C20=1.0939       H42-N21=1.0118       H43-O25=0.9859       
 C  H  Rav=1.0900 sigma=0.0019  Rmin=1.0872  Rmax=1.0939    15
 C  C  Rav=1.4682 sigma=0.0585  Rmin=1.3753  Rmax=1.5390     8
 N  H  Rav=1.0134 sigma=0.0016  Rmin=1.0118  Rmax=1.0150     2
 N  C  Rav=1.3908 sigma=0.0667  Rmin=1.2785  Rmax=1.4674     9
 N  N  Rav=1.4231 sigma=0.0000  Rmin=1.4231  Rmax=1.4231     1
 O  H  Rav=0.9859 sigma=0.0000  Rmin=0.9859  Rmax=0.9859     1
 O  C  Rav=1.3247 sigma=0.0703  Rmin=1.2306  Rmax=1.4249     8
 
 selected bond angles (degree)
 --------------------
H26-C1-O2=110.41               H27-C1-O2=110.42               H27-C1-H26=109.01              H28-C1-O2=106.85               
H28-C1-H26=110.07              H28-C1-H27=110.07              C3-O2-C1=115.97                O4-C3-O2=121.66                
C5-C3-O2=114.37                C5-C3-O4=123.98                N6-C5-C3=117.62                C24-C5-C3=120.97               
C24-C5-N6=121.41               C7-N6-C5=118.81                C8-C7-N6=120.65                N21-C7-N6=122.37               
N21-C7-C8=116.87               C9-C8-C7=109.83                C10-C8-C7=106.48               C10-C8-C9=110.84               
N11-C8-C7=106.74               N11-C8-C9=112.02               N11-C8-C10=110.71              H29-C9-C8=109.64               
H30-C9-C8=110.01               H30-C9-H29=108.74              H31-C9-C8=110.03               H31-C9-H29=109.18              
H31-C9-H30=109.21              H32-C10-C8=109.47              H33-C10-C8=110.58              H33-C10-H32=108.95             
H34-C10-C8=109.77              H34-C10-H32=109.03             H34-C10-H33=109.02             
 
 selected dihedral angles (degree)
 ---------------------------------
C3-O2-C1-H26= 59.65           C3-O2-C1-H27=299.03           C3-O2-C1-H28=179.33           O4-C3-O2-C1=  0.15            
C5-C3-O2-C1=180.10            N6-C5-C3-O2=359.78            N6-C5-C3-O4=179.72            C24-C5-C3-O2=180.06           
C24-C5-C3-O4=  0.00           C7-N6-C5-C3=179.94            C7-N6-C5-C24=359.65           C8-C7-N6-C5=177.00            
N21-C7-N6-C5=  0.83           C9-C8-C7-N6= 27.24            C9-C8-C7-N21=203.61           C10-C8-C7-N6=267.18           
C10-C8-C7-N21= 83.55          N11-C8-C7-N6=148.88           N11-C8-C7-N21=325.26          H29-C9-C8-C7=304.04           
H29-C9-C8-C10= 61.41          H29-C9-C8-N11=185.61          H30-C9-C8-C7= 63.58           H30-C9-C8-C10=180.95          
H30-C9-C8-N11=305.15          H31-C9-C8-C7=183.94           H31-C9-C8-C10=301.32          H31-C9-C8-N11= 65.51          
H32-C10-C8-C7= 55.13          H32-C10-C8-C9=295.72          H32-C10-C8-N11=170.78         H33-C10-C8-C7=175.17          
H33-C10-C8-C9= 55.76          H33-C10-C8-N11=290.82         H34-C10-C8-C7=295.49          H34-C10-C8-C9=176.08          
H34-C10-C8-N11= 51.14         
           -------------------------------------------------
          |                Final Singlepoint                |
           -------------------------------------------------

          ...................................................
          :                      SETUP                      :
          :.................................................:
          :  # basis functions                 136          :
          :  # atomic orbitals                 136          :
          :  # shells                           86          :
          :  # electrons                       136          :
          :  # halogen bonds                     0          :
          :  max. iterations                   250          :
          :  Hamiltonian                  GFN1-xTB          :
          :  restarted?                      false          :
          :  GBSA solvation                   true          :
          :  PC potential                    false          :
          :  electronic temp.          300.0000000     K    :
          :  accuracy                    1.0000000          :
          :  -> integral cutoff          0.2500000E+02      :
          :  -> integral neglect         0.1000000E-07      :
          :  -> SCF convergence          0.1000000E-05 Eh   :
          :  -> wf. convergence          0.2000000E-04 e    :
          :  Broyden damping             0.4000000          :
          ...................................................

 iter      E             dE          RMSdq      gap      omega  full diag
   1    -84.6179995 -0.846180E+02  0.419E-06    0.09       0.0  T
   2    -84.6179995  0.330644E-09  0.474E-05    0.09     321.7  T
   3    -84.6179995 -0.332179E-09  0.249E-06    0.09    6129.4  T

   *** convergence criteria satisfied after 3 iterations ***

         #    Occupation            Energy/Eh            Energy/eV
      -------------------------------------------------------------
         1        2.0000           -0.8169856             -22.2313
       ...           ...                  ...                  ...
        62        2.0000           -0.4314895             -11.7414
        63        2.0000           -0.4204735             -11.4417
        64        2.0000           -0.4084589             -11.1147
        65        2.0000           -0.4036457             -10.9838
        66        2.0000           -0.4009868             -10.9114
        67        2.0000           -0.3854834             -10.4895
        68        1.6814           -0.3071804              -8.3588 (HOMO)
        69        0.3186           -0.3040198              -8.2728 (LUMO)
        70                         -0.2535163              -6.8985
        71                         -0.2264402              -6.1618
        72                         -0.2150326              -5.8513
        73                         -0.1515904              -4.1250
       ...                                ...                  ...
       136                          0.7127717              19.3955
      -------------------------------------------------------------
                  HL-Gap            0.0031606 Eh            0.0860 eV
             Fermi-level           -0.3056001 Eh           -8.3158 eV

 SCC (total)                   0 d,  0 h,  0 min,  0.132 sec
 SCC setup                      ...        0 min,  0.002 sec (  1.407%)
 Dispersion                     ...        0 min,  0.000 sec (  0.273%)
 classical contributions        ...        0 min,  0.000 sec (  0.093%)
 integral evaluation            ...        0 min,  0.036 sec ( 26.934%)
 iterations                     ...        0 min,  0.011 sec (  8.424%)
 molecular gradient             ...        0 min,  0.082 sec ( 62.259%)
 printout                       ...        0 min,  0.001 sec (  0.574%)

         :::::::::::::::::::::::::::::::::::::::::::::::::::::
         ::                     SUMMARY                     ::
         :::::::::::::::::::::::::::::::::::::::::::::::::::::
         :: total energy             -83.860086907209 Eh    ::
         :: total w/o Gsasa/hb       -83.836619065399 Eh    ::
         :: gradient norm              0.000534734869 Eh/a0 ::
         :: HOMO-LUMO gap              0.086004031907 eV    ::
         ::.................................................::
         :: SCC energy               -84.617999513636 Eh    ::
         :: -> electrostatic           0.444011604784 Eh    ::
         :: -> Gsolv                  -0.104617063581 Eh    ::
         ::    -> Gelec               -0.081149221771 Eh    ::
         ::    -> Gsasa               -0.025050908338 Eh    ::
         ::    -> Ghb                 -0.006041212477 Eh    ::
         ::    -> Gshift               0.007624279005 Eh    ::
         :: repulsion energy           0.783775103960 Eh    ::
         :: dispersion energy         -0.025862497533 Eh    ::
         :: halogen bond corr.         0.000000000000 Eh    ::
         :: add. restraining           0.000000000000 Eh    ::
         :: total charge              -1.000000000000 e     ::
         :::::::::::::::::::::::::::::::::::::::::::::::::::::

           -------------------------------------------------
          |                Property Printout                |
           -------------------------------------------------

    * Orbital Energies and Occupations

         #    Occupation            Energy/Eh            Energy/eV
      -------------------------------------------------------------
         1        2.0000           -0.8169856             -22.2313
       ...           ...                  ...                  ...
        56        2.0000           -0.4773122             -12.9883
        57        2.0000           -0.4686517             -12.7527
        58        2.0000           -0.4616755             -12.5628
        59        2.0000           -0.4566231             -12.4253
        60        2.0000           -0.4451362             -12.1128
        61        2.0000           -0.4361615             -11.8686
        62        2.0000           -0.4314895             -11.7414
        63        2.0000           -0.4204735             -11.4417
        64        2.0000           -0.4084589             -11.1147
        65        2.0000           -0.4036457             -10.9838
        66        2.0000           -0.4009868             -10.9114
        67        2.0000           -0.3854834             -10.4895
        68        1.6814           -0.3071804              -8.3588 (HOMO)
        69        0.3186           -0.3040198              -8.2728 (LUMO)
        70                         -0.2535163              -6.8985
        71                         -0.2264402              -6.1618
        72                         -0.2150326              -5.8513
        73                         -0.1515904              -4.1250
        74                         -0.1305716              -3.5530
        75                         -0.1288255              -3.5055
        76                         -0.1277399              -3.4760
        77                         -0.1044838              -2.8431
        78                         -0.1025082              -2.7894
        79                         -0.1007247              -2.7409
       ...                                ...                  ...
       136                          0.7127717              19.3955
      -------------------------------------------------------------
                  HL-Gap            0.0031606 Eh            0.0860 eV
             Fermi-level           -0.3056001 Eh           -8.3158 eV

  Mulliken/CM5 charges         n(s)   n(p)   n(d)
     1C     0.16782  0.04780   0.975  2.857  0.000
     2O    -0.42296 -0.50473   1.687  4.736  0.000
     3C     0.54182  0.60390   0.969  2.489  0.000
     4O    -0.60812 -0.67309   1.733  4.875  0.000
     5C     0.04205  0.11701   1.039  2.919  0.000
     6N    -0.39214 -0.57588   1.531  3.861  0.000
     7C     0.27522  0.42623   1.024  2.701  0.000
     8C     0.15788  0.19755   1.061  2.781  0.000
     9C    -0.09742 -0.23633   1.014  3.083  0.000
    10C    -0.09038 -0.22946   1.015  3.075  0.000
    11N    -0.43040 -0.76822   1.474  3.957  0.000
    12C     0.36969  0.45829   0.972  2.658  0.000
    13O    -0.69872 -0.74621   1.747  4.952  0.000
    14C     0.16941  0.26199   0.995  2.835  0.000
    15O    -0.41584 -0.47110   1.705  4.711  0.000
    16C     0.39235  0.50385   0.992  2.616  0.000
    17C    -0.11161 -0.24859   1.010  3.102  0.000
    18N    -0.34310 -0.46518   1.580  3.763  0.000
    19N    -0.18149 -0.35056   1.502  3.679  0.000
    20C     0.05257 -0.02971   0.989  2.958  0.000
    21N    -0.30599 -0.64906   1.438  3.868  0.000
    22C     0.43335  0.53332   0.979  2.587  0.000
    23O    -0.61810 -0.65553   1.733  4.885  0.000
    24C     0.19943  0.23266   1.026  2.774  0.000
    25O    -0.53203 -0.71889   1.701  4.831  0.000
    26H     0.04450  0.10632   0.956  0.000  0.000
    27H     0.04386  0.10554   0.956  0.000  0.000
    28H     0.04329  0.10358   0.957  0.000  0.000
    29H     0.02773  0.08597   0.972  0.000  0.000
    30H     0.02915  0.08624   0.971  0.000  0.000
    31H     0.04501  0.10408   0.955  0.000  0.000
    32H     0.02195  0.07741   0.978  0.000  0.000
    33H     0.05213  0.11340   0.948  0.000  0.000
    34H     0.02653  0.08451   0.973  0.000  0.000
    35H     0.21021  0.41571   0.790  0.000  0.000
    36H     0.05146  0.10758   0.949  0.000  0.000
    37H     0.06041  0.11495   0.940  0.000  0.000
    38H     0.06180  0.11647   0.938  0.000  0.000
    39H     0.02189  0.08657   0.978  0.000  0.000
    40H     0.03406  0.10050   0.966  0.000  0.000
    41H     0.01943  0.08320   0.981  0.000  0.000
    42H     0.26168  0.46765   0.738  0.000  0.000
    43H     0.39167  0.58025   0.608  0.000  0.000

Wiberg/Mayer (AO) data.
largest (>0.10) Wiberg bond orders for each atom

 ---------------------------------------------------------------------------
     #   Z sym  total        # sym  WBO       # sym  WBO       # sym  WBO
 ---------------------------------------------------------------------------
     1   6 C    3.884 --    28 H    0.987    27 H    0.980    26 H    0.980
                             2 O    0.911
     2   8 O    2.157 --     3 C    1.075     1 C    0.911     4 O    0.110
     3   6 C    3.769 --     4 O    1.537     5 C    1.088     2 O    1.075
     4   8 O    1.854 --     3 C    1.537     2 O    0.110
     5   6 C    3.883 --    24 C    1.391     6 N    1.160     3 C    1.088
     6   7 N    3.005 --     7 C    1.590     5 C    1.160
     7   6 C    3.910 --     6 N    1.590    21 N    1.164     8 C    0.978
     8   6 C    3.959 --     9 C    0.988     7 C    0.978    10 C    0.976
                            11 N    0.961
     9   6 C    3.993 --     8 C    0.988    30 H    0.986    29 H    0.985
                            31 H    0.983
    10   6 C    3.991 --    32 H    0.988    34 H    0.986     8 C    0.976
                            33 H    0.976
    11   7 N    3.082 --    12 C    0.978     8 C    0.961    35 H    0.931
    12   6 C    3.872 --    14 C    1.411    13 O    1.373    11 N    0.978
    13   8 O    1.683 --    12 C    1.373    14 C    0.122
    14   6 C    3.556 --    12 C    1.411    19 N    0.984    15 O    0.915
                            13 O    0.122
    15   8 O    2.181 --    16 C    1.067    14 C    0.915    18 N    0.112
    16   6 C    3.895 --    18 N    1.707    15 O    1.067    17 C    1.020
    17   6 C    3.993 --    16 C    1.020    36 H    0.986    37 H    0.970
                            38 H    0.970
    18   7 N    2.932 --    16 C    1.707    19 N    1.006    15 O    0.112
    19   7 N    3.078 --    18 N    1.006    14 C    0.984    20 C    0.950
    20   6 C    3.953 --    39 H    0.989    40 H    0.984    41 H    0.983
                            19 N    0.950
    21   7 N    3.396 --     7 C    1.164    22 C    1.088    42 H    0.886
                            23 O    0.118
    22   6 C    3.862 --    23 O    1.537    24 C    1.122    21 N    1.088
    23   8 O    1.809 --    22 C    1.537    21 N    0.118
    24   6 C    3.806 --     5 C    1.391    22 C    1.122    25 O    1.083
    25   8 O    2.028 --    24 C    1.083    43 H    0.786
    26   1 H    1.009 --     1 C    0.980
    27   1 H    1.009 --     1 C    0.980
    28   1 H    1.013 --     1 C    0.987
    29   1 H    1.015 --     9 C    0.985
    30   1 H    1.006 --     9 C    0.986
    31   1 H    1.014 --     9 C    0.983
    32   1 H    1.007 --    10 C    0.988
    33   1 H    1.026 --    10 C    0.976
    34   1 H    1.009 --    10 C    0.986
    35   1 H    0.970 --    11 N    0.931
    36   1 H    1.003 --    17 C    0.986
    37   1 H    1.001 --    17 C    0.970
    38   1 H    1.001 --    17 C    0.970
    39   1 H    1.018 --    20 C    0.989
    40   1 H    1.029 --    20 C    0.984
    41   1 H    1.009 --    20 C    0.983
    42   1 H    0.951 --    21 N    0.886
    43   1 H    0.867 --    25 O    0.786
 ---------------------------------------------------------------------------

Topologies differ in total number of bonds
Writing topology from bond orders to xtbtopo.mol

 dipole moment from electron density (au)
     X       Y       Z   
   0.1728   3.3046   1.3581  total (Debye):    9.092

           -------------------------------------------------
          |                Geometry Summary                 |
           -------------------------------------------------

      molecular mass/u    :      352.3231817
   center of mass at/Å    :        0.1886200      -0.1049927      -0.4868608
  moments of inertia/u·Å² :        0.1258779E+04   0.5023961E+04   0.5546782E+04
rotational constants/cm⁻¹ :        0.1339205E-01   0.3355447E-02   0.3039173E-02

 * 37 selected distances

     #   Z          #   Z                                           value/Å
     1   6 C        2   8 O                                       1.4248968
     2   8 O        3   6 C                                       1.3465819
     3   6 C        4   8 O                                       1.2320280
     6   7 N        7   6 C                                       1.2898949
     8   6 C        9   6 C                                       1.5352365
     8   6 C       10   6 C                                       1.5389919 (max)
     8   6 C       11   7 N                                       1.4639082
    12   6 C       14   6 C                                       1.3753454
    14   6 C       15   8 O                                       1.4063830
    15   8 O       16   6 C                                       1.3439103
    16   6 C       17   6 C                                       1.4867825
    16   6 C       18   7 N                                       1.2784909
    14   6 C       19   7 N                                       1.4399119
    19   7 N       20   6 C                                       1.4673874
     7   6 C       21   7 N                                       1.3649960
    21   7 N       22   6 C                                       1.3906494
    22   6 C       23   8 O                                       1.2305635
     5   6 C       24   6 C                                       1.3918934
    24   6 C       25   8 O                                       1.3505144
     1   6 C       26   1 H                                       1.0935010
     1   6 C       27   1 H                                       1.0935537
     1   6 C       28   1 H                                       1.0887166
     9   6 C       29   1 H                                       1.0895452
     9   6 C       30   1 H                                       1.0895370
     9   6 C       31   1 H                                       1.0888302
    10   6 C       32   1 H                                       1.0897373
    10   6 C       33   1 H                                       1.0881514
    10   6 C       34   1 H                                       1.0895206
    11   7 N       35   1 H                                       1.0149969
    17   6 C       36   1 H                                       1.0872420
    17   6 C       37   1 H                                       1.0901028
    17   6 C       38   1 H                                       1.0895530
    20   6 C       39   1 H                                       1.0887299
    20   6 C       40   1 H                                       1.0895581
    20   6 C       41   1 H                                       1.0939042
    21   7 N       42   1 H                                       1.0117715
    25   8 O       43   1 H                                       0.9858777 (min)

 * 6 distinct bonds (by element types)

   Z      Z             #   av. dist./Å        max./Å        min./Å
   1 H    6 C          15     1.0900122     1.0939042     1.0872420
   6 C    6 C           5     1.4656499     1.5389919     1.3753454
   1 H    7 N           2     1.0133842     1.0149969     1.0117715
   6 C    7 N           7     1.3850341     1.4673874     1.2784909
   1 H    8 O           1     0.9858777     0.9858777     0.9858777
   6 C    8 O           7     1.3335540     1.4248968     1.2305635


optimized geometry written to: xtbopt.xyz


           -------------------------------------------------
          | TOTAL ENERGY              -83.860086907209 Eh   |
          | GRADIENT NORM               0.000534734869 Eh/α |
          | HOMO-LUMO GAP               0.086004031907 eV   |
           -------------------------------------------------

------------------------------------------------------------------------
 * finished run on 2023/06/20 at 15:09:42.097     
------------------------------------------------------------------------
 total:
 * wall-time:     0 d,  0 h,  0 min,  6.814 sec
 *  cpu-time:     0 d,  0 h,  0 min,  6.737 sec
 * ratio c/w:     0.989 speedup
 SCF:
 * wall-time:     0 d,  0 h,  0 min,  0.199 sec
 *  cpu-time:     0 d,  0 h,  0 min,  0.198 sec
 * ratio c/w:     0.997 speedup
 ANC optimizer:
 * wall-time:     0 d,  0 h,  0 min,  6.503 sec
 *  cpu-time:     0 d,  0 h,  0 min,  6.491 sec
 * ratio c/w:     0.998 speedup

