      -----------------------------------------------------------      
     |                   =====================                   |     
     |                           x T B                           |     
     |                   =====================                   |     
     |                         S. Grimme                         |     
     |          Mulliken Center for Theoretical Chemistry        |     
     |                    University of Bonn                     |     
      -----------------------------------------------------------      

   * xtb version 6.5.1 (579679a) compiled by 'ehlert@majestix' on 2022-07-11

   xtb is free software: you can redistribute it and/or modify it under
   the terms of the GNU Lesser General Public License as published by
   the Free Software Foundation, either version 3 of the License, or
   (at your option) any later version.
   
   xtb is distributed in the hope that it will be useful,
   but WITHOUT ANY WARRANTY; without even the implied warranty of
   MERCHANTABILITY or FITNESS FOR A PARTICULAR PURPOSE.  See the
   GNU Lesser General Public License for more details.
   
   Cite this work as:
   * C. Bannwarth, E. Caldeweyher, S. Ehlert, A. Hansen, P. Pracht,
     J. Seibert, S. Spicher, S. Grimme, WIREs Comput. Mol. Sci., 2020, 11,
     e01493. DOI: 10.1002/wcms.1493
   
   for GFN2-xTB:
   * C. Bannwarth, S. Ehlert and S. Grimme., J. Chem. Theory Comput., 2019,
     15, 1652-1671. DOI: 10.1021/acs.jctc.8b01176
   for GFN1-xTB:
   * S. Grimme, C. Bannwarth, P. Shushkov, J. Chem. Theory Comput., 2017,
     13, 1989-2009. DOI: 10.1021/acs.jctc.7b00118
   for GFN0-xTB:
   * P. Pracht, E. Caldeweyher, S. Ehlert, S. Grimme, ChemRxiv, 2019, preprint.
     DOI: 10.26434/chemrxiv.8326202.v1
   for GFN-FF:
   * S. Spicher and S. Grimme, Angew. Chem. Int. Ed., 2020, 59, 15665-15673.
     DOI: 10.1002/anie.202004239
   
   for ALPB and GBSA implicit solvation:
   * S. Ehlert, M. Stahn, S. Spicher, S. Grimme, J. Chem. Theory Comput.,
     2021, 17, 4250-4261. DOI: 10.1021/acs.jctc.1c00471
   
   for DFT-D4:
   * E. Caldeweyher, C. Bannwarth and S. Grimme, J. Chem. Phys., 2017,
     147, 034112. DOI: 10.1063/1.4993215
   * E. Caldeweyher, S. Ehlert, A. Hansen, H. Neugebauer, S. Spicher,
     C. Bannwarth and S. Grimme, J. Chem. Phys., 2019, 150, 154122.
     DOI: 10.1063/1.5090222
   * E. Caldeweyher, J.-M. Mewes, S. Ehlert and S. Grimme, Phys. Chem. Chem. Phys.
     2020, 22, 8499-8512. DOI: 10.1039/D0CP00502A
   
   for sTDA-xTB:
   * S. Grimme and C. Bannwarth, J. Chem. Phys., 2016, 145, 054103.
     DOI: 10.1063/1.4959605
   
   in the mass-spec context:
   * V. Asgeirsson, C. Bauer and S. Grimme, Chem. Sci., 2017, 8, 4879.
     DOI: 10.1039/c7sc00601b
   * J. Koopman and S. Grimme, ACS Omega 2019, 4, 12, 15120-15133.
     DOI: 10.1021/acsomega.9b02011
   
   for metadynamics refer to:
   * S. Grimme, J. Chem. Theory Comput., 2019, 155, 2847-2862
     DOI: 10.1021/acs.jctc.9b00143
   
   for SPH calculations refer to:
   * S. Spicher and S. Grimme, J. Chem. Theory Comput., 2021, 17, 1701-1714
     DOI: 10.1021/acs.jctc.0c01306
   
   with help from (in alphabetical order)
   P. Atkinson, C. Bannwarth, F. Bohle, G. Brandenburg, E. Caldeweyher
   M. Checinski, S. Dohm, S. Ehlert, S. Ehrlich, I. Gerasimov, C. Hölzer
   A. Katbashev, J. Koopman, C. Lavigne, S. Lehtola, F. März, M. Müller,
   F. Musil, H. Neugebauer, J. Pisarek, C. Plett, P. Pracht, F. Pultar,
   J. Seibert, P. Shushkov, S. Spicher, M. Stahn, M. Steiner, T. Strunk,
   J. Stückrath, T. Rose, and J. Unsleber
   
 * started run on 2023/06/20 at 14:54:02.697     

           -------------------------------------------------
          |                Calculation Setup                |
           -------------------------------------------------

          program call               : /lustre/hpc/kemi/ree/PhD/git/ReactivityQM/dep/xtb-6.5.1/bin/xtb --gfn 1 /lustre/hpc/kemi/ree/PhD/git/ReactivityQM/calculations/RaltegravirCLI/reac01prodE06/conf02/RaltegravirCLI_reac01prodE06_conf02_gfn1.xyz --opt --vfukui --chrg -1 --uhf 0 --alpb DMSO
          hostname                   : node308
          coordinate file            : /lustre/hpc/kemi/ree/PhD/git/ReactivityQM/calculations/RaltegravirCLI/reac01prodE06/conf02/RaltegravirCLI_reac01prodE06_conf02_gfn1.xyz
          omp threads                :                     1

   ID    Z sym.   atoms
    1    6 C      1, 3, 5, 8, 9
    2    8 O      2, 10
    3   17 Cl     4
    4    7 N      6, 7
    5    1 H      11-16

           -------------------------------------------------
          |                 G F N 1 - x T B                 |
           -------------------------------------------------

        Reference                      10.1021/acs.jctc.7b00118
      * Hamiltonian:
        H0-scaling (s, p, d)           1.850000    2.250000    2.000000
        zeta-weighting                 0.000000
      * Dispersion:
        s8                             2.400000
        a1                             0.630000
        a2                             5.000000
        s9                             0.000000
      * Repulsion:
        kExp                           1.500000
        rExp                           1.000000
      * Coulomb:
        alpha                          2.000000
        third order                    atomic
        anisotropic                    false
      * Halogen bond correction:
        rad-scale                      1.300000
        damping                        0.440000

      * Solvation model:               ALPB
        Solvent                        DMSO
        Parameter file                 internal GFN1-xTB/ALPB
        Dielectric constant                4.6680E+01
        Reference state                gsolv [1 M gas/solution]
        Free energy shift                  7.6243E-03 Eh       4.7843E+00 kcal/mol
        Temperature                        2.9815E+02 K
        Density                            1.1000E+00 kg/L
        Solvent mass                       7.8130E+01 g/mol
        Interaction kernel             P16
        Born radius scaling (c1)           1.7672E+00
        Born radii integrator          GBOBC
        Born offset                        0.0000E+00 a0       0.0000E+00 AA
        H-bond correction              true
        Ion screening                  false
        Surface tension                    1.0000E-05 Eh       1.5569E+01 dyn/cm
        Grid points                               230 per atom

          ...................................................
          :                      SETUP                      :
          :.................................................:
          :  # basis functions                  58          :
          :  # atomic orbitals                  57          :
          :  # shells                           33          :
          :  # electrons                        56          :
          :  # halogen bonds                     4          :
          :  max. iterations                   250          :
          :  Hamiltonian                  GFN1-xTB          :
          :  restarted?                      false          :
          :  GBSA solvation                   true          :
          :  PC potential                    false          :
          :  electronic temp.          300.0000000     K    :
          :  accuracy                    1.0000000          :
          :  -> integral cutoff          0.2500000E+02      :
          :  -> integral neglect         0.1000000E-07      :
          :  -> SCF convergence          0.1000000E-05 Eh   :
          :  -> wf. convergence          0.2000000E-04 e    :
          :  Broyden damping             0.4000000          :
          ...................................................

 iter      E             dE          RMSdq      gap      omega  full diag
   1    -34.2681087 -0.342681E+02  0.847E+00    3.11       0.0  T
   2    -34.3477738 -0.796651E-01  0.517E+00    2.76       1.0  T
   3    -34.3301845  0.175893E-01  0.202E+00    3.06       1.0  T
   4    -34.3598724 -0.296879E-01  0.269E-01    2.76       1.0  T
   5    -34.3605085 -0.636110E-03  0.503E-02    2.82       1.0  T
   6    -34.3605441 -0.355618E-04  0.121E-02    2.80       2.1  T
   7    -34.3605456 -0.153303E-05  0.381E-03    2.80       6.6  T
   8    -34.3605457 -0.764038E-07  0.862E-04    2.80      29.0  T
   9    -34.3605457 -0.351319E-08  0.273E-04    2.80      91.6  T
  10    -34.3605457 -0.166452E-09  0.816E-05    2.80     306.4  T
  11    -34.3605457 -0.221405E-10  0.115E-05    2.80    2182.6  T

   *** convergence criteria satisfied after 11 iterations ***

         #    Occupation            Energy/Eh            Energy/eV
      -------------------------------------------------------------
         1        2.0000           -0.8640575             -23.5122
       ...           ...                  ...                  ...
        22        2.0000           -0.4404950             -11.9865
        23        2.0000           -0.4295223             -11.6879
        24        2.0000           -0.4260163             -11.5925
        25        2.0000           -0.4014864             -10.9250
        26        2.0000           -0.3876166             -10.5476
        27        2.0000           -0.3665806              -9.9752
        28        2.0000           -0.2950345              -8.0283 (HOMO)
        29                         -0.1920588              -5.2262 (LUMO)
        30                         -0.1567488              -4.2654
        31                         -0.1514967              -4.1224
        32                         -0.1170094              -3.1840
        33                         -0.1087738              -2.9599
       ...                                ...                  ...
        57                          0.5905116              16.0686
      -------------------------------------------------------------
                  HL-Gap            0.1029757 Eh            2.8021 eV
             Fermi-level           -0.2435467 Eh           -6.6272 eV

 SCC (total)                   0 d,  0 h,  0 min,  0.062 sec
 SCC setup                      ...        0 min,  0.001 sec (  1.222%)
 Dispersion                     ...        0 min,  0.000 sec (  0.184%)
 classical contributions        ...        0 min,  0.000 sec (  0.084%)
 integral evaluation            ...        0 min,  0.009 sec ( 14.068%)
 iterations                     ...        0 min,  0.022 sec ( 35.236%)
 molecular gradient             ...        0 min,  0.030 sec ( 48.764%)
 printout                       ...        0 min,  0.000 sec (  0.371%)

         :::::::::::::::::::::::::::::::::::::::::::::::::::::
         ::                     SUMMARY                     ::
         :::::::::::::::::::::::::::::::::::::::::::::::::::::
         :: total energy             -34.118095089897 Eh    ::
         :: total w/o Gsasa/hb       -34.109417322268 Eh    ::
         :: gradient norm              0.079855277514 Eh/a0 ::
         :: HOMO-LUMO gap              2.802111824867 eV    ::
         ::.................................................::
         :: SCC energy               -34.360545682455 Eh    ::
         :: -> electrostatic           0.202082233187 Eh    ::
         :: -> Gsolv                  -0.094224737602 Eh    ::
         ::    -> Gelec               -0.085546969972 Eh    ::
         ::    -> Gsasa               -0.015740202420 Eh    ::
         ::    -> Ghb                 -0.000561844214 Eh    ::
         ::    -> Gshift               0.007624279005 Eh    ::
         :: repulsion energy           0.249371551450 Eh    ::
         :: dispersion energy         -0.006920958893 Eh    ::
         :: halogen bond corr.         0.000000000000 Eh    ::
         :: add. restraining           0.000000000000 Eh    ::
         :: total charge              -1.000000000000 e     ::
         :::::::::::::::::::::::::::::::::::::::::::::::::::::

      ----------------------------------------------------------- 
     |                   =====================                   |
     |                        A N C O P T                        |
     |                   =====================                   |
     |               Approximate Normal Coordinate               |
     |                Rational Function Optimizer                |
      ----------------------------------------------------------- 

          ...................................................
          :                      SETUP                      :
          :.................................................:
          :   optimization level            normal          :
          :   max. optcycles                   200          :
          :   ANC micro-cycles                  20          :
          :   degrees of freedom                42          :
          :.................................................:
          :   RF solver                   davidson          :
          :   write xtbopt.log                true          :
          :   linear?                        false          :
          :   energy convergence         0.5000000E-05 Eh   :
          :   grad. convergence          0.1000000E-02 Eh/α :
          :   maximium RF displ.         1.0000000          :
          :   Hlow (freq-cutoff)         0.1000000E-01      :
          :   Hmax (freq-cutoff)         5.0000000          :
          :   S6 in model hess.         20.0000000          :
          ...................................................

generating ANC from model Hessian ...
Using Lindh-Hessian (1995)
 Shifting diagonal of input Hessian by   8.295804605814607E-003
 Lowest  eigenvalues of input Hessian
    0.000000    0.000000    0.000000    0.000000    0.000000    0.000000
    0.010000    0.012495    0.013673    0.014064    0.019857    0.025280
    0.031190    0.042765    0.047276    0.051577    0.079481    0.083573
 Highest eigenvalues
    1.442754    1.525204    1.678750    1.824284    1.881354    2.042395
 

........................................................................
.............................. CYCLE    1 ..............................
........................................................................
   1    -34.3605457 -0.343605E+02  0.381E-06    2.80       0.0  T
   2    -34.3605457 -0.355271E-13  0.193E-06    2.80   12938.1  T
   3    -34.3605457 -0.213163E-13  0.903E-07    2.80   27671.0  T
     SCC iter.                  ...        0 min,  0.005 sec
     gradient                   ...        0 min,  0.031 sec
 * total energy  :   -34.1180951 Eh     change       -0.5329071E-12 Eh
   gradient norm :     0.0798553 Eh/α   predicted     0.0000000E+00 (-100.00%)
   displ. norm   :     0.2160002 α      lambda       -0.7326381E-02
   maximum displ.:     0.1018259 α      in ANC's #5, #14, #3, ...

........................................................................
.............................. CYCLE    2 ..............................
........................................................................
   1    -34.3717470 -0.343717E+02  0.154E-01    2.88       0.0  T
   2    -34.3720637 -0.316622E-03  0.817E-02    2.84       1.0  T
   3    -34.3721591 -0.954380E-04  0.200E-02    2.86       1.3  T
   4    -34.3721592 -0.652246E-07  0.812E-03    2.85       3.1  T
   5    -34.3721593 -0.118392E-06  0.950E-04    2.86      26.3  T
   6    -34.3721593 -0.769628E-08  0.338E-04    2.86      73.9  T
   7    -34.3721593 -0.609326E-09  0.936E-05    2.86     267.0  T
   8    -34.3721593 -0.430731E-10  0.197E-05    2.86    1269.6  T
     SCC iter.                  ...        0 min,  0.017 sec
     gradient                   ...        0 min,  0.042 sec
 * total energy  :   -34.1234741 Eh     change       -0.5379050E-02 Eh
   gradient norm :     0.0437747 Eh/α   predicted    -0.3834105E-02 ( -28.72%)
   displ. norm   :     0.2557232 α      lambda       -0.3800614E-02
   maximum displ.:     0.1220803 α      in ANC's #3, #5, #6, ...

........................................................................
.............................. CYCLE    3 ..............................
........................................................................
   1    -34.3794090 -0.343794E+02  0.163E-01    2.94       0.0  T
   2    -34.3797767 -0.367729E-03  0.872E-02    2.87       1.0  T
   3    -34.3798788 -0.102076E-03  0.222E-02    2.89       1.1  T
   4    -34.3798790 -0.146401E-06  0.541E-03    2.89       4.6  T
   5    -34.3798790 -0.625878E-07  0.904E-04    2.89      27.6  T
   6    -34.3798790 -0.433374E-08  0.330E-04    2.89      75.7  T
   7    -34.3798790 -0.422489E-09  0.106E-04    2.89     235.8  T
   8    -34.3798790 -0.650147E-10  0.377E-05    2.89     662.5  T
     SCC iter.                  ...        0 min,  0.005 sec
     gradient                   ...        0 min,  0.049 sec
 * total energy  :   -34.1257730 Eh     change       -0.2298835E-02 Eh
   gradient norm :     0.0150080 Eh/α   predicted    -0.2024579E-02 ( -11.93%)
   displ. norm   :     0.1890317 α      lambda       -0.8384038E-03
   maximum displ.:     0.1036477 α      in ANC's #1, #3, #6, ...

........................................................................
.............................. CYCLE    4 ..............................
........................................................................
   1    -34.3803092 -0.343803E+02  0.623E-02    2.91       0.0  T
   2    -34.3803593 -0.500520E-04  0.379E-02    2.88       1.0  T
   3    -34.3803732 -0.139209E-04  0.145E-02    2.88       1.7  T
   4    -34.3803733 -0.576624E-07  0.127E-03    2.88      19.7  T
   5    -34.3803733 -0.997746E-08  0.515E-04    2.88      48.6  T
   6    -34.3803733 -0.156525E-08  0.184E-04    2.88     135.8  T
   7    -34.3803733 -0.158089E-09  0.513E-05    2.88     487.1  T
     SCC iter.                  ...        0 min,  0.023 sec
     gradient                   ...        0 min,  0.035 sec
 * total energy  :   -34.1264390 Eh     change       -0.6660682E-03 Eh
   gradient norm :     0.0113809 Eh/α   predicted    -0.4341805E-03 ( -34.81%)
   displ. norm   :     0.3599442 α      lambda       -0.1157078E-02
   maximum displ.:     0.2408414 α      in ANC's #1, #3, #6, ...

........................................................................
.............................. CYCLE    5 ..............................
........................................................................
   1    -34.3784976 -0.343785E+02  0.109E-01    2.94       0.0  T
   2    -34.3786403 -0.142752E-03  0.751E-02    2.87       1.0  T
   3    -34.3786678 -0.274365E-04  0.384E-02    2.88       1.0  T
   4    -34.3786678 -0.903818E-07  0.432E-03    2.88       5.8  T
   5    -34.3786681 -0.219126E-06  0.150E-03    2.88      16.7  T
   6    -34.3786681 -0.128018E-07  0.476E-04    2.88      52.5  T
   7    -34.3786681 -0.152176E-08  0.133E-04    2.88     188.3  T
   8    -34.3786681 -0.406999E-10  0.398E-05    2.88     628.3  T
     SCC iter.                  ...        0 min,  0.021 sec
     gradient                   ...        0 min,  0.022 sec
 * total energy  :   -34.1272834 Eh     change       -0.8443738E-03 Eh
   gradient norm :     0.0133684 Eh/α   predicted    -0.6535082E-03 ( -22.60%)
   displ. norm   :     0.3830758 α      lambda       -0.8638306E-03
   maximum displ.:     0.2869933 α      in ANC's #1, #2, #3, ...

........................................................................
.............................. CYCLE    6 ..............................
........................................................................
   1    -34.3759279 -0.343759E+02  0.153E-01    2.99       0.0  T
   2    -34.3762293 -0.301409E-03  0.114E-01    2.90       1.0  T
   3    -34.3762719 -0.425876E-04  0.629E-02    2.92       1.0  T
   4    -34.3762725 -0.522388E-06  0.552E-03    2.91       4.5  T
   5    -34.3762727 -0.269256E-06  0.223E-03    2.92      11.2  T
   6    -34.3762728 -0.272975E-07  0.567E-04    2.92      44.1  T
   7    -34.3762728 -0.313668E-08  0.163E-04    2.92     153.8  T
   8    -34.3762728 -0.116529E-09  0.589E-05    2.92     424.2  T
     SCC iter.                  ...        0 min,  0.005 sec
     gradient                   ...        0 min,  0.030 sec
 * total energy  :   -34.1278825 Eh     change       -0.5991204E-03 Eh
   gradient norm :     0.0166421 Eh/α   predicted    -0.4953080E-03 ( -17.33%)
   displ. norm   :     0.2765896 α      lambda       -0.7032210E-03
   maximum displ.:     0.2065983 α      in ANC's #1, #2, #5, ...

........................................................................
.............................. CYCLE    7 ..............................
........................................................................
   1    -34.3763650 -0.343764E+02  0.949E-02    3.00       0.0  T
   2    -34.3764899 -0.124932E-03  0.745E-02    2.95       1.0  T
   3    -34.3765063 -0.163933E-04  0.421E-02    2.96       1.0  T
   4    -34.3765067 -0.438917E-06  0.346E-03    2.95       7.2  T
   5    -34.3765068 -0.626216E-07  0.131E-03    2.95      19.0  T
   6    -34.3765068 -0.852842E-08  0.157E-04    2.95     159.6  T
   7    -34.3765068 -0.162707E-09  0.727E-05    2.95     344.0  T
     SCC iter.                  ...        0 min,  0.021 sec
     gradient                   ...        0 min,  0.032 sec
 * total energy  :   -34.1284519 Eh     change       -0.5693240E-03 Eh
   gradient norm :     0.0130720 Eh/α   predicted    -0.3785083E-03 ( -33.52%)
   displ. norm   :     0.3559334 α      lambda       -0.1070995E-02
   maximum displ.:     0.2286293 α      in ANC's #1, #2, #5, ...

........................................................................
.............................. CYCLE    8 ..............................
........................................................................
   1    -34.3781423 -0.343781E+02  0.649E-02    2.99       0.0  T
   2    -34.3782048 -0.625229E-04  0.459E-02    2.98       1.0  T
   3    -34.3782156 -0.107740E-04  0.233E-02    2.98       1.1  T
   4    -34.3782158 -0.144859E-06  0.393E-03    2.98       6.4  T
   5    -34.3782159 -0.115918E-06  0.161E-03    2.98      15.5  T
   6    -34.3782159 -0.905610E-08  0.338E-04    2.98      73.9  T
   7    -34.3782159 -0.710713E-09  0.522E-05    2.98     478.8  T
   8    -34.3782159 -0.225100E-10  0.146E-05    2.98    1710.2  T
     SCC iter.                  ...        0 min,  0.005 sec
     gradient                   ...        0 min,  0.043 sec
 * total energy  :   -34.1291525 Eh     change       -0.7006868E-03 Eh
   gradient norm :     0.0099699 Eh/α   predicted    -0.6033382E-03 ( -13.89%)
   displ. norm   :     0.3008514 α      lambda       -0.4253769E-03
   maximum displ.:     0.2091214 α      in ANC's #1, #2, #5, ...

........................................................................
.............................. CYCLE    9 ..............................
........................................................................
   1    -34.3761282 -0.343761E+02  0.715E-02    3.02       0.0  T
   2    -34.3762085 -0.803098E-04  0.527E-02    2.99       1.0  T
   3    -34.3762180 -0.954989E-05  0.289E-02    3.00       1.0  T
   4    -34.3762183 -0.213426E-06  0.317E-03    2.99       7.9  T
   5    -34.3762183 -0.668998E-07  0.115E-03    2.99      21.7  T
   6    -34.3762183 -0.750343E-08  0.315E-04    2.99      79.3  T
   7    -34.3762183 -0.627665E-09  0.635E-05    2.99     393.4  T
   8    -34.3762183 -0.408136E-10  0.204E-05    2.99    1224.9  T
     SCC iter.                  ...        0 min,  0.018 sec
     gradient                   ...        0 min,  0.026 sec
 * total energy  :   -34.1294406 Eh     change       -0.2880049E-03 Eh
   gradient norm :     0.0098315 Eh/α   predicted    -0.2319419E-03 ( -19.47%)
   displ. norm   :     0.1902121 α      lambda       -0.2969732E-03
   maximum displ.:     0.1302223 α      in ANC's #1, #2, #6, ...

........................................................................
.............................. CYCLE   10 ..............................
........................................................................
   1    -34.3773825 -0.343774E+02  0.179E-02    2.99       0.0  T
   2    -34.3773853 -0.272491E-05  0.958E-03    2.99       2.6  T
   3    -34.3773858 -0.547544E-06  0.495E-03    2.99       5.0  T
   4    -34.3773858 -0.868332E-08  0.671E-04    2.99      37.2  T
   5    -34.3773858 -0.377210E-08  0.123E-04    2.99     202.6  T
   6    -34.3773858 -0.120224E-09  0.530E-05    2.99     471.7  T
     SCC iter.                  ...        0 min,  0.004 sec
     gradient                   ...        0 min,  0.039 sec
 * total energy  :   -34.1296438 Eh     change       -0.2032380E-03 Eh
   gradient norm :     0.0080081 Eh/α   predicted    -0.1538579E-03 ( -24.30%)
   displ. norm   :     0.1984550 α      lambda       -0.2044302E-03
   maximum displ.:     0.1636316 α      in ANC's #1, #2, #4, ...

........................................................................
.............................. CYCLE   11 ..............................
........................................................................
   1    -34.3773432 -0.343773E+02  0.269E-02    3.01       0.0  T
   2    -34.3773557 -0.125225E-04  0.177E-02    2.99       1.4  T
   3    -34.3773574 -0.166795E-05  0.873E-03    2.99       2.9  T
   4    -34.3773574 -0.136388E-07  0.106E-03    2.99      23.5  T
   5    -34.3773574 -0.122810E-07  0.382E-04    2.99      65.5  T
   6    -34.3773574 -0.126146E-08  0.871E-05    2.99     287.1  T
   7    -34.3773574 -0.364508E-10  0.257E-05    2.99     971.5  T
     SCC iter.                  ...        0 min,  0.005 sec
     gradient                   ...        0 min,  0.017 sec
 * total energy  :   -34.1297979 Eh     change       -0.1541004E-03 Eh
   gradient norm :     0.0058780 Eh/α   predicted    -0.1062381E-03 ( -31.06%)
   displ. norm   :     0.1819374 α      lambda       -0.1822161E-03
   maximum displ.:     0.1647462 α      in ANC's #1, #2, #6, ...

........................................................................
.............................. CYCLE   12 ..............................
........................................................................
   1    -34.3782466 -0.343782E+02  0.184E-02    3.00       0.0  T
   2    -34.3782510 -0.434277E-05  0.104E-02    2.99       2.4  T
   3    -34.3782520 -0.967330E-06  0.418E-03    2.99       6.0  T
   4    -34.3782520 -0.434490E-09  0.630E-04    2.99      39.7  T
   5    -34.3782520 -0.252372E-08  0.106E-04    2.99     236.9  T
   6    -34.3782520 -0.107491E-09  0.533E-05    2.99     469.0  T
     SCC iter.                  ...        0 min,  0.004 sec
     gradient                   ...        0 min,  0.017 sec
 * total energy  :   -34.1299365 Eh     change       -0.1385885E-03 Eh
   gradient norm :     0.0041182 Eh/α   predicted    -0.9412228E-04 ( -32.09%)
   displ. norm   :     0.2080173 α      lambda       -0.1433923E-03
   maximum displ.:     0.1936985 α      in ANC's #1, #2, #7, ...

........................................................................
.............................. CYCLE   13 ..............................
........................................................................
   1    -34.3779997 -0.343780E+02  0.212E-02    3.00       0.0  T
   2    -34.3780061 -0.644523E-05  0.134E-02    2.98       1.9  T
   3    -34.3780073 -0.115406E-05  0.603E-03    2.99       4.1  T
   4    -34.3780073 -0.993293E-08  0.879E-04    2.99      28.4  T
   5    -34.3780073 -0.781768E-08  0.277E-04    2.99      90.4  T
   6    -34.3780073 -0.329358E-09  0.626E-05    2.99     399.5  T
   7    -34.3780073 -0.162856E-10  0.226E-05    2.99    1105.6  T
     SCC iter.                  ...        0 min,  0.005 sec
     gradient                   ...        0 min,  0.018 sec
 * total energy  :   -34.1300452 Eh     change       -0.1087317E-03 Eh
   gradient norm :     0.0041616 Eh/α   predicted    -0.7479759E-04 ( -31.21%)
   displ. norm   :     0.1998124 α      lambda       -0.1182818E-03
   maximum displ.:     0.1860663 α      in ANC's #1, #7, #5, ...

........................................................................
.............................. CYCLE   14 ..............................
........................................................................
   1    -34.3785434 -0.343785E+02  0.151E-02    2.99       0.0  T
   2    -34.3785463 -0.281035E-05  0.902E-03    2.98       2.8  T
   3    -34.3785467 -0.492634E-06  0.413E-03    2.98       6.0  T
   4    -34.3785468 -0.797302E-08  0.765E-04    2.98      32.7  T
   5    -34.3785468 -0.338390E-08  0.261E-04    2.98      95.6  T
   6    -34.3785468 -0.316092E-09  0.633E-05    2.98     395.1  T
   7    -34.3785468 -0.186304E-10  0.173E-05    2.98    1441.0  T
     SCC iter.                  ...        0 min,  0.005 sec
     gradient                   ...        0 min,  0.017 sec
 * total energy  :   -34.1301344 Eh     change       -0.8921936E-04 Eh
   gradient norm :     0.0046654 Eh/α   predicted    -0.6149995E-04 ( -31.07%)
   displ. norm   :     0.2720182 α      lambda       -0.1143585E-03
   maximum displ.:     0.2538739 α      in ANC's #1, #7, #5, ...

........................................................................
.............................. CYCLE   15 ..............................
........................................................................
   1    -34.3775636 -0.343776E+02  0.168E-02    2.99       0.0  T
   2    -34.3775668 -0.318948E-05  0.111E-02    2.98       2.2  T
   3    -34.3775672 -0.333354E-06  0.564E-03    2.98       4.4  T
   4    -34.3775672 -0.171311E-07  0.863E-04    2.98      29.0  T
   5    -34.3775672 -0.212049E-08  0.289E-04    2.98      86.5  T
   6    -34.3775672 -0.256463E-09  0.432E-05    2.98     578.3  T
   7    -34.3775672 -0.146372E-10  0.172E-05    2.98    1456.2  T
     SCC iter.                  ...        0 min,  0.005 sec
     gradient                   ...        0 min,  0.018 sec
 * total energy  :   -34.1302117 Eh     change       -0.7721953E-04 Eh
   gradient norm :     0.0050722 Eh/α   predicted    -0.6141373E-04 ( -20.47%)
   displ. norm   :     0.2205385 α      lambda       -0.1017872E-03
   maximum displ.:     0.1931153 α      in ANC's #1, #5, #7, ...

........................................................................
.............................. CYCLE   16 ..............................
........................................................................
   1    -34.3782249 -0.343782E+02  0.106E-02    2.98       0.0  T
   2    -34.3782261 -0.112731E-05  0.686E-03    2.98       3.6  T
   3    -34.3782262 -0.144884E-06  0.366E-03    2.98       6.8  T
   4    -34.3782262 -0.323380E-08  0.761E-04    2.98      32.8  T
   5    -34.3782262 -0.382008E-08  0.248E-04    2.98     100.7  T
   6    -34.3782262 -0.220169E-09  0.609E-05    2.98     410.7  T
   7    -34.3782262 -0.144453E-10  0.129E-05    2.98    1935.8  T
     SCC iter.                  ...        0 min,  0.005 sec
     gradient                   ...        0 min,  0.017 sec
 * total energy  :   -34.1302731 Eh     change       -0.6148541E-04 Eh
   gradient norm :     0.0042850 Eh/α   predicted    -0.5337066E-04 ( -13.20%)
   displ. norm   :     0.1103582 α      lambda       -0.3844623E-04
   maximum displ.:     0.0963556 α      in ANC's #1, #7, #3, ...

........................................................................
.............................. CYCLE   17 ..............................
........................................................................
   1    -34.3784504 -0.343785E+02  0.841E-03    2.98       0.0  T
   2    -34.3784511 -0.745594E-06  0.513E-03    2.98       4.9  T
   3    -34.3784513 -0.172597E-06  0.241E-03    2.98      10.4  T
   4    -34.3784513  0.350155E-10  0.293E-04    2.98      85.4  T
   5    -34.3784513 -0.481613E-09  0.304E-05    2.98     823.1  T
   6    -34.3784513 -0.750333E-11  0.134E-05    2.98    1861.0  T
     SCC iter.                  ...        0 min,  0.004 sec
     gradient                   ...        0 min,  0.017 sec
 * total energy  :   -34.1302993 Eh     change       -0.2620187E-04 Eh
   gradient norm :     0.0028390 Eh/α   predicted    -0.1945546E-04 ( -25.75%)
   displ. norm   :     0.0621260 α      lambda       -0.3503833E-04
   maximum displ.:     0.0361953 α      in ANC's #3, #1, #5, ...

........................................................................
.............................. CYCLE   18 ..............................
........................................................................
   1    -34.3790848 -0.343791E+02  0.121E-02    2.98       0.0  T
   2    -34.3790859 -0.104205E-05  0.632E-03    2.98       4.0  T
   3    -34.3790860 -0.164618E-06  0.321E-03    2.98       7.8  T
   4    -34.3790860 -0.104711E-07  0.727E-04    2.98      34.4  T
   5    -34.3790860 -0.198808E-08  0.114E-04    2.98     220.0  T
   6    -34.3790860 -0.743583E-10  0.418E-05    2.98     598.6  T
     SCC iter.                  ...        0 min,  0.005 sec
     gradient                   ...        0 min,  0.017 sec
 * total energy  :   -34.1303185 Eh     change       -0.1918460E-04 Eh
   gradient norm :     0.0027656 Eh/α   predicted    -0.1758774E-04 (  -8.32%)
   displ. norm   :     0.0428209 α      lambda       -0.1652947E-04
   maximum displ.:     0.0303914 α      in ANC's #3, #7, #1, ...

........................................................................
.............................. CYCLE   19 ..............................
........................................................................
   1    -34.3790875 -0.343791E+02  0.507E-03    2.98       0.0  T
   2    -34.3790877 -0.140815E-06  0.269E-03    2.98       9.3  T
   3    -34.3790877 -0.112924E-07  0.132E-03    2.98      19.0  T
   4    -34.3790877 -0.448409E-08  0.321E-04    2.98      77.8  T
   5    -34.3790877 -0.462570E-09  0.822E-05    2.98     304.1  T
   6    -34.3790877 -0.241229E-10  0.236E-05    2.98    1058.3  T
     SCC iter.                  ...        0 min,  0.011 sec
     gradient                   ...        0 min,  0.018 sec
 * total energy  :   -34.1303309 Eh     change       -0.1233291E-04 Eh
   gradient norm :     0.0023643 Eh/α   predicted    -0.8279800E-05 ( -32.86%)
   displ. norm   :     0.0953818 α      lambda       -0.2934007E-04
   maximum displ.:     0.0740812 α      in ANC's #3, #7, #1, ...

........................................................................
.............................. CYCLE   20 ..............................
........................................................................
   1    -34.3782242 -0.343782E+02  0.908E-03    2.97       0.0  T
   2    -34.3782246 -0.420699E-06  0.463E-03    2.97       5.4  T
   3    -34.3782246 -0.202042E-07  0.183E-03    2.97      13.7  T
   4    -34.3782247 -0.675190E-08  0.549E-04    2.97      45.5  T
   5    -34.3782247 -0.146905E-08  0.124E-04    2.97     202.3  T
   6    -34.3782247 -0.677858E-10  0.538E-05    2.97     465.1  T
     SCC iter.                  ...        0 min,  0.004 sec
     gradient                   ...        0 min,  0.017 sec
 * total energy  :   -34.1303487 Eh     change       -0.1788406E-04 Eh
   gradient norm :     0.0027121 Eh/α   predicted    -0.1480472E-04 ( -17.22%)
   displ. norm   :     0.0967763 α      lambda       -0.2655949E-04
   maximum displ.:     0.0679208 α      in ANC's #1, #3, #6, ...
 * RMSD in coord.:     0.7715345 α      energy gain  -0.1225365E-01 Eh

generating ANC from model Hessian ...
Using Lindh-Hessian (1995)
 Shifting diagonal of input Hessian by   8.395300150123264E-003
 Lowest  eigenvalues of input Hessian
    0.000000    0.000000    0.000000    0.000000    0.000000    0.000000
    0.010000    0.012809    0.013280    0.014502    0.020624    0.025268
    0.033864    0.039024    0.047634    0.054148    0.076172    0.083048
 Highest eigenvalues
    1.333034    1.565789    1.698888    1.886489    1.958124    2.109654
 

........................................................................
.............................. CYCLE   21 ..............................
........................................................................
   1    -34.3787822 -0.343788E+02  0.106E-02    2.97       0.0  T
   2    -34.3787829 -0.745488E-06  0.670E-03    2.97       3.7  T
   3    -34.3787830 -0.104551E-06  0.324E-03    2.97       7.7  T
   4    -34.3787830 -0.118220E-07  0.638E-04    2.97      39.2  T
   5    -34.3787830 -0.213704E-08  0.268E-04    2.97      93.3  T
   6    -34.3787830 -0.200586E-09  0.476E-05    2.97     525.4  T
   7    -34.3787830 -0.150635E-10  0.105E-05    2.97    2384.4  T
     SCC iter.                  ...        0 min,  0.005 sec
     gradient                   ...        0 min,  0.017 sec
 * total energy  :   -34.1303594 Eh     change       -0.1069782E-04 Eh
   gradient norm :     0.0027102 Eh/α   predicted     0.0000000E+00 (-100.00%)
   displ. norm   :     0.0240289 α      lambda       -0.1665463E-04
   maximum displ.:     0.0176628 α      in ANC's #2, #5, #3, ...

........................................................................
.............................. CYCLE   22 ..............................
........................................................................
   1    -34.3788424 -0.343788E+02  0.342E-03    2.97       0.0  T
   2    -34.3788425 -0.149514E-06  0.139E-03    2.97      17.9  T
   3    -34.3788425 -0.132987E-07  0.768E-04    2.97      32.6  T
   4    -34.3788425 -0.756373E-09  0.214E-04    2.97     116.7  T
   5    -34.3788425 -0.510880E-10  0.435E-05    2.97     574.3  T
   6    -34.3788425 -0.943601E-11  0.176E-05    2.97    1417.2  T
     SCC iter.                  ...        0 min,  0.004 sec
     gradient                   ...        0 min,  0.016 sec
 * total energy  :   -34.1303724 Eh     change       -0.1296234E-04 Eh
   gradient norm :     0.0017337 Eh/α   predicted    -0.8333557E-05 ( -35.71%)
   displ. norm   :     0.0871876 α      lambda       -0.2280244E-04
   maximum displ.:     0.0674155 α      in ANC's #2, #3, #5, ...

........................................................................
.............................. CYCLE   23 ..............................
........................................................................
   1    -34.3789059 -0.343789E+02  0.103E-02    2.98       0.0  T
   2    -34.3789067 -0.815865E-06  0.401E-03    2.98       6.2  T
   3    -34.3789067 -0.448545E-07  0.236E-03    2.98      10.6  T
   4    -34.3789067 -0.119548E-07  0.583E-04    2.98      42.9  T
   5    -34.3789067 -0.490232E-09  0.124E-04    2.98     201.2  T
   6    -34.3789067 -0.360387E-10  0.365E-05    2.98     685.7  T
     SCC iter.                  ...        0 min,  0.004 sec
     gradient                   ...        0 min,  0.017 sec
 * total energy  :   -34.1303889 Eh     change       -0.1653819E-04 Eh
   gradient norm :     0.0020034 Eh/α   predicted    -0.1143982E-04 ( -30.83%)
   displ. norm   :     0.0209415 α      lambda       -0.7651230E-05
   maximum displ.:     0.0142632 α      in ANC's #2, #4, #3, ...

........................................................................
.............................. CYCLE   24 ..............................
........................................................................
   1    -34.3789431 -0.343789E+02  0.281E-03    2.98       0.0  T
   2    -34.3789432 -0.591653E-07  0.186E-03    2.98      13.4  T
   3    -34.3789432 -0.637373E-08  0.948E-04    2.98      26.4  T
   4    -34.3789432 -0.304880E-09  0.968E-05    2.98     258.3  T
   5    -34.3789432 -0.382983E-10  0.317E-05    2.98     789.2  T
     SCC iter.                  ...        0 min,  0.003 sec
     gradient                   ...        0 min,  0.011 sec
 * total energy  :   -34.1303958 Eh     change       -0.6842018E-05 Eh
   gradient norm :     0.0016211 Eh/α   predicted    -0.3825726E-05 ( -44.08%)
   displ. norm   :     0.1484293 α      lambda       -0.2755280E-04
   maximum displ.:     0.0973339 α      in ANC's #2, #4, #3, ...

........................................................................
.............................. CYCLE   25 ..............................
........................................................................
   1    -34.3786823 -0.343787E+02  0.165E-02    2.99       0.0  T
   2    -34.3786850 -0.272167E-05  0.114E-02    2.98       2.2  T
   3    -34.3786853 -0.307373E-06  0.604E-03    2.98       4.1  T
   4    -34.3786853 -0.750330E-08  0.532E-04    2.98      47.0  T
   5    -34.3786853 -0.115921E-08  0.208E-04    2.98     119.9  T
   6    -34.3786853 -0.219195E-09  0.444E-05    2.98     562.8  T
   7    -34.3786853 -0.182965E-10  0.122E-05    2.98    2057.4  T
     SCC iter.                  ...        0 min,  0.004 sec
     gradient                   ...        0 min,  0.014 sec
 * total energy  :   -34.1304184 Eh     change       -0.2265974E-04 Eh
   gradient norm :     0.0020775 Eh/α   predicted    -0.1391063E-04 ( -38.61%)
   displ. norm   :     0.0511766 α      lambda       -0.1042591E-04
   maximum displ.:     0.0328457 α      in ANC's #2, #4, #3, ...

........................................................................
.............................. CYCLE   26 ..............................
........................................................................
   1    -34.3786889 -0.343787E+02  0.275E-03    2.98       0.0  T
   2    -34.3786890 -0.103699E-06  0.204E-03    2.98      12.2  T
   3    -34.3786890 -0.119850E-07  0.112E-03    2.98      22.3  T
   4    -34.3786890 -0.387999E-09  0.990E-05    2.98     252.4  T
   5    -34.3786890 -0.294307E-10  0.393E-05    2.98     635.8  T
     SCC iter.                  ...        0 min,  0.002 sec
     gradient                   ...        0 min,  0.009 sec
 * total energy  :   -34.1304279 Eh     change       -0.9433930E-05 Eh
   gradient norm :     0.0019456 Eh/α   predicted    -0.5225389E-05 ( -44.61%)
   displ. norm   :     0.3157273 α      lambda       -0.4311451E-04
   maximum displ.:     0.1919464 α      in ANC's #2, #4, #3, ...

........................................................................
.............................. CYCLE   27 ..............................
........................................................................
   1    -34.3774097 -0.343774E+02  0.142E-02    2.99       0.0  T
   2    -34.3774121 -0.236554E-05  0.969E-03    2.98       2.6  T
   3    -34.3774123 -0.264937E-06  0.504E-03    2.98       5.0  T
   4    -34.3774123 -0.600804E-08  0.662E-04    2.98      37.7  T
   5    -34.3774123 -0.661899E-09  0.185E-04    2.98     135.1  T
   6    -34.3774123 -0.127883E-09  0.449E-05    2.98     556.2  T
     SCC iter.                  ...        0 min,  0.003 sec
     gradient                   ...        0 min,  0.013 sec
 * total energy  :   -34.1304267 Eh     change        0.1174970E-05 Eh
   gradient norm :     0.0053305 Eh/α   predicted    -0.2251173E-04 (*******%)
   displ. norm   :     0.1130795 α      lambda       -0.6476065E-04
   maximum displ.:     0.0770522 α      in ANC's #2, #4, #3, ...

........................................................................
.............................. CYCLE   28 ..............................
........................................................................
   1    -34.3791138 -0.343791E+02  0.125E-02    2.98       0.0  T
   2    -34.3791146 -0.815499E-06  0.792E-03    2.98       3.2  T
   3    -34.3791147 -0.846681E-07  0.355E-03    2.98       7.0  T
   4    -34.3791147 -0.155757E-07  0.577E-04    2.98      43.4  T
   5    -34.3791147 -0.600942E-09  0.164E-04    2.98     152.7  T
   6    -34.3791147 -0.177288E-09  0.286E-05    2.98     872.7  T
     SCC iter.                  ...        0 min,  0.003 sec
     gradient                   ...        0 min,  0.012 sec
 * total energy  :   -34.1304553 Eh     change       -0.2858415E-04 Eh
   gradient norm :     0.0022403 Eh/α   predicted    -0.3279540E-04 (  14.73%)
   displ. norm   :     0.0100774 α      lambda       -0.7439055E-05
   maximum displ.:     0.0063382 α      in ANC's #4, #1, #5, ...

........................................................................
.............................. CYCLE   29 ..............................
........................................................................
   1    -34.3789147 -0.343789E+02  0.202E-03    2.98       0.0  T
   2    -34.3789148 -0.665166E-07  0.132E-03    2.98      18.9  T
   3    -34.3789148 -0.736764E-08  0.660E-04    2.98      37.9  T
   4    -34.3789148 -0.107548E-09  0.123E-04    2.98     202.6  T
   5    -34.3789148 -0.378506E-10  0.303E-05    2.98     824.1  T
     SCC iter.                  ...        0 min,  0.002 sec
     gradient                   ...        0 min,  0.009 sec
 * total energy  :   -34.1304610 Eh     change       -0.5682397E-05 Eh
   gradient norm :     0.0012530 Eh/α   predicted    -0.3720597E-05 ( -34.52%)
   displ. norm   :     0.0697416 α      lambda       -0.1059628E-04
   maximum displ.:     0.0411209 α      in ANC's #4, #5, #7, ...

........................................................................
.............................. CYCLE   30 ..............................
........................................................................
   1    -34.3786783 -0.343787E+02  0.812E-03    2.98       0.0  T
   2    -34.3786792 -0.877637E-06  0.599E-03    2.98       4.2  T
   3    -34.3786793 -0.106190E-06  0.325E-03    2.98       7.7  T
   4    -34.3786793 -0.305191E-08  0.320E-04    2.98      78.1  T
   5    -34.3786793 -0.487113E-09  0.139E-04    2.98     179.6  T
   6    -34.3786793 -0.105260E-09  0.355E-05    2.98     704.9  T
     SCC iter.                  ...        0 min,  0.003 sec
     gradient                   ...        0 min,  0.013 sec
 * total energy  :   -34.1304702 Eh     change       -0.9224726E-05 Eh
   gradient norm :     0.0009484 Eh/α   predicted    -0.5309258E-05 ( -42.45%)
   displ. norm   :     0.0726163 α      lambda       -0.5443253E-05
   maximum displ.:     0.0381904 α      in ANC's #4, #5, #2, ...

........................................................................
.............................. CYCLE   31 ..............................
........................................................................
   1    -34.3786933 -0.343787E+02  0.617E-03    2.98       0.0  T
   2    -34.3786936 -0.329635E-06  0.432E-03    2.98       5.8  T
   3    -34.3786936 -0.374283E-07  0.227E-03    2.98      11.0  T
   4    -34.3786936 -0.121339E-08  0.227E-04    2.98     110.2  T
   5    -34.3786936 -0.221647E-09  0.857E-05    2.98     291.6  T
   6    -34.3786936 -0.373035E-10  0.190E-05    2.98    1316.4  T
     SCC iter.                  ...        0 min,  0.003 sec
     gradient                   ...        0 min,  0.009 sec
 * total energy  :   -34.1304761 Eh     change       -0.5875903E-05 Eh
   gradient norm :     0.0010353 Eh/α   predicted    -0.2726162E-05 ( -53.60%)
   displ. norm   :     0.0632217 α      lambda       -0.4090620E-05
   maximum displ.:     0.0342456 α      in ANC's #5, #4, #2, ...

........................................................................
.............................. CYCLE   32 ..............................
........................................................................
   1    -34.3789805 -0.343790E+02  0.576E-03    2.98       0.0  T
   2    -34.3789808 -0.310434E-06  0.402E-03    2.98       6.2  T
   3    -34.3789808 -0.332683E-07  0.214E-03    2.98      11.7  T
   4    -34.3789808 -0.868880E-09  0.239E-04    2.98     104.7  T
   5    -34.3789808 -0.203663E-09  0.759E-05    2.98     329.4  T
   6    -34.3789808 -0.272919E-10  0.102E-05    2.98    2455.6  T
     SCC iter.                  ...        0 min,  0.003 sec
     gradient                   ...        0 min,  0.009 sec
 * total energy  :   -34.1304800 Eh     change       -0.3973678E-05 Eh
   gradient norm :     0.0007162 Eh/α   predicted    -0.2048736E-05 ( -48.44%)
   displ. norm   :     0.0601619 α      lambda       -0.2266426E-05
   maximum displ.:     0.0349743 α      in ANC's #2, #4, #5, ...

   *** GEOMETRY OPTIMIZATION CONVERGED AFTER 32 ITERATIONS ***

------------------------------------------------------------------------
 total energy gain   :        -0.0123849 Eh       -7.7717 kcal/mol
 total RMSD          :         0.8418982 a0        0.4455 Å
 total power (kW/mol):        -1.0161463 (step)  -25.4589 (real)
------------------------------------------------------------------------

 ANCopt (total)                0 d,  0 h,  0 min,  1.277 sec
 optimizer setup                ...        0 min,  0.001 sec (  0.062%)
 model hessian                  ...        0 min,  0.005 sec (  0.374%)
 ANC generation                 ...        0 min,  0.001 sec (  0.067%)
 coordinate transformation      ...        0 min,  0.000 sec (  0.024%)
 single point calculation       ...        0 min,  1.238 sec ( 96.959%)
 optimization log               ...        0 min,  0.026 sec (  2.032%)
 hessian update                 ...        0 min,  0.000 sec (  0.026%)
 rational function              ...        0 min,  0.004 sec (  0.296%)

================
 final structure:
================
16
 xtb: 6.5.1 (579679a)
C           -2.63012625859053        0.70271656439606        0.25803018132648
O           -2.28504315042465       -0.56014802144900        0.82836580754510
C           -1.43933947772942       -1.37873323403169        0.11469295953026
Cl          -2.29035402573859       -2.18341361594810       -1.30043555373351
C           -0.14845503411890       -0.93916857234586       -0.22206766639577
N            0.70846016898521       -1.49305246945732       -1.07794547187792
N            1.94169232431958       -0.91553961207249       -0.82466667701811
C            1.78365147666310       -0.08043452388638        0.13877443658862
C            2.81711170471724        0.77987422500684        0.77255916022717
O            0.49610392753638       -0.02591174657804        0.58633406153130
H           -3.08920845262610        0.57501428323004       -0.73006464068373
H           -1.74851428749164        1.34854852059339        0.16216317750420
H           -3.34932278036005        1.17549924925835        0.92913856349253
H            2.60143713601749        1.83454167725063        0.59408095882451
H            3.79272419175168        0.54142990997652        0.35367503716441
H            2.83918353708922        0.61878036605684        1.85099566597399
 
 Bond Distances (Angstroems)
 ---------------------------
C1-O2=1.4280         C1-H11=1.0970        C1-H12=1.0971        C1-H13=1.0914        O2-C1=1.4280         O2-C3=1.3765         
C3-O2=1.3765         C3-Cl4=1.8369        C3-C5=1.4046         Cl4-C3=1.8369        C5-C3=1.4046         C5-N6=1.3318         
C5-O10=1.3795        N6-C5=1.3318         N6-N7=1.3851         N7-N6=1.3851         N7-C8=1.2848         C8-N7=1.2848         
C8-C9=1.4866         C8-O10=1.3642        C9-C8=1.4866         C9-H14=1.0912        C9-H15=1.0882        C9-H16=1.0906        
O10-C5=1.3795        O10-C8=1.3642        H11-C1=1.0970        H12-C1=1.0971        H13-C1=1.0914        H14-C9=1.0912        
H15-C9=1.0882        H16-C9=1.0906        
 C  H  Rav=1.0926 sigma=0.0033  Rmin=1.0882  Rmax=1.0971     6
 C  C  Rav=1.4456 sigma=0.0410  Rmin=1.4046  Rmax=1.4866     2
 N  C  Rav=1.3083 sigma=0.0235  Rmin=1.2848  Rmax=1.3318     2
 N  N  Rav=1.3851 sigma=0.0000  Rmin=1.3851  Rmax=1.3851     1
 O  C  Rav=1.3870 sigma=0.0243  Rmin=1.3642  Rmax=1.4280     4
 Cl C  Rav=1.8369 sigma=0.0000  Rmin=1.8369  Rmax=1.8369     1
 
 selected bond angles (degree)
 --------------------
H11-C1-O2=110.97               H12-C1-O2=111.18               H12-C1-H11=109.03              H13-C1-O2=107.26               
H13-C1-H11=109.18              H13-C1-H12=109.16              C3-O2-C1=117.86                Cl4-C3-O2=112.04               
C5-C3-O2=120.19                C5-C3-Cl4=112.22               N6-C5-C3=127.97                O10-C5-C3=119.74               
O10-C5-N6=110.57               N7-N6-C5=106.38                C8-N7-N6=107.37                C9-C8-N7=127.62                
O10-C8-N7=112.84               O10-C8-C9=119.55               H14-C9-C8=110.62               H15-C9-C8=109.41               
H15-C9-H14=109.03              H16-C9-C8=110.50               H16-C9-H14=107.97              H16-C9-H15=109.28              
C8-O10-C5=102.84               
 
 selected dihedral angles (degree)
 ---------------------------------
C3-O2-C1-H11= 57.27           C3-O2-C1-H12=295.72           C3-O2-C1-H13=176.44           Cl4-C3-O2-C1=284.68           
C5-C3-O2-C1= 59.71            N6-C5-C3-O2=192.01            N6-C5-C3-Cl4=326.97           O10-C5-C3-O2= 28.44           
O10-C5-C3-Cl4=163.41          N7-N6-C5-C3=194.75            N7-N6-C5-O10=359.54           C8-N7-N6-C5=  0.43            
C9-C8-N7-N6=179.70            O10-C8-N7-N6=359.75           H14-C9-C8-N7=115.14           H14-C9-C8-O10=295.09          
H15-C9-C8-N7=355.01           H15-C9-C8-O10=174.96          H16-C9-C8-N7=234.65           H16-C9-C8-O10= 54.60          
C8-O10-C5-C3=166.53           C8-O10-C5-N6=  0.31           C5-O10-C8-N7=359.97           C5-O10-C8-C9=180.02           
           -------------------------------------------------
          |                Final Singlepoint                |
           -------------------------------------------------

          ...................................................
          :                      SETUP                      :
          :.................................................:
          :  # basis functions                  58          :
          :  # atomic orbitals                  57          :
          :  # shells                           33          :
          :  # electrons                        56          :
          :  # halogen bonds                     4          :
          :  max. iterations                   250          :
          :  Hamiltonian                  GFN1-xTB          :
          :  restarted?                      false          :
          :  GBSA solvation                   true          :
          :  PC potential                    false          :
          :  electronic temp.          300.0000000     K    :
          :  accuracy                    1.0000000          :
          :  -> integral cutoff          0.2500000E+02      :
          :  -> integral neglect         0.1000000E-07      :
          :  -> SCF convergence          0.1000000E-05 Eh   :
          :  -> wf. convergence          0.2000000E-04 e    :
          :  Broyden damping             0.4000000          :
          ...................................................

 iter      E             dE          RMSdq      gap      omega  full diag
   1    -34.3789808 -0.343790E+02  0.289E-06    2.98       0.0  T
   2    -34.3789808 -0.710543E-14  0.148E-06    2.98   16837.5  T
   3    -34.3789808 -0.355271E-13  0.842E-07    2.98   29704.1  T

   *** convergence criteria satisfied after 3 iterations ***

         #    Occupation            Energy/Eh            Energy/eV
      -------------------------------------------------------------
         1        2.0000           -0.8470853             -23.0504
       ...           ...                  ...                  ...
        22        2.0000           -0.4341438             -11.8137
        23        2.0000           -0.4323809             -11.7657
        24        2.0000           -0.4239628             -11.5366
        25        2.0000           -0.4093544             -11.1391
        26        2.0000           -0.3964996             -10.7893
        27        2.0000           -0.3841601             -10.4535
        28        2.0000           -0.3090991              -8.4110 (HOMO)
        29                         -0.1996809              -5.4336 (LUMO)
        30                         -0.1806542              -4.9158
        31                         -0.1345653              -3.6617
        32                         -0.1200377              -3.2664
        33                         -0.1082348              -2.9452
       ...                                ...                  ...
        57                          0.6358530              17.3024
      -------------------------------------------------------------
                  HL-Gap            0.1094182 Eh            2.9774 eV
             Fermi-level           -0.2543900 Eh           -6.9223 eV

 SCC (total)                   0 d,  0 h,  0 min,  0.016 sec
 SCC setup                      ...        0 min,  0.000 sec (  2.327%)
 Dispersion                     ...        0 min,  0.000 sec (  0.250%)
 classical contributions        ...        0 min,  0.000 sec (  0.112%)
 integral evaluation            ...        0 min,  0.005 sec ( 29.238%)
 iterations                     ...        0 min,  0.001 sec (  9.183%)
 molecular gradient             ...        0 min,  0.009 sec ( 57.817%)
 printout                       ...        0 min,  0.000 sec (  0.886%)

         :::::::::::::::::::::::::::::::::::::::::::::::::::::
         ::                     SUMMARY                     ::
         :::::::::::::::::::::::::::::::::::::::::::::::::::::
         :: total energy             -34.130480039293 Eh    ::
         :: total w/o Gsasa/hb       -34.121650052512 Eh    ::
         :: gradient norm              0.000717312955 Eh/a0 ::
         :: HOMO-LUMO gap              2.977419532147 eV    ::
         ::.................................................::
         :: SCC energy               -34.378980804600 Eh    ::
         :: -> electrostatic           0.197902543241 Eh    ::
         :: -> Gsolv                  -0.094060012698 Eh    ::
         ::    -> Gelec               -0.085230025917 Eh    ::
         ::    -> Gsasa               -0.015827688797 Eh    ::
         ::    -> Ghb                 -0.000626576989 Eh    ::
         ::    -> Gshift               0.007624279005 Eh    ::
         :: repulsion energy           0.255641613153 Eh    ::
         :: dispersion energy         -0.007140847846 Eh    ::
         :: halogen bond corr.         0.000000000000 Eh    ::
         :: add. restraining           0.000000000000 Eh    ::
         :: total charge              -1.000000000000 e     ::
         :::::::::::::::::::::::::::::::::::::::::::::::::::::

           -------------------------------------------------
          |                Property Printout                |
           -------------------------------------------------

    * Orbital Energies and Occupations

         #    Occupation            Energy/Eh            Energy/eV
      -------------------------------------------------------------
         1        2.0000           -0.8470853             -23.0504
       ...           ...                  ...                  ...
        16        2.0000           -0.5138456             -13.9825
        17        2.0000           -0.5085058             -13.8371
        18        2.0000           -0.4880248             -13.2798
        19        2.0000           -0.4845579             -13.1855
        20        2.0000           -0.4669396             -12.7061
        21        2.0000           -0.4474904             -12.1768
        22        2.0000           -0.4341438             -11.8137
        23        2.0000           -0.4323809             -11.7657
        24        2.0000           -0.4239628             -11.5366
        25        2.0000           -0.4093544             -11.1391
        26        2.0000           -0.3964996             -10.7893
        27        2.0000           -0.3841601             -10.4535
        28        2.0000           -0.3090991              -8.4110 (HOMO)
        29                         -0.1996809              -5.4336 (LUMO)
        30                         -0.1806542              -4.9158
        31                         -0.1345653              -3.6617
        32                         -0.1200377              -3.2664
        33                         -0.1082348              -2.9452
        34                         -0.0539114              -1.4670
        35                         -0.0530149              -1.4426
        36                         -0.0471576              -1.2832
        37                         -0.0428666              -1.1665
        38                          0.0164317               0.4471
        39                          0.0209745               0.5707
       ...                                ...                  ...
        57                          0.6358530              17.3024
      -------------------------------------------------------------
                  HL-Gap            0.1094182 Eh            2.9774 eV
             Fermi-level           -0.2543900 Eh           -6.9223 eV

  Mulliken/CM5 charges         n(s)   n(p)   n(d)
     1C     0.16409  0.04419   0.973  2.863  0.000
     2O    -0.46725 -0.54927   1.688  4.779  0.000
     3C     0.11319  0.14222   1.063  2.824  0.000
     4Cl   -0.38124 -0.37711   1.964  5.411  0.007
     5C     0.31980  0.43053   1.016  2.664  0.000
     6N    -0.41063 -0.50862   1.582  3.829  0.000
     7N    -0.32650 -0.43571   1.576  3.751  0.000
     8C     0.33982  0.44946   0.988  2.673  0.000
     9C    -0.10987 -0.24693   1.008  3.102  0.000
    10O    -0.41778 -0.46941   1.710  4.708  0.000
    11H     0.01108  0.07047   0.989  0.000  0.000
    12H     0.01305  0.07440   0.987  0.000  0.000
    13H     0.01607  0.07565   0.984  0.000  0.000
    14H     0.04740  0.10139   0.953  0.000  0.000
    15H     0.04158  0.09726   0.958  0.000  0.000
    16H     0.04719  0.10150   0.953  0.000  0.000

Wiberg/Mayer (AO) data.
largest (>0.10) Wiberg bond orders for each atom

 ---------------------------------------------------------------------------
     #   Z sym  total        # sym  WBO       # sym  WBO       # sym  WBO
 ---------------------------------------------------------------------------
     1   6 C    3.932 --    13 H    0.987    12 H    0.982    11 H    0.982
                             2 O    0.933
     2   8 O    2.057 --     3 C    1.006     1 C    0.933
     3   6 C    3.428 --     5 C    1.337     2 O    1.006     4 Cl   0.803
                             6 N    0.145
     4  17 Cl   0.911 --     3 C    0.803
     5   6 C    3.855 --     6 N    1.407     3 C    1.337    10 O    0.982
     6   7 N    2.864 --     5 C    1.407     7 N    1.141     3 C    0.145
     7   7 N    2.983 --     8 C    1.678     6 N    1.141
     8   6 C    3.890 --     7 N    1.678    10 O    1.020     9 C    1.020
     9   6 C    3.995 --     8 C    1.020    15 H    0.986    16 H    0.975
                            14 H    0.973
    10   8 O    2.221 --     8 C    1.020     5 C    0.982
    11   1 H    1.019 --     1 C    0.982
    12   1 H    1.019 --     1 C    0.982
    13   1 H    1.021 --     1 C    0.987
    14   1 H    1.005 --     9 C    0.973
    15   1 H    1.006 --     9 C    0.986
    16   1 H    1.005 --     9 C    0.975
 ---------------------------------------------------------------------------

Topologies differ in total number of bonds
Writing topology from bond orders to xtbtopo.mol

 dipole moment from electron density (au)
     X       Y       Z   
   1.3007   4.1061   1.5329  total (Debye):   11.620

           -------------------------------------------------
          |                Geometry Summary                 |
           -------------------------------------------------

      molecular mass/u    :      161.5664778
   center of mass at/Å    :       -0.4149934      -0.7760153      -0.2115469
  moments of inertia/u·Å² :        0.2299742E+03   0.6761505E+03   0.8620591E+03
rotational constants/cm⁻¹ :        0.7330227E-01   0.2493177E-01   0.1955508E-01

 * 14 selected distances

     #   Z          #   Z                                           value/Å
     1   6 C        2   8 O                                       1.4280029
     2   8 O        3   6 C                                       1.3764540
     3   6 C        5   6 C                                       1.4046380
     5   6 C        6   7 N                                       1.3317726
     7   7 N        8   6 C                                       1.2847554
     8   6 C        9   6 C                                       1.4865580 (max)
     5   6 C       10   8 O                                       1.3794956
     8   6 C       10   8 O                                       1.3642072
     1   6 C       11   1 H                                       1.0969940
     1   6 C       12   1 H                                       1.0970548
     1   6 C       13   1 H                                       1.0913999
     9   6 C       14   1 H                                       1.0911891
     9   6 C       15   1 H                                       1.0881818 (min)
     9   6 C       16   1 H                                       1.0906255

 * 4 distinct bonds (by element types)

   Z      Z             #   av. dist./Å        max./Å        min./Å
   1 H    6 C           6     1.0925742     1.0970548     1.0881818
   6 C    6 C           2     1.4455980     1.4865580     1.4046380
   6 C    7 N           2     1.3082640     1.3317726     1.2847554
   6 C    8 O           4     1.3870399     1.4280029     1.3642072


optimized geometry written to: xtbopt.xyz


           -------------------------------------------------
          | TOTAL ENERGY              -34.130480039293 Eh   |
          | GRADIENT NORM               0.000717312955 Eh/α |
          | HOMO-LUMO GAP               2.977419532147 eV   |
           -------------------------------------------------

------------------------------------------------------------------------
 * finished run on 2023/06/20 at 14:54:04.135     
------------------------------------------------------------------------
 total:
 * wall-time:     0 d,  0 h,  0 min,  1.438 sec
 *  cpu-time:     0 d,  0 h,  0 min,  0.978 sec
 * ratio c/w:     0.680 speedup
 SCF:
 * wall-time:     0 d,  0 h,  0 min,  0.062 sec
 *  cpu-time:     0 d,  0 h,  0 min,  0.036 sec
 * ratio c/w:     0.580 speedup
 ANC optimizer:
 * wall-time:     0 d,  0 h,  0 min,  1.309 sec
 *  cpu-time:     0 d,  0 h,  0 min,  0.927 sec
 * ratio c/w:     0.708 speedup

