      -----------------------------------------------------------      
     |                   =====================                   |     
     |                           x T B                           |     
     |                   =====================                   |     
     |                         S. Grimme                         |     
     |          Mulliken Center for Theoretical Chemistry        |     
     |                    University of Bonn                     |     
      -----------------------------------------------------------      

   * xtb version 6.5.1 (579679a) compiled by 'ehlert@majestix' on 2022-07-11

   xtb is free software: you can redistribute it and/or modify it under
   the terms of the GNU Lesser General Public License as published by
   the Free Software Foundation, either version 3 of the License, or
   (at your option) any later version.
   
   xtb is distributed in the hope that it will be useful,
   but WITHOUT ANY WARRANTY; without even the implied warranty of
   MERCHANTABILITY or FITNESS FOR A PARTICULAR PURPOSE.  See the
   GNU Lesser General Public License for more details.
   
   Cite this work as:
   * C. Bannwarth, E. Caldeweyher, S. Ehlert, A. Hansen, P. Pracht,
     J. Seibert, S. Spicher, S. Grimme, WIREs Comput. Mol. Sci., 2020, 11,
     e01493. DOI: 10.1002/wcms.1493
   
   for GFN2-xTB:
   * C. Bannwarth, S. Ehlert and S. Grimme., J. Chem. Theory Comput., 2019,
     15, 1652-1671. DOI: 10.1021/acs.jctc.8b01176
   for GFN1-xTB:
   * S. Grimme, C. Bannwarth, P. Shushkov, J. Chem. Theory Comput., 2017,
     13, 1989-2009. DOI: 10.1021/acs.jctc.7b00118
   for GFN0-xTB:
   * P. Pracht, E. Caldeweyher, S. Ehlert, S. Grimme, ChemRxiv, 2019, preprint.
     DOI: 10.26434/chemrxiv.8326202.v1
   for GFN-FF:
   * S. Spicher and S. Grimme, Angew. Chem. Int. Ed., 2020, 59, 15665-15673.
     DOI: 10.1002/anie.202004239
   
   for ALPB and GBSA implicit solvation:
   * S. Ehlert, M. Stahn, S. Spicher, S. Grimme, J. Chem. Theory Comput.,
     2021, 17, 4250-4261. DOI: 10.1021/acs.jctc.1c00471
   
   for DFT-D4:
   * E. Caldeweyher, C. Bannwarth and S. Grimme, J. Chem. Phys., 2017,
     147, 034112. DOI: 10.1063/1.4993215
   * E. Caldeweyher, S. Ehlert, A. Hansen, H. Neugebauer, S. Spicher,
     C. Bannwarth and S. Grimme, J. Chem. Phys., 2019, 150, 154122.
     DOI: 10.1063/1.5090222
   * E. Caldeweyher, J.-M. Mewes, S. Ehlert and S. Grimme, Phys. Chem. Chem. Phys.
     2020, 22, 8499-8512. DOI: 10.1039/D0CP00502A
   
   for sTDA-xTB:
   * S. Grimme and C. Bannwarth, J. Chem. Phys., 2016, 145, 054103.
     DOI: 10.1063/1.4959605
   
   in the mass-spec context:
   * V. Asgeirsson, C. Bauer and S. Grimme, Chem. Sci., 2017, 8, 4879.
     DOI: 10.1039/c7sc00601b
   * J. Koopman and S. Grimme, ACS Omega 2019, 4, 12, 15120-15133.
     DOI: 10.1021/acsomega.9b02011
   
   for metadynamics refer to:
   * S. Grimme, J. Chem. Theory Comput., 2019, 155, 2847-2862
     DOI: 10.1021/acs.jctc.9b00143
   
   for SPH calculations refer to:
   * S. Spicher and S. Grimme, J. Chem. Theory Comput., 2021, 17, 1701-1714
     DOI: 10.1021/acs.jctc.0c01306
   
   with help from (in alphabetical order)
   P. Atkinson, C. Bannwarth, F. Bohle, G. Brandenburg, E. Caldeweyher
   M. Checinski, S. Dohm, S. Ehlert, S. Ehrlich, I. Gerasimov, C. Hölzer
   A. Katbashev, J. Koopman, C. Lavigne, S. Lehtola, F. März, M. Müller,
   F. Musil, H. Neugebauer, J. Pisarek, C. Plett, P. Pracht, F. Pultar,
   J. Seibert, P. Shushkov, S. Spicher, M. Stahn, M. Steiner, T. Strunk,
   J. Stückrath, T. Rose, and J. Unsleber
   
 * started run on 2023/06/20 at 18:31:03.741     

           -------------------------------------------------
          |                Calculation Setup                |
           -------------------------------------------------

          program call               : /lustre/hpc/kemi/ree/PhD/git/ReactivityQM/dep/xtb-6.5.1/bin/xtb --gfn 1 /lustre/hpc/kemi/ree/PhD/git/ReactivityQM/calculations/R02deprot/reac01prodN19/conf18/R02deprot_reac01prodN19_conf18_gfn1.xyz --opt --vfukui --chrg 0 --uhf 0 --alpb DMSO
          hostname                   : node308
          coordinate file            : /lustre/hpc/kemi/ree/PhD/git/ReactivityQM/calculations/R02deprot/reac01prodN19/conf18/R02deprot_reac01prodN19_conf18_gfn1.xyz
          omp threads                :                     1

   ID    Z sym.   atoms
    1    6 C      1, 3, 5, 7-10, 12, 14, 17, 18, 21, 23, 24
    2    8 O      2, 4, 13, 19, 22, 25
    3    7 N      6, 11, 15, 16, 20
    4    1 H      26-42

           -------------------------------------------------
          |                 G F N 1 - x T B                 |
           -------------------------------------------------

        Reference                      10.1021/acs.jctc.7b00118
      * Hamiltonian:
        H0-scaling (s, p, d)           1.850000    2.250000    2.000000
        zeta-weighting                 0.000000
      * Dispersion:
        s8                             2.400000
        a1                             0.630000
        a2                             5.000000
        s9                             0.000000
      * Repulsion:
        kExp                           1.500000
        rExp                           1.000000
      * Coulomb:
        alpha                          2.000000
        third order                    atomic
        anisotropic                    false
      * Halogen bond correction:
        rad-scale                      1.300000
        damping                        0.440000

      * Solvation model:               ALPB
        Solvent                        DMSO
        Parameter file                 internal GFN1-xTB/ALPB
        Dielectric constant                4.6680E+01
        Reference state                gsolv [1 M gas/solution]
        Free energy shift                  7.6243E-03 Eh       4.7843E+00 kcal/mol
        Temperature                        2.9815E+02 K
        Density                            1.1000E+00 kg/L
        Solvent mass                       7.8130E+01 g/mol
        Interaction kernel             P16
        Born radius scaling (c1)           1.7672E+00
        Born radii integrator          GBOBC
        Born offset                        0.0000E+00 a0       0.0000E+00 AA
        H-bond correction              true
        Ion screening                  false
        Surface tension                    1.0000E-05 Eh       1.5569E+01 dyn/cm
        Grid points                               230 per atom

          ...................................................
          :                      SETUP                      :
          :.................................................:
          :  # basis functions                 134          :
          :  # atomic orbitals                 134          :
          :  # shells                           84          :
          :  # electrons                       134          :
          :  # halogen bonds                     0          :
          :  max. iterations                   250          :
          :  Hamiltonian                  GFN1-xTB          :
          :  restarted?                      false          :
          :  GBSA solvation                   true          :
          :  PC potential                    false          :
          :  electronic temp.          300.0000000     K    :
          :  accuracy                    1.0000000          :
          :  -> integral cutoff          0.2500000E+02      :
          :  -> integral neglect         0.1000000E-07      :
          :  -> SCF convergence          0.1000000E-05 Eh   :
          :  -> wf. convergence          0.2000000E-04 e    :
          :  Broyden damping             0.4000000          :
          ...................................................

 iter      E             dE          RMSdq      gap      omega  full diag
   1    -83.4944492 -0.834944E+02  0.842E+00    2.99       0.0  T
   2    -83.7382640 -0.243815E+00  0.504E+00    2.79       1.0  T
   3    -83.7267723  0.114917E-01  0.150E+00    2.80       1.0  T
   4    -83.7513723 -0.246001E-01  0.148E-01    2.78       1.0  T
   5    -83.7519855 -0.613209E-03  0.353E-02    2.81       1.0  T
   6    -83.7520142 -0.286128E-04  0.116E-02    2.81       1.3  T
   7    -83.7520169 -0.270680E-05  0.381E-03    2.81       4.1  T
   8    -83.7520172 -0.291256E-06  0.846E-04    2.81      18.2  T
   9    -83.7520172 -0.130547E-07  0.305E-04    2.81      50.6  T
  10    -83.7520172 -0.758831E-09  0.725E-05    2.81     212.7  T
  11    -83.7520172 -0.103014E-09  0.204E-05    2.81     756.4  T

   *** convergence criteria satisfied after 11 iterations ***

         #    Occupation            Energy/Eh            Energy/eV
      -------------------------------------------------------------
         1        2.0000           -0.8627021             -23.4753
       ...           ...                  ...                  ...
        61        2.0000           -0.4734855             -12.8842
        62        2.0000           -0.4575974             -12.4519
        63        2.0000           -0.4519409             -12.2979
        64        2.0000           -0.4442489             -12.0886
        65        2.0000           -0.4422348             -12.0338
        66        2.0000           -0.4402521             -11.9799
        67        2.0000           -0.4351074             -11.8399 (HOMO)
        68                         -0.3316711              -9.0252 (LUMO)
        69                         -0.3140780              -8.5465
        70                         -0.2893537              -7.8737
        71                         -0.2579911              -7.0203
        72                         -0.2468843              -6.7181
       ...                                ...                  ...
       134                          0.6930520              18.8589
      -------------------------------------------------------------
                  HL-Gap            0.1034363 Eh            2.8146 eV
             Fermi-level           -0.3833893 Eh          -10.4326 eV

 SCC (total)                   0 d,  0 h,  0 min,  0.160 sec
 SCC setup                      ...        0 min,  0.002 sec (  1.365%)
 Dispersion                     ...        0 min,  0.000 sec (  0.262%)
 classical contributions        ...        0 min,  0.000 sec (  0.083%)
 integral evaluation            ...        0 min,  0.034 sec ( 21.475%)
 iterations                     ...        0 min,  0.042 sec ( 25.992%)
 molecular gradient             ...        0 min,  0.080 sec ( 50.135%)
 printout                       ...        0 min,  0.001 sec (  0.651%)

         :::::::::::::::::::::::::::::::::::::::::::::::::::::
         ::                     SUMMARY                     ::
         :::::::::::::::::::::::::::::::::::::::::::::::::::::
         :: total energy             -82.992711617581 Eh    ::
         :: total w/o Gsasa/hb       -82.967894324227 Eh    ::
         :: gradient norm              0.125175065679 Eh/a0 ::
         :: HOMO-LUMO gap              2.814644132498 eV    ::
         ::.................................................::
         :: SCC energy               -83.752017174532 Eh    ::
         :: -> electrostatic           0.324394562626 Eh    ::
         :: -> Gsolv                  -0.051382884789 Eh    ::
         ::    -> Gelec               -0.026565591435 Eh    ::
         ::    -> Gsasa               -0.025628169044 Eh    ::
         ::    -> Ghb                 -0.006813403315 Eh    ::
         ::    -> Gshift               0.007624279005 Eh    ::
         :: repulsion energy           0.784074169783 Eh    ::
         :: dispersion energy         -0.024768612832 Eh    ::
         :: halogen bond corr.         0.000000000000 Eh    ::
         :: add. restraining           0.000000000000 Eh    ::
         :: total charge               0.000000000000 e     ::
         :::::::::::::::::::::::::::::::::::::::::::::::::::::

      ----------------------------------------------------------- 
     |                   =====================                   |
     |                        A N C O P T                        |
     |                   =====================                   |
     |               Approximate Normal Coordinate               |
     |                Rational Function Optimizer                |
      ----------------------------------------------------------- 

          ...................................................
          :                      SETUP                      :
          :.................................................:
          :   optimization level            normal          :
          :   max. optcycles                   200          :
          :   ANC micro-cycles                  20          :
          :   degrees of freedom               120          :
          :.................................................:
          :   RF solver                   davidson          :
          :   write xtbopt.log                true          :
          :   linear?                        false          :
          :   energy convergence         0.5000000E-05 Eh   :
          :   grad. convergence          0.1000000E-02 Eh/α :
          :   maximium RF displ.         1.0000000          :
          :   Hlow (freq-cutoff)         0.1000000E-01      :
          :   Hmax (freq-cutoff)         5.0000000          :
          :   S6 in model hess.         20.0000000          :
          ...................................................

generating ANC from model Hessian ...
Using Lindh-Hessian (1995)
 Shifting diagonal of input Hessian by   9.814508328351590E-003
 Lowest  eigenvalues of input Hessian
    0.000000    0.000000    0.000000    0.000000    0.000000    0.000000
    0.010000    0.010119    0.010652    0.010737    0.011271    0.012263
    0.012797    0.013235    0.013877    0.014690    0.015498    0.015939
 Highest eigenvalues
    2.001284    2.143940    2.203293    2.224496    2.323252    2.339986
 

........................................................................
.............................. CYCLE    1 ..............................
........................................................................
   1    -83.7520172 -0.837520E+02  0.633E-06    2.81       0.0  T
   2    -83.7520172 -0.369482E-12  0.329E-06    2.81    4688.0  T
   3    -83.7520172 -0.497380E-12  0.166E-06    2.81    9313.8  T
     SCC iter.                  ...        0 min,  0.012 sec
     gradient                   ...        0 min,  0.075 sec
 * total energy  :   -82.9927116 Eh     change       -0.9492851E-11 Eh
   gradient norm :     0.1251753 Eh/α   predicted     0.0000000E+00 (-100.00%)
   displ. norm   :     0.2877778 α      lambda       -0.1638724E-01
   maximum displ.:     0.1076457 α      in ANC's #22, #24, #37, ...

........................................................................
.............................. CYCLE    2 ..............................
........................................................................
   1    -83.7717069 -0.837717E+02  0.103E-01    2.93       0.0  T
   2    -83.7722611 -0.554113E-03  0.515E-02    2.93       1.0  T
   3    -83.7723432 -0.820903E-04  0.181E-02    2.94       1.0  T
   4    -83.7723431  0.152378E-07  0.727E-03    2.94       2.1  T
   5    -83.7723436 -0.498742E-06  0.127E-03    2.94      12.1  T
   6    -83.7723437 -0.411948E-07  0.455E-04    2.94      33.9  T
   7    -83.7723437 -0.304179E-08  0.129E-04    2.94     119.7  T
   8    -83.7723437 -0.209468E-09  0.192E-05    2.94     803.2  T
     SCC iter.                  ...        0 min,  0.030 sec
     gradient                   ...        0 min,  0.076 sec
 * total energy  :   -83.0048408 Eh     change       -0.1212922E-01 Eh
   gradient norm :     0.0635187 Eh/α   predicted    -0.8878346E-02 ( -26.80%)
   displ. norm   :     0.3193721 α      lambda       -0.8025815E-02
   maximum displ.:     0.1184068 α      in ANC's #7, #24, #37, ...

........................................................................
.............................. CYCLE    3 ..............................
........................................................................
   1    -83.7847477 -0.837847E+02  0.101E-01    3.00       0.0  T
   2    -83.7852467 -0.498987E-03  0.479E-02    2.96       1.0  T
   3    -83.7853208 -0.741777E-04  0.165E-02    2.97       1.0  T
   4    -83.7853209 -0.481725E-07  0.669E-03    2.97       2.3  T
   5    -83.7853213 -0.406527E-06  0.125E-03    2.97      12.3  T
   6    -83.7853213 -0.364397E-07  0.435E-04    2.97      35.5  T
   7    -83.7853213 -0.288006E-08  0.133E-04    2.97     115.6  T
   8    -83.7853213 -0.213177E-09  0.223E-05    2.97     692.7  T
     SCC iter.                  ...        0 min,  0.029 sec
     gradient                   ...        0 min,  0.077 sec
 * total energy  :   -83.0094029 Eh     change       -0.4562014E-02 Eh
   gradient norm :     0.0174847 Eh/α   predicted    -0.4422944E-02 (  -3.05%)
   displ. norm   :     0.1885355 α      lambda       -0.8777556E-03
   maximum displ.:     0.1204056 α      in ANC's #7, #2, #24, ...

........................................................................
.............................. CYCLE    4 ..............................
........................................................................
   1    -83.7856911 -0.837857E+02  0.164E-02    2.97       0.0  T
   2    -83.7856995 -0.839353E-05  0.770E-03    2.97       2.0  T
   3    -83.7857006 -0.107169E-05  0.366E-03    2.97       4.2  T
   4    -83.7857006 -0.136504E-07  0.908E-04    2.97      17.0  T
   5    -83.7857006 -0.723233E-08  0.172E-04    2.97      89.9  T
   6    -83.7857006 -0.581394E-09  0.554E-05    2.97     278.5  T
     SCC iter.                  ...        0 min,  0.022 sec
     gradient                   ...        0 min,  0.081 sec
 * total energy  :   -83.0100678 Eh     change       -0.6649747E-03 Eh
   gradient norm :     0.0102950 Eh/α   predicted    -0.4545733E-03 ( -31.64%)
   displ. norm   :     0.3016872 α      lambda       -0.7877253E-03
   maximum displ.:     0.2151497 α      in ANC's #7, #2, #8, ...

........................................................................
.............................. CYCLE    5 ..............................
........................................................................
   1    -83.7857186 -0.837857E+02  0.154E-02    2.97       0.0  T
   2    -83.7857257 -0.706793E-05  0.770E-03    2.97       2.0  T
   3    -83.7857264 -0.674575E-06  0.396E-03    2.97       3.9  T
   4    -83.7857264 -0.248347E-07  0.129E-03    2.97      11.9  T
   5    -83.7857264 -0.126659E-07  0.168E-04    2.97      91.6  T
   6    -83.7857264 -0.902034E-09  0.562E-05    2.97     274.3  T
     SCC iter.                  ...        0 min,  0.022 sec
     gradient                   ...        0 min,  0.081 sec
 * total energy  :   -83.0106064 Eh     change       -0.5386048E-03 Eh
   gradient norm :     0.0065663 Eh/α   predicted    -0.4297127E-03 ( -20.22%)
   displ. norm   :     0.2708714 α      lambda       -0.3775788E-03
   maximum displ.:     0.1933028 α      in ANC's #7, #2, #8, ...

........................................................................
.............................. CYCLE    6 ..............................
........................................................................
   1    -83.7860950 -0.837861E+02  0.810E-03    2.98       0.0  T
   2    -83.7860966 -0.155514E-05  0.354E-03    2.98       4.4  T
   3    -83.7860967 -0.873678E-07  0.197E-03    2.98       7.8  T
   4    -83.7860967 -0.802100E-08  0.608E-04    2.98      25.4  T
   5    -83.7860967 -0.368365E-08  0.880E-05    2.98     175.4  T
   6    -83.7860967 -0.213632E-09  0.258E-05    2.98     598.5  T
     SCC iter.                  ...        0 min,  0.022 sec
     gradient                   ...        0 min,  0.080 sec
 * total energy  :   -83.0109063 Eh     change       -0.2998931E-03 Eh
   gradient norm :     0.0080189 Eh/α   predicted    -0.2026427E-03 ( -32.43%)
   displ. norm   :     0.3124844 α      lambda       -0.3827844E-03
   maximum displ.:     0.2050935 α      in ANC's #7, #2, #8, ...

........................................................................
.............................. CYCLE    7 ..............................
........................................................................
   1    -83.7868003 -0.837868E+02  0.617E-03    2.98       0.0  T
   2    -83.7868012 -0.907496E-06  0.292E-03    2.98       5.3  T
   3    -83.7868012 -0.562950E-07  0.163E-03    2.98       9.5  T
   4    -83.7868012 -0.627881E-08  0.452E-04    2.98      34.1  T
   5    -83.7868012 -0.249788E-08  0.724E-05    2.98     213.1  T
   6    -83.7868012 -0.124189E-09  0.243E-05    2.98     635.2  T
     SCC iter.                  ...        0 min,  0.022 sec
     gradient                   ...        0 min,  0.076 sec
 * total energy  :   -83.0112188 Eh     change       -0.3125047E-03 Eh
   gradient norm :     0.0075254 Eh/α   predicted    -0.2100817E-03 ( -32.77%)
   displ. norm   :     0.4040988 α      lambda       -0.4066875E-03
   maximum displ.:     0.2496518 α      in ANC's #7, #2, #1, ...

........................................................................
.............................. CYCLE    8 ..............................
........................................................................
   1    -83.7871453 -0.837871E+02  0.588E-03    2.98       0.0  T
   2    -83.7871467 -0.137900E-05  0.337E-03    2.98       4.6  T
   3    -83.7871468 -0.129428E-06  0.173E-03    2.98       8.9  T
   4    -83.7871468 -0.288813E-08  0.600E-04    2.98      25.7  T
   5    -83.7871468 -0.274464E-08  0.819E-05    2.98     188.5  T
   6    -83.7871468 -0.154827E-09  0.321E-05    2.98     480.2  T
     SCC iter.                  ...        0 min,  0.022 sec
     gradient                   ...        0 min,  0.076 sec
 * total energy  :   -83.0115269 Eh     change       -0.3080267E-03 Eh
   gradient norm :     0.0059272 Eh/α   predicted    -0.2365520E-03 ( -23.20%)
   displ. norm   :     0.3636618 α      lambda       -0.2476566E-03
   maximum displ.:     0.2058930 α      in ANC's #7, #2, #1, ...

........................................................................
.............................. CYCLE    9 ..............................
........................................................................
   1    -83.7874790 -0.837875E+02  0.466E-03    2.98       0.0  T
   2    -83.7874800 -0.998797E-06  0.245E-03    2.98       6.3  T
   3    -83.7874801 -0.664899E-07  0.120E-03    2.98      12.9  T
   4    -83.7874801 -0.162075E-08  0.516E-04    2.98      29.9  T
   5    -83.7874801 -0.208955E-08  0.747E-05    2.98     206.6  T
   6    -83.7874801 -0.109694E-09  0.237E-05    2.98     651.6  T
     SCC iter.                  ...        0 min,  0.022 sec
     gradient                   ...        0 min,  0.076 sec
 * total energy  :   -83.0117027 Eh     change       -0.1758427E-03 Eh
   gradient norm :     0.0047335 Eh/α   predicted    -0.1402049E-03 ( -20.27%)
   displ. norm   :     0.2370076 α      lambda       -0.1300333E-03
   maximum displ.:     0.1469517 α      in ANC's #2, #7, #1, ...

........................................................................
.............................. CYCLE   10 ..............................
........................................................................
   1    -83.7887435 -0.837887E+02  0.453E-03    2.97       0.0  T
   2    -83.7887441 -0.577577E-06  0.210E-03    2.97       7.3  T
   3    -83.7887441 -0.372862E-07  0.114E-03    2.97      13.6  T
   4    -83.7887441 -0.292680E-08  0.338E-04    2.97      45.7  T
   5    -83.7887441 -0.711779E-09  0.499E-05    2.97     309.3  T
   6    -83.7887441 -0.437836E-10  0.133E-05    2.97    1160.9  T
     SCC iter.                  ...        0 min,  0.022 sec
     gradient                   ...        0 min,  0.076 sec
 * total energy  :   -83.0118040 Eh     change       -0.1012663E-03 Eh
   gradient norm :     0.0035419 Eh/α   predicted    -0.6867957E-04 ( -32.18%)
   displ. norm   :     0.2305047 α      lambda       -0.1269446E-03
   maximum displ.:     0.1495184 α      in ANC's #2, #1, #4, ...

........................................................................
.............................. CYCLE   11 ..............................
........................................................................
   1    -83.7897758 -0.837898E+02  0.512E-03    2.97       0.0  T
   2    -83.7897765 -0.746824E-06  0.248E-03    2.97       6.2  T
   3    -83.7897766 -0.680965E-07  0.132E-03    2.97      11.7  T
   4    -83.7897766 -0.313908E-08  0.352E-04    2.97      43.8  T
   5    -83.7897766 -0.845546E-09  0.526E-05    2.97     293.3  T
   6    -83.7897766 -0.576392E-10  0.177E-05    2.97     873.0  T
     SCC iter.                  ...        0 min,  0.022 sec
     gradient                   ...        0 min,  0.077 sec
 * total energy  :   -83.0119085 Eh     change       -0.1045443E-03 Eh
   gradient norm :     0.0031510 Eh/α   predicted    -0.6684829E-04 ( -36.06%)
   displ. norm   :     0.2907580 α      lambda       -0.1542275E-03
   maximum displ.:     0.1862211 α      in ANC's #2, #1, #4, ...

........................................................................
.............................. CYCLE   12 ..............................
........................................................................
   1    -83.7902081 -0.837902E+02  0.500E-03    2.97       0.0  T
   2    -83.7902091 -0.106291E-05  0.270E-03    2.97       5.7  T
   3    -83.7902092 -0.103633E-06  0.137E-03    2.97      11.3  T
   4    -83.7902092 -0.120821E-09  0.447E-04    2.97      34.5  T
   5    -83.7902092 -0.166733E-08  0.596E-05    2.97     259.1  T
   6    -83.7902092 -0.763549E-10  0.223E-05    2.97     691.0  T
     SCC iter.                  ...        0 min,  0.022 sec
     gradient                   ...        0 min,  0.077 sec
 * total energy  :   -83.0120380 Eh     change       -0.1295058E-03 Eh
   gradient norm :     0.0043014 Eh/α   predicted    -0.8363329E-04 ( -35.42%)
   displ. norm   :     0.3704642 α      lambda       -0.1814900E-03
   maximum displ.:     0.2322382 α      in ANC's #2, #1, #4, ...

........................................................................
.............................. CYCLE   13 ..............................
........................................................................
   1    -83.7897888 -0.837898E+02  0.413E-03    2.96       0.0  T
   2    -83.7897895 -0.652771E-06  0.254E-03    2.97       6.1  T
   3    -83.7897895 -0.742426E-07  0.135E-03    2.97      11.4  T
   4    -83.7897895 -0.133284E-08  0.337E-04    2.97      45.9  T
   5    -83.7897895 -0.102912E-08  0.643E-05    2.97     240.2  T
   6    -83.7897895 -0.915747E-10  0.236E-05    2.97     654.3  T
     SCC iter.                  ...        0 min,  0.022 sec
     gradient                   ...        0 min,  0.078 sec
 * total energy  :   -83.0121887 Eh     change       -0.1506653E-03 Eh
   gradient norm :     0.0053504 Eh/α   predicted    -0.1031997E-03 ( -31.50%)
   displ. norm   :     0.4147664 α      lambda       -0.1791740E-03
   maximum displ.:     0.2576492 α      in ANC's #2, #1, #4, ...

........................................................................
.............................. CYCLE   14 ..............................
........................................................................
   1    -83.7890607 -0.837891E+02  0.403E-03    2.97       0.0  T
   2    -83.7890611 -0.456850E-06  0.213E-03    2.97       7.3  T
   3    -83.7890611 -0.273346E-07  0.111E-03    2.97      14.0  T
   4    -83.7890611 -0.680799E-08  0.363E-04    2.97      42.5  T
   5    -83.7890611 -0.177842E-08  0.642E-05    2.97     240.4  T
   6    -83.7890611 -0.562608E-10  0.209E-05    2.97     739.7  T
     SCC iter.                  ...        0 min,  0.022 sec
     gradient                   ...        0 min,  0.082 sec
 * total energy  :   -83.0123307 Eh     change       -0.1419732E-03 Eh
   gradient norm :     0.0052557 Eh/α   predicted    -0.1049994E-03 ( -26.04%)
   displ. norm   :     0.3850505 α      lambda       -0.1424757E-03
   maximum displ.:     0.2403864 α      in ANC's #2, #1, #4, ...

........................................................................
.............................. CYCLE   15 ..............................
........................................................................
   1    -83.7888006 -0.837888E+02  0.472E-03    2.97       0.0  T
   2    -83.7888011 -0.514913E-06  0.185E-03    2.97       8.3  T
   3    -83.7888011 -0.376795E-07  0.101E-03    2.97      15.2  T
   4    -83.7888011 -0.432541E-08  0.323E-04    2.97      47.7  T
   5    -83.7888011 -0.885095E-09  0.618E-05    2.97     249.7  T
   6    -83.7888011 -0.526938E-10  0.211E-05    2.97     731.6  T
     SCC iter.                  ...        0 min,  0.022 sec
     gradient                   ...        0 min,  0.082 sec
 * total energy  :   -83.0124389 Eh     change       -0.1082569E-03 Eh
   gradient norm :     0.0039583 Eh/α   predicted    -0.8180693E-04 ( -24.43%)
   displ. norm   :     0.3224650 α      lambda       -0.1013636E-03
   maximum displ.:     0.2025875 α      in ANC's #2, #1, #4, ...

........................................................................
.............................. CYCLE   16 ..............................
........................................................................
   1    -83.7890092 -0.837890E+02  0.518E-03    2.97       0.0  T
   2    -83.7890100 -0.764395E-06  0.213E-03    2.97       7.3  T
   3    -83.7890100 -0.801004E-07  0.102E-03    2.97      15.1  T
   4    -83.7890101 -0.318121E-08  0.331E-04    2.97      46.7  T
   5    -83.7890101 -0.690889E-09  0.673E-05    2.97     229.2  T
   6    -83.7890101 -0.596145E-10  0.207E-05    2.97     744.1  T
     SCC iter.                  ...        0 min,  0.021 sec
     gradient                   ...        0 min,  0.082 sec
 * total energy  :   -83.0125162 Eh     change       -0.7731925E-04 Eh
   gradient norm :     0.0025483 Eh/α   predicted    -0.5595349E-04 ( -27.63%)
   displ. norm   :     0.2783998 α      lambda       -0.7563985E-04
   maximum displ.:     0.1708418 α      in ANC's #2, #1, #4, ...

........................................................................
.............................. CYCLE   17 ..............................
........................................................................
   1    -83.7895734 -0.837896E+02  0.440E-03    2.98       0.0  T
   2    -83.7895740 -0.649883E-06  0.196E-03    2.98       7.9  T
   3    -83.7895741 -0.681986E-07  0.931E-04    2.98      16.6  T
   4    -83.7895741 -0.198962E-08  0.296E-04    2.98      52.1  T
   5    -83.7895741 -0.581537E-09  0.634E-05    2.98     243.2  T
   6    -83.7895741 -0.521396E-10  0.188E-05    2.98     822.0  T
     SCC iter.                  ...        0 min,  0.022 sec
     gradient                   ...        0 min,  0.082 sec
 * total energy  :   -83.0125733 Eh     change       -0.5702674E-04 Eh
   gradient norm :     0.0026445 Eh/α   predicted    -0.4075501E-04 ( -28.53%)
   displ. norm   :     0.2398629 α      lambda       -0.5606883E-04
   maximum displ.:     0.1444496 α      in ANC's #1, #2, #4, ...

........................................................................
.............................. CYCLE   18 ..............................
........................................................................
   1    -83.7898545 -0.837899E+02  0.283E-03    2.98       0.0  T
   2    -83.7898547 -0.207691E-06  0.135E-03    2.97      11.4  T
   3    -83.7898548 -0.235945E-07  0.698E-04    2.97      22.1  T
   4    -83.7898548 -0.149771E-08  0.183E-04    2.97      84.4  T
   5    -83.7898548 -0.205290E-09  0.445E-05    2.97     346.7  T
     SCC iter.                  ...        0 min,  0.018 sec
     gradient                   ...        0 min,  0.086 sec
 * total energy  :   -83.0126168 Eh     change       -0.4350270E-04 Eh
   gradient norm :     0.0031904 Eh/α   predicted    -0.2964857E-04 ( -31.85%)
   displ. norm   :     0.2171989 α      lambda       -0.5433954E-04
   maximum displ.:     0.1391342 α      in ANC's #1, #2, #4, ...

........................................................................
.............................. CYCLE   19 ..............................
........................................................................
   1    -83.7907627 -0.837908E+02  0.288E-03    2.97       0.0  T
   2    -83.7907628 -0.128429E-06  0.132E-03    2.97      11.7  T
   3    -83.7907628 -0.412875E-08  0.632E-04    2.97      24.4  T
   4    -83.7907628 -0.135294E-08  0.171E-04    2.97      90.4  T
   5    -83.7907628 -0.328257E-09  0.349E-05    2.97     442.4  T
     SCC iter.                  ...        0 min,  0.019 sec
     gradient                   ...        0 min,  0.077 sec
 * total energy  :   -83.0126564 Eh     change       -0.3961953E-04 Eh
   gradient norm :     0.0029254 Eh/α   predicted    -0.2845337E-04 ( -28.18%)
   displ. norm   :     0.2768313 α      lambda       -0.5753859E-04
   maximum displ.:     0.1704264 α      in ANC's #1, #2, #4, ...

........................................................................
.............................. CYCLE   20 ..............................
........................................................................
   1    -83.7893376 -0.837893E+02  0.528E-03    2.97       0.0  T
   2    -83.7893379 -0.288545E-06  0.259E-03    2.97       6.0  T
   3    -83.7893379 -0.688053E-08  0.107E-03    2.97      14.4  T
   4    -83.7893379 -0.525046E-08  0.270E-04    2.97      57.2  T
   5    -83.7893379 -0.695053E-09  0.571E-05    2.97     270.4  T
   6    -83.7893379 -0.326281E-10  0.124E-05    2.97    1240.6  T
     SCC iter.                  ...        0 min,  0.022 sec
     gradient                   ...        0 min,  0.077 sec
 * total energy  :   -83.0126823 Eh     change       -0.2588518E-04 Eh
   gradient norm :     0.0039399 Eh/α   predicted    -0.3097464E-04 (  19.66%)
   displ. norm   :     0.1013228 α      lambda       -0.4522305E-04
   maximum displ.:     0.0752903 α      in ANC's #1, #11, #3, ...
 * RMSD in coord.:     0.7187421 α      energy gain  -0.1997065E-01 Eh

generating ANC from model Hessian ...
Using Lindh-Hessian (1995)
 Shifting diagonal of input Hessian by   9.811412092012601E-003
 Lowest  eigenvalues of input Hessian
    0.000000    0.000000    0.000000    0.000000    0.000000    0.000000
    0.010000    0.010183    0.010657    0.010707    0.011324    0.012396
    0.012688    0.013290    0.013645    0.014393    0.015265    0.016157
 Highest eigenvalues
    2.032395    2.183228    2.209333    2.262025    2.402574    2.409450
 

........................................................................
.............................. CYCLE   21 ..............................
........................................................................
   1    -83.7903362 -0.837903E+02  0.401E-03    2.97       0.0  T
   2    -83.7903365 -0.212664E-06  0.199E-03    2.97       7.7  T
   3    -83.7903365 -0.145178E-07  0.101E-03    2.97      15.2  T
   4    -83.7903365 -0.369631E-08  0.206E-04    2.97      75.0  T
   5    -83.7903365 -0.406359E-09  0.436E-05    2.97     353.7  T
   6    -83.7903365 -0.117950E-10  0.898E-06    2.97    1718.7  T
     SCC iter.                  ...        0 min,  0.022 sec
     gradient                   ...        0 min,  0.077 sec
 * total energy  :   -83.0127109 Eh     change       -0.2862337E-04 Eh
   gradient norm :     0.0018626 Eh/α   predicted     0.0000000E+00 (-100.00%)
   displ. norm   :     0.0452981 α      lambda       -0.1360758E-04
   maximum displ.:     0.0247425 α      in ANC's #1, #13, #8, ...

........................................................................
.............................. CYCLE   22 ..............................
........................................................................
   1    -83.7903163 -0.837903E+02  0.166E-03    2.97       0.0  T
   2    -83.7903163 -0.451925E-07  0.708E-04    2.97      21.8  T
   3    -83.7903163 -0.179597E-08  0.352E-04    2.97      43.8  T
   4    -83.7903163 -0.550244E-09  0.119E-04    2.97     130.1  T
   5    -83.7903163 -0.173102E-09  0.155E-05    2.97     993.6  T
     SCC iter.                  ...        0 min,  0.019 sec
     gradient                   ...        0 min,  0.077 sec
 * total energy  :   -83.0127319 Eh     change       -0.2097603E-04 Eh
   gradient norm :     0.0009143 Eh/α   predicted    -0.8181064E-05 ( -61.00%)
   displ. norm   :     0.1677201 α      lambda       -0.4367415E-04
   maximum displ.:     0.0901632 α      in ANC's #1, #13, #8, ...

........................................................................
.............................. CYCLE   23 ..............................
........................................................................
   1    -83.7901077 -0.837901E+02  0.385E-03    2.98       0.0  T
   2    -83.7901081 -0.341020E-06  0.157E-03    2.98       9.8  T
   3    -83.7901081 -0.206185E-07  0.768E-04    2.98      20.1  T
   4    -83.7901081 -0.235102E-08  0.302E-04    2.98      51.1  T
   5    -83.7901081 -0.850932E-09  0.395E-05    2.98     390.5  T
   6    -83.7901081 -0.377582E-10  0.137E-05    2.98    1123.3  T
     SCC iter.                  ...        0 min,  0.023 sec
     gradient                   ...        0 min,  0.077 sec
 * total energy  :   -83.0127759 Eh     change       -0.4400393E-04 Eh
   gradient norm :     0.0017596 Eh/α   predicted    -0.2211565E-04 ( -49.74%)
   displ. norm   :     0.1369547 α      lambda       -0.2089107E-04
   maximum displ.:     0.0807047 α      in ANC's #1, #13, #6, ...

........................................................................
.............................. CYCLE   24 ..............................
........................................................................
   1    -83.7900917 -0.837901E+02  0.132E-03    2.98       0.0  T
   2    -83.7900917 -0.425682E-07  0.586E-04    2.98      26.3  T
   3    -83.7900917 -0.376551E-08  0.288E-04    2.98      53.6  T
   4    -83.7900917 -0.327873E-09  0.939E-05    2.98     164.3  T
   5    -83.7900917 -0.709974E-10  0.202E-05    2.98     762.8  T
     SCC iter.                  ...        0 min,  0.019 sec
     gradient                   ...        0 min,  0.077 sec
 * total energy  :   -83.0128008 Eh     change       -0.2496824E-04 Eh
   gradient norm :     0.0022478 Eh/α   predicted    -0.1053305E-04 ( -57.81%)
   displ. norm   :     0.1290754 α      lambda       -0.3012933E-04
   maximum displ.:     0.0773575 α      in ANC's #1, #13, #4, ...

........................................................................
.............................. CYCLE   25 ..............................
........................................................................
   1    -83.7901456 -0.837901E+02  0.890E-04    2.98       0.0  T
   2    -83.7901456 -0.107355E-07  0.449E-04    2.98      34.3  T
   3    -83.7901456 -0.108868E-08  0.223E-04    2.98      69.1  T
   4    -83.7901456 -0.372154E-09  0.517E-05    2.98     298.7  T
   5    -83.7901456 -0.307381E-10  0.159E-05    2.98     972.0  T
     SCC iter.                  ...        0 min,  0.019 sec
     gradient                   ...        0 min,  0.077 sec
 * total energy  :   -83.0128270 Eh     change       -0.2614353E-04 Eh
   gradient norm :     0.0020231 Eh/α   predicted    -0.1531981E-04 ( -41.40%)
   displ. norm   :     0.2247540 α      lambda       -0.5178631E-04
   maximum displ.:     0.1366711 α      in ANC's #1, #13, #4, ...

........................................................................
.............................. CYCLE   26 ..............................
........................................................................
   1    -83.7899273 -0.837899E+02  0.235E-03    2.98       0.0  T
   2    -83.7899273 -0.846684E-07  0.109E-03    2.98      14.2  T
   3    -83.7899274 -0.813439E-08  0.561E-04    2.98      27.5  T
   4    -83.7899274 -0.216170E-08  0.139E-04    2.98     111.4  T
   5    -83.7899274 -0.265089E-09  0.382E-05    2.98     403.8  T
     SCC iter.                  ...        0 min,  0.019 sec
     gradient                   ...        0 min,  0.077 sec
 * total energy  :   -83.0128667 Eh     change       -0.3968134E-04 Eh
   gradient norm :     0.0021757 Eh/α   predicted    -0.2721636E-04 ( -31.41%)
   displ. norm   :     0.1988368 α      lambda       -0.4309389E-04
   maximum displ.:     0.1271197 α      in ANC's #1, #4, #13, ...

........................................................................
.............................. CYCLE   27 ..............................
........................................................................
   1    -83.7899583 -0.837900E+02  0.224E-03    2.97       0.0  T
   2    -83.7899584 -0.125107E-06  0.960E-04    2.97      16.1  T
   3    -83.7899584 -0.137638E-07  0.475E-04    2.97      32.5  T
   4    -83.7899584 -0.136060E-08  0.157E-04    2.97      98.1  T
   5    -83.7899584 -0.246260E-09  0.354E-05    2.97     436.0  T
     SCC iter.                  ...        0 min,  0.019 sec
     gradient                   ...        0 min,  0.077 sec
 * total energy  :   -83.0128985 Eh     change       -0.3181032E-04 Eh
   gradient norm :     0.0026486 Eh/α   predicted    -0.2239974E-04 ( -29.58%)
   displ. norm   :     0.1440039 α      lambda       -0.4088071E-04
   maximum displ.:     0.0980777 α      in ANC's #1, #4, #2, ...

........................................................................
.............................. CYCLE   28 ..............................
........................................................................
   1    -83.7907526 -0.837908E+02  0.268E-03    2.97       0.0  T
   2    -83.7907527 -0.121574E-06  0.133E-03    2.97      11.6  T
   3    -83.7907527 -0.114268E-07  0.684E-04    2.97      22.5  T
   4    -83.7907527 -0.322521E-08  0.164E-04    2.97      93.8  T
   5    -83.7907527 -0.286235E-09  0.350E-05    2.97     440.7  T
     SCC iter.                  ...        0 min,  0.019 sec
     gradient                   ...        0 min,  0.077 sec
 * total energy  :   -83.0129286 Eh     change       -0.3009938E-04 Eh
   gradient norm :     0.0022929 Eh/α   predicted    -0.2086493E-04 ( -30.68%)
   displ. norm   :     0.1991628 α      lambda       -0.3545461E-04
   maximum displ.:     0.1344212 α      in ANC's #1, #4, #2, ...

........................................................................
.............................. CYCLE   29 ..............................
........................................................................
   1    -83.7902514 -0.837903E+02  0.179E-03    2.97       0.0  T
   2    -83.7902515 -0.745121E-07  0.791E-04    2.97      19.5  T
   3    -83.7902515 -0.880546E-08  0.417E-04    2.97      37.0  T
   4    -83.7902515 -0.742887E-09  0.899E-05    2.97     171.7  T
   5    -83.7902515 -0.800071E-10  0.260E-05    2.97     592.6  T
     SCC iter.                  ...        0 min,  0.019 sec
     gradient                   ...        0 min,  0.076 sec
 * total energy  :   -83.0129551 Eh     change       -0.2656025E-04 Eh
   gradient norm :     0.0026666 Eh/α   predicted    -0.1844799E-04 ( -30.54%)
   displ. norm   :     0.1440726 α      lambda       -0.3134685E-04
   maximum displ.:     0.1034345 α      in ANC's #1, #8, #7, ...

........................................................................
.............................. CYCLE   30 ..............................
........................................................................
   1    -83.7906133 -0.837906E+02  0.193E-03    2.97       0.0  T
   2    -83.7906134 -0.355073E-07  0.999E-04    2.97      15.4  T
   3    -83.7906134 -0.261946E-08  0.488E-04    2.97      31.6  T
   4    -83.7906134 -0.157000E-08  0.902E-05    2.97     171.1  T
   5    -83.7906134 -0.875389E-10  0.236E-05    2.97     653.8  T
     SCC iter.                  ...        0 min,  0.019 sec
     gradient                   ...        0 min,  0.058 sec
 * total energy  :   -83.0129773 Eh     change       -0.2217014E-04 Eh
   gradient norm :     0.0017930 Eh/α   predicted    -0.1599943E-04 ( -27.83%)
   displ. norm   :     0.2043859 α      lambda       -0.1791629E-04
   maximum displ.:     0.1500241 α      in ANC's #1, #7, #13, ...

........................................................................
.............................. CYCLE   31 ..............................
........................................................................
   1    -83.7898992 -0.837899E+02  0.269E-03    2.98       0.0  T
   2    -83.7898994 -0.152539E-06  0.129E-03    2.98      11.9  T
   3    -83.7898994 -0.192098E-07  0.690E-04    2.98      22.4  T
   4    -83.7898994 -0.251606E-08  0.169E-04    2.98      91.2  T
   5    -83.7898994 -0.405095E-09  0.327E-05    2.98     472.0  T
     SCC iter.                  ...        0 min,  0.019 sec
     gradient                   ...        0 min,  0.082 sec
 * total energy  :   -83.0129931 Eh     change       -0.1582992E-04 Eh
   gradient norm :     0.0016089 Eh/α   predicted    -0.9125182E-05 ( -42.35%)
   displ. norm   :     0.0649301 α      lambda       -0.1203847E-04
   maximum displ.:     0.0521911 α      in ANC's #1, #17, #7, ...

........................................................................
.............................. CYCLE   32 ..............................
........................................................................
   1    -83.7908994 -0.837909E+02  0.322E-03    2.98       0.0  T
   2    -83.7908996 -0.197129E-06  0.145E-03    2.98      10.6  T
   3    -83.7908996 -0.270645E-07  0.794E-04    2.98      19.4  T
   4    -83.7908996 -0.303780E-08  0.145E-04    2.98     106.3  T
   5    -83.7908996 -0.285453E-09  0.473E-05    2.98     326.0  T
     SCC iter.                  ...        0 min,  0.020 sec
     gradient                   ...        0 min,  0.095 sec
 * total energy  :   -83.0130027 Eh     change       -0.9571562E-05 Eh
   gradient norm :     0.0014902 Eh/α   predicted    -0.6030779E-05 ( -36.99%)
   displ. norm   :     0.0761439 α      lambda       -0.9033194E-05
   maximum displ.:     0.0576549 α      in ANC's #1, #13, #9, ...

........................................................................
.............................. CYCLE   33 ..............................
........................................................................
   1    -83.7907865 -0.837908E+02  0.136E-03    2.98       0.0  T
   2    -83.7907865 -0.465405E-07  0.588E-04    2.98      26.2  T
   3    -83.7907866 -0.688010E-08  0.321E-04    2.98      48.1  T
   4    -83.7907866 -0.313975E-09  0.567E-05    2.98     272.3  T
   5    -83.7907866 -0.712106E-10  0.195E-05    2.98     793.0  T
     SCC iter.                  ...        0 min,  0.019 sec
     gradient                   ...        0 min,  0.080 sec
 * total energy  :   -83.0130139 Eh     change       -0.1122209E-04 Eh
   gradient norm :     0.0012510 Eh/α   predicted    -0.4531602E-05 ( -59.62%)
   displ. norm   :     0.1087521 α      lambda       -0.1155870E-04
   maximum displ.:     0.0811785 α      in ANC's #1, #9, #13, ...

........................................................................
.............................. CYCLE   34 ..............................
........................................................................
   1    -83.7905909 -0.837906E+02  0.119E-03    2.98       0.0  T
   2    -83.7905910 -0.387834E-07  0.594E-04    2.98      26.0  T
   3    -83.7905910 -0.389342E-08  0.314E-04    2.98      49.1  T
   4    -83.7905910 -0.273076E-09  0.640E-05    2.98     241.0  T
   5    -83.7905910 -0.309086E-10  0.193E-05    2.98     799.3  T
     SCC iter.                  ...        0 min,  0.020 sec
     gradient                   ...        0 min,  0.083 sec
 * total energy  :   -83.0130271 Eh     change       -0.1321680E-04 Eh
   gradient norm :     0.0010376 Eh/α   predicted    -0.5810995E-05 ( -56.03%)
   displ. norm   :     0.1082860 α      lambda       -0.8322639E-05
   maximum displ.:     0.0838250 α      in ANC's #1, #9, #5, ...

........................................................................
.............................. CYCLE   35 ..............................
........................................................................
   1    -83.7905450 -0.837905E+02  0.103E-03    2.98       0.0  T
   2    -83.7905450 -0.512195E-07  0.455E-04    2.98      33.9  T
   3    -83.7905450 -0.493830E-08  0.204E-04    2.98      75.8  T
   4    -83.7905450 -0.943885E-10  0.840E-05    2.98     183.7  T
   5    -83.7905450 -0.611635E-10  0.188E-05    2.98     818.7  T
     SCC iter.                  ...        0 min,  0.020 sec
     gradient                   ...        0 min,  0.083 sec
 * total energy  :   -83.0130370 Eh     change       -0.9853473E-05 Eh
   gradient norm :     0.0010579 Eh/α   predicted    -0.4185433E-05 ( -57.52%)
   displ. norm   :     0.0998971 α      lambda       -0.7433343E-05
   maximum displ.:     0.0786398 α      in ANC's #1, #9, #4, ...

........................................................................
.............................. CYCLE   36 ..............................
........................................................................
   1    -83.7905553 -0.837906E+02  0.103E-03    2.97       0.0  T
   2    -83.7905553 -0.385387E-07  0.455E-04    2.97      33.9  T
   3    -83.7905553 -0.571502E-08  0.218E-04    2.97      70.9  T
   4    -83.7905553 -0.660378E-10  0.558E-05    2.97     276.4  T
   5    -83.7905553 -0.622720E-10  0.159E-05    2.97     972.1  T
     SCC iter.                  ...        0 min,  0.020 sec
     gradient                   ...        0 min,  0.081 sec
 * total energy  :   -83.0130461 Eh     change       -0.9088014E-05 Eh
   gradient norm :     0.0008612 Eh/α   predicted    -0.3734875E-05 ( -58.90%)
   displ. norm   :     0.1155321 α      lambda       -0.8532323E-05
   maximum displ.:     0.0912259 α      in ANC's #1, #9, #4, ...

........................................................................
.............................. CYCLE   37 ..............................
........................................................................
   1    -83.7905935 -0.837906E+02  0.117E-03    2.98       0.0  T
   2    -83.7905935 -0.507715E-07  0.478E-04    2.98      32.3  T
   3    -83.7905935 -0.869731E-08  0.216E-04    2.97      71.5  T
   4    -83.7905935 -0.208885E-09  0.561E-05    2.97     274.9  T
   5    -83.7905935 -0.295302E-10  0.190E-05    2.97     814.2  T
     SCC iter.                  ...        0 min,  0.019 sec
     gradient                   ...        0 min,  0.081 sec
 * total energy  :   -83.0130558 Eh     change       -0.9749687E-05 Eh
   gradient norm :     0.0008108 Eh/α   predicted    -0.4293810E-05 ( -55.96%)
   displ. norm   :     0.0975171 α      lambda       -0.6072674E-05
   maximum displ.:     0.0776857 α      in ANC's #1, #3, #4, ...

........................................................................
.............................. CYCLE   38 ..............................
........................................................................
   1    -83.7905437 -0.837905E+02  0.731E-04    2.98       0.0  T
   2    -83.7905437 -0.192141E-07  0.317E-04    2.98      48.6  T
   3    -83.7905437 -0.136922E-08  0.171E-04    2.98      90.2  T
   4    -83.7905437 -0.758291E-10  0.524E-05    2.98     294.2  T
     SCC iter.                  ...        0 min,  0.015 sec
     gradient                   ...        0 min,  0.081 sec
 * total energy  :   -83.0130633 Eh     change       -0.7470612E-05 Eh
   gradient norm :     0.0006976 Eh/α   predicted    -0.3052308E-05 ( -59.14%)
   displ. norm   :     0.0904063 α      lambda       -0.5450540E-05
   maximum displ.:     0.0718346 α      in ANC's #1, #3, #4, ...

........................................................................
.............................. CYCLE   39 ..............................
........................................................................
   1    -83.7906203 -0.837906E+02  0.739E-04    2.98       0.0  T
   2    -83.7906204 -0.240768E-07  0.297E-04    2.98      52.0  T
   3    -83.7906204 -0.180214E-08  0.145E-04    2.98     106.6  T
   4    -83.7906204 -0.491553E-10  0.591E-05    2.98     261.0  T
     SCC iter.                  ...        0 min,  0.015 sec
     gradient                   ...        0 min,  0.081 sec
 * total energy  :   -83.0130704 Eh     change       -0.7110834E-05 Eh
   gradient norm :     0.0006787 Eh/α   predicted    -0.2737390E-05 ( -61.50%)
   displ. norm   :     0.1011321 α      lambda       -0.6208182E-05
   maximum displ.:     0.0778953 α      in ANC's #1, #3, #10, ...

........................................................................
.............................. CYCLE   40 ..............................
........................................................................
   1    -83.7905969 -0.837906E+02  0.840E-04    2.98       0.0  T
   2    -83.7905969 -0.223321E-07  0.409E-04    2.98      37.7  T
   3    -83.7905969 -0.309339E-08  0.215E-04    2.98      71.7  T
   4    -83.7905969 -0.611777E-10  0.484E-05    2.98     318.8  T
   5    -83.7905969 -0.478337E-10  0.123E-05    2.98    1257.7  T
     SCC iter.                  ...        0 min,  0.019 sec
     gradient                   ...        0 min,  0.081 sec
 * total energy  :   -83.0130784 Eh     change       -0.7976889E-05 Eh
   gradient norm :     0.0006342 Eh/α   predicted    -0.3121138E-05 ( -60.87%)
   displ. norm   :     0.1043599 α      lambda       -0.5977264E-05
   maximum displ.:     0.0790835 α      in ANC's #1, #3, #4, ...

........................................................................
.............................. CYCLE   41 ..............................
........................................................................
   1    -83.7906926 -0.837907E+02  0.762E-04    2.98       0.0  T
   2    -83.7906926 -0.172612E-07  0.320E-04    2.98      48.2  T
   3    -83.7906926 -0.281440E-08  0.165E-04    2.98      93.4  T
   4    -83.7906926 -0.145334E-09  0.434E-05    2.98     355.2  T
     SCC iter.                  ...        0 min,  0.015 sec
     gradient                   ...        0 min,  0.081 sec
 * total energy  :   -83.0130858 Eh     change       -0.7449827E-05 Eh
   gradient norm :     0.0005793 Eh/α   predicted    -0.3006890E-05 ( -59.64%)
   displ. norm   :     0.0917366 α      lambda       -0.4458117E-05
   maximum displ.:     0.0693969 α      in ANC's #1, #3, #4, ...

........................................................................
.............................. CYCLE   42 ..............................
........................................................................
   1    -83.7906751 -0.837907E+02  0.666E-04    2.98       0.0  T
   2    -83.7906751 -0.121393E-07  0.275E-04    2.98      56.2  T
   3    -83.7906751 -0.172361E-08  0.135E-04    2.98     114.2  T
   4    -83.7906751 -0.538591E-10  0.342E-05    2.98     451.2  T
     SCC iter.                  ...        0 min,  0.015 sec
     gradient                   ...        0 min,  0.081 sec
 * total energy  :   -83.0130914 Eh     change       -0.5536683E-05 Eh
   gradient norm :     0.0004123 Eh/α   predicted    -0.2239427E-05 ( -59.55%)
   displ. norm   :     0.0680887 α      lambda       -0.2857049E-05
   maximum displ.:     0.0521994 α      in ANC's #1, #3, #4, ...
 * RMSD in coord.:     0.3649635 α      energy gain  -0.4091129E-03 Eh

generating ANC from model Hessian ...
Using Lindh-Hessian (1995)
 Shifting diagonal of input Hessian by   9.808634223136410E-003
 Lowest  eigenvalues of input Hessian
    0.000000    0.000000    0.000000    0.000000    0.000000    0.000000
    0.010000    0.010177    0.010633    0.010703    0.011333    0.012419
    0.012622    0.013268    0.013582    0.014398    0.015270    0.016163
 Highest eigenvalues
    2.032127    2.184037    2.208409    2.262415    2.401545    2.408989
 

........................................................................
.............................. CYCLE   43 ..............................
........................................................................
   1    -83.7906976 -0.837907E+02  0.373E-04    2.98       0.0  T
   2    -83.7906976 -0.457615E-08  0.154E-04    2.98     100.4  T
   3    -83.7906976 -0.174396E-09  0.791E-05    2.98     195.0  T
     SCC iter.                  ...        0 min,  0.012 sec
     gradient                   ...        0 min,  0.081 sec
 * total energy  :   -83.0130950 Eh     change       -0.3604428E-05 Eh
   gradient norm :     0.0003169 Eh/α   predicted     0.0000000E+00 (-100.00%)
   displ. norm   :     0.0131492 α      lambda       -0.9977980E-06
   maximum displ.:     0.0103788 α      in ANC's #1, #6, #10, ...

   *** GEOMETRY OPTIMIZATION CONVERGED AFTER 43 ITERATIONS ***

------------------------------------------------------------------------
 total energy gain   :        -0.0203834 Eh      -12.7908 kcal/mol
 total RMSD          :         0.8651084 a0        0.4578 Å
 total power (kW/mol):        -1.2445702 (step)   -8.9608 (real)
------------------------------------------------------------------------

 ANCopt (total)                0 d,  0 h,  0 min,  5.972 sec
 optimizer setup                ...        0 min,  0.001 sec (  0.015%)
 model hessian                  ...        0 min,  0.063 sec (  1.050%)
 ANC generation                 ...        0 min,  0.007 sec (  0.124%)
 coordinate transformation      ...        0 min,  0.002 sec (  0.026%)
 single point calculation       ...        0 min,  5.875 sec ( 98.367%)
 optimization log               ...        0 min,  0.013 sec (  0.216%)
 hessian update                 ...        0 min,  0.001 sec (  0.023%)
 rational function              ...        0 min,  0.006 sec (  0.103%)

================
 final structure:
================
42
 xtb: 6.5.1 (579679a)
C           -3.26002768247741        3.87293107475022       -1.35249911774044
O           -3.13757147607086        2.47459868071472       -1.07566807299723
C           -1.95437596038463        2.05849325741684       -0.63399588886620
O           -1.00996194658608        2.79597836163558       -0.46958729656770
C           -1.90325072920612        0.58911730272635       -0.35612344594706
N           -0.69874173198389        0.14906557235681        0.06784788193629
C           -0.53924963730382       -1.11983886757117        0.35631787679490
C            0.79878827132592       -1.59804747401312        0.88006595904353
C            0.63376841547039       -1.93930163380809        2.36965576062024
C            1.26073077130809       -2.82595108726538        0.08462763404117
N            1.75133036216932       -0.50472383321971        0.71384192193980
C            3.03865088022060       -0.57283268169879        1.08561580143247
O            3.57214472846671       -1.52828583530820        1.63121949177995
C            3.80119464114972        0.66155756185388        0.75639174399138
N            5.04677524382024        0.91227010716497        1.01704716414518
N            5.31485610741969        2.14847091597849        0.50714165268775
C            4.21654842511798        2.57449346040516       -0.03455435827773
C            3.99177533659293        3.86103167151131       -0.72910790190705
O            3.21996172780034        1.68277892542788        0.08982487556616
N           -1.50261080041350       -2.05382665421217        0.26061033775742
C           -2.68418860354378       -1.65746583284941       -0.15596198954444
O           -3.69138396677793       -2.52572324367463       -0.28954578012711
C           -3.41897189142460       -3.89497603645281        0.01285410806612
C           -2.95641790738557       -0.30172844570783       -0.48336850521728
O           -4.18378039089612        0.05747456964967       -0.89120465110367
H           -2.53674901715564        4.16950087212731       -2.11589727038226
H           -3.08322596790580        4.45131707059535       -0.44254033683018
H           -4.27520580560371        4.03167454392520       -1.71036711598708
H            1.56634359103164       -2.32858766858819        2.77430342664527
H            0.34430475686340       -1.04824771899478        2.92503230065051
H           -0.14470467783808       -2.69266199954696        2.47653461028522
H            2.17760218669870       -3.22916995128014        0.51116469298968
H            0.48322760728346       -3.58678916665943        0.12219219635519
H            1.43908182095996       -2.55149079815014       -0.95407022380305
H            1.39278971040168        0.33800401047267        0.28047095927032
H            3.61695941895713        3.67924284108005       -1.73576700824361
H            4.92538880787734        4.41549550074331       -0.78072236173521
H            3.24782619861999        4.45034360469537       -0.19328004484865
H           -3.10963187695173       -3.99646264115805        1.05624935113262
H           -2.62588318380229       -4.27272462730309       -0.63788019916250
H           -4.34501687117930       -4.43900065052130       -0.16281196811426
H           -4.77909788464653       -0.70600405728171       -0.91092520973151
 
 Bond Distances (Angstroems)
 ---------------------------
C1-O2=1.4307         C1-H26=1.0926        C1-H27=1.0926        C1-H28=1.0881        O2-C1=1.4307         O2-C3=1.3297         
C3-O2=1.3297         C3-O4=1.2095         C3-C5=1.4963         O4-C3=1.2095         C5-C3=1.4963         C5-N6=1.3506         
C5-C24=1.3853        N6-C5=1.3506         N6-C7=1.3110         C7-N6=1.3110         C7-C8=1.5144         C7-N20=1.3452        
C8-C7=1.5144         C8-C9=1.5371         C8-C10=1.5342        C8-N11=1.4596        C9-C8=1.5371         C9-H29=1.0886        
C9-H30=1.0891        C9-H31=1.0886        C10-C8=1.5342        C10-H32=1.0887       C10-H33=1.0885       C10-H34=1.0891       
N11-C8=1.4596        N11-C12=1.3417       N11-H35=1.0132       C12-N11=1.3417       C12-O13=1.2228       C12-C14=1.4878       
O13-C12=1.2228       C14-C12=1.4878       C14-N15=1.2970       C14-O19=1.3509       N15-C14=1.2970       N15-N16=1.3638       
N16-N15=1.3638       N16-C17=1.2966       C17-N16=1.2966       C17-C18=1.4792       C17-O19=1.3431       C18-C17=1.4792       
C18-H36=1.0894       C18-H37=1.0871       C18-H38=1.0899       O19-C14=1.3509       O19-C17=1.3431       N20-C7=1.3452        
N20-C21=1.3141       C21-N20=1.3141       C21-O22=1.3365       C21-C24=1.4210       O22-C21=1.3365       O22-C23=1.4285       
C23-O22=1.4285       C23-H39=1.0930       C23-H40=1.0932       C23-H41=1.0883       C24-C5=1.3853        C24-C21=1.4210       
C24-O25=1.3423       O25-C24=1.3423       O25-H42=0.9683       H26-C1=1.0926        H27-C1=1.0926        H28-C1=1.0881        
H29-C9=1.0886        H30-C9=1.0891        H31-C9=1.0886        H32-C10=1.0887       H33-C10=1.0885       H34-C10=1.0891       
H35-N11=1.0132       H36-C18=1.0894       H37-C18=1.0871       H38-C18=1.0899       H39-C23=1.0930       H40-C23=1.0932       
H41-C23=1.0883       H42-O25=0.9683       
 C  H  Rav=1.0898 sigma=0.0020  Rmin=1.0871  Rmax=1.0932    15
 C  C  Rav=1.4819 sigma=0.0502  Rmin=1.3853  Rmax=1.5371     8
 N  H  Rav=1.0132 sigma=0.0000  Rmin=1.0132  Rmax=1.0132     1
 N  C  Rav=1.3395 sigma=0.0496  Rmin=1.2966  Rmax=1.4596     8
 N  N  Rav=1.3638 sigma=0.0000  Rmin=1.3638  Rmax=1.3638     1
 O  H  Rav=0.9683 sigma=0.0000  Rmin=0.9683  Rmax=0.9683     1
 O  C  Rav=1.3327 sigma=0.0720  Rmin=1.2095  Rmax=1.4307     9
 
 selected bond angles (degree)
 --------------------
H26-C1-O2=110.11               H27-C1-O2=110.02               H27-C1-H26=109.33              H28-C1-O2=106.62               
H28-C1-H26=110.38              H28-C1-H27=110.34              C3-O2-C1=116.50                O4-C3-O2=123.31                
C5-C3-O2=113.54                C5-C3-O4=123.15                N6-C5-C3=114.12                C24-C5-C3=126.05               
C24-C5-N6=119.82               C7-N6-C5=119.53                C8-C7-N6=119.29                N20-C7-N6=124.70               
N20-C7-C8=115.98               C9-C8-C7=108.08                C10-C8-C7=109.84               C10-C8-C9=110.92               
N11-C8-C7=107.50               N11-C8-C9=110.29               N11-C8-C10=110.12              H29-C9-C8=110.34               
H30-C9-C8=109.94               H30-C9-H29=109.31              H31-C9-C8=109.00               H31-C9-H29=109.19              
H31-C9-H30=109.03              H32-C10-C8=110.30              H33-C10-C8=109.05              H33-C10-H32=109.22             
H34-C10-C8=110.00              H34-C10-H32=109.21             H34-C10-H33=109.03             
 
 selected dihedral angles (degree)
 ---------------------------------
C3-O2-C1-H26= 59.58           C3-O2-C1-H27=299.01           C3-O2-C1-H28=179.34           O4-C3-O2-C1=359.69            
C5-C3-O2-C1=179.56            N6-C5-C3-O2=178.75            N6-C5-C3-O4=358.61            C24-C5-C3-O2=358.02           
C24-C5-C3-O4=177.89           C7-N6-C5-C3=179.26            C7-N6-C5-C24=359.94           C8-C7-N6-C5=182.25            
N20-C7-N6-C5=  0.17           C9-C8-C7-N6=108.51            C9-C8-C7-N20=290.42           C10-C8-C7-N6=229.65           
C10-C8-C7-N20= 51.56          N11-C8-C7-N6=349.47           N11-C8-C7-N20=171.38          H29-C9-C8-C7=177.58           
H29-C9-C8-C10= 57.11          H29-C9-C8-N11=294.84          H30-C9-C8-C7=298.23           H30-C9-C8-C10=177.76          
H30-C9-C8-N11= 55.49          H31-C9-C8-C7= 57.69           H31-C9-C8-C10=297.22          H31-C9-C8-N11=174.94          
H32-C10-C8-C7=185.01          H32-C10-C8-C9=304.43          H32-C10-C8-N11= 66.80         H33-C10-C8-C7=304.95          
H33-C10-C8-C9= 64.37          H33-C10-C8-N11=186.74         H34-C10-C8-C7= 64.47          H34-C10-C8-C9=183.90          
H34-C10-C8-N11=306.27         
           -------------------------------------------------
          |                Final Singlepoint                |
           -------------------------------------------------

          ...................................................
          :                      SETUP                      :
          :.................................................:
          :  # basis functions                 134          :
          :  # atomic orbitals                 134          :
          :  # shells                           84          :
          :  # electrons                       134          :
          :  # halogen bonds                     0          :
          :  max. iterations                   250          :
          :  Hamiltonian                  GFN1-xTB          :
          :  restarted?                      false          :
          :  GBSA solvation                   true          :
          :  PC potential                    false          :
          :  electronic temp.          300.0000000     K    :
          :  accuracy                    1.0000000          :
          :  -> integral cutoff          0.2500000E+02      :
          :  -> integral neglect         0.1000000E-07      :
          :  -> SCF convergence          0.1000000E-05 Eh   :
          :  -> wf. convergence          0.2000000E-04 e    :
          :  Broyden damping             0.4000000          :
          ...................................................

 iter      E             dE          RMSdq      gap      omega  full diag
   1    -83.7906976 -0.837907E+02  0.284E-05    2.98       0.0  T
   2    -83.7906976 -0.618172E-11  0.137E-05    2.98    1130.4  T
   3    -83.7906976 -0.312639E-12  0.809E-06    2.98    1908.3  T

   *** convergence criteria satisfied after 3 iterations ***

         #    Occupation            Energy/Eh            Energy/eV
      -------------------------------------------------------------
         1        2.0000           -0.8624310             -23.4679
       ...           ...                  ...                  ...
        61        2.0000           -0.4688588             -12.7583
        62        2.0000           -0.4592384             -12.4965
        63        2.0000           -0.4564074             -12.4195
        64        2.0000           -0.4480118             -12.1910
        65        2.0000           -0.4437494             -12.0750
        66        2.0000           -0.4341862             -11.8148
        67        2.0000           -0.4310725             -11.7301 (HOMO)
        68                         -0.3216647              -8.7529 (LUMO)
        69                         -0.3056038              -8.3159
        70                         -0.2824479              -7.6858
        71                         -0.2545803              -6.9275
        72                         -0.2369852              -6.4487
       ...                                ...                  ...
       134                          0.7273207              19.7914
      -------------------------------------------------------------
                  HL-Gap            0.1094079 Eh            2.9771 eV
             Fermi-level           -0.3763686 Eh          -10.2415 eV

 SCC (total)                   0 d,  0 h,  0 min,  0.131 sec
 SCC setup                      ...        0 min,  0.002 sec (  1.522%)
 Dispersion                     ...        0 min,  0.000 sec (  0.261%)
 classical contributions        ...        0 min,  0.000 sec (  0.096%)
 integral evaluation            ...        0 min,  0.035 sec ( 26.488%)
 iterations                     ...        0 min,  0.012 sec (  8.979%)
 molecular gradient             ...        0 min,  0.081 sec ( 61.923%)
 printout                       ...        0 min,  0.001 sec (  0.681%)

         :::::::::::::::::::::::::::::::::::::::::::::::::::::
         ::                     SUMMARY                     ::
         :::::::::::::::::::::::::::::::::::::::::::::::::::::
         :: total energy             -83.013094982987 Eh    ::
         :: total w/o Gsasa/hb       -82.988263710242 Eh    ::
         :: gradient norm              0.000317000174 Eh/a0 ::
         :: HOMO-LUMO gap              2.977139721722 eV    ::
         ::.................................................::
         :: SCC energy               -83.790697582551 Eh    ::
         :: -> electrostatic           0.330866548224 Eh    ::
         :: -> Gsolv                  -0.053891096073 Eh    ::
         ::    -> Gelec               -0.029059823327 Eh    ::
         ::    -> Gsasa               -0.025517603895 Eh    ::
         ::    -> Ghb                 -0.006937947855 Eh    ::
         ::    -> Gshift               0.007624279005 Eh    ::
         :: repulsion energy           0.802624806556 Eh    ::
         :: dispersion energy         -0.025022206992 Eh    ::
         :: halogen bond corr.         0.000000000000 Eh    ::
         :: add. restraining           0.000000000000 Eh    ::
         :: total charge               0.000000000000 e     ::
         :::::::::::::::::::::::::::::::::::::::::::::::::::::

           -------------------------------------------------
          |                Property Printout                |
           -------------------------------------------------

    * Orbital Energies and Occupations

         #    Occupation            Energy/Eh            Energy/eV
      -------------------------------------------------------------
         1        2.0000           -0.8624310             -23.4679
       ...           ...                  ...                  ...
        55        2.0000           -0.5000340             -13.6066
        56        2.0000           -0.4967477             -13.5172
        57        2.0000           -0.4955741             -13.4853
        58        2.0000           -0.4784670             -13.0197
        59        2.0000           -0.4773333             -12.9889
        60        2.0000           -0.4743073             -12.9066
        61        2.0000           -0.4688588             -12.7583
        62        2.0000           -0.4592384             -12.4965
        63        2.0000           -0.4564074             -12.4195
        64        2.0000           -0.4480118             -12.1910
        65        2.0000           -0.4437494             -12.0750
        66        2.0000           -0.4341862             -11.8148
        67        2.0000           -0.4310725             -11.7301 (HOMO)
        68                         -0.3216647              -8.7529 (LUMO)
        69                         -0.3056038              -8.3159
        70                         -0.2824479              -7.6858
        71                         -0.2545803              -6.9275
        72                         -0.2369852              -6.4487
        73                         -0.1938708              -5.2755
        74                         -0.1546188              -4.2074
        75                         -0.1417691              -3.8577
        76                         -0.1401352              -3.8133
        77                         -0.1365959              -3.7170
        78                         -0.1190076              -3.2384
       ...                                ...                  ...
       134                          0.7273207              19.7914
      -------------------------------------------------------------
                  HL-Gap            0.1094079 Eh            2.9771 eV
             Fermi-level           -0.3763686 Eh          -10.2415 eV

  Mulliken/CM5 charges         n(s)   n(p)   n(d)
     1C     0.16321  0.04252   0.980  2.856  0.000
     2O    -0.40876 -0.49287   1.684  4.724  0.000
     3C     0.57659  0.64405   0.969  2.455  0.000
     4O    -0.55887 -0.60316   1.725  4.834  0.000
     5C     0.09841  0.17928   1.045  2.856  0.000
     6N    -0.36208 -0.55041   1.533  3.829  0.000
     7C     0.28682  0.44108   1.022  2.691  0.000
     8C     0.15544  0.19771   1.061  2.784  0.000
     9C    -0.09999 -0.23892   1.019  3.081  0.000
    10C    -0.10146 -0.24008   1.018  3.084  0.000
    11N    -0.33276 -0.68284   1.429  3.903  0.000
    12C     0.46492  0.57490   0.974  2.561  0.000
    13O    -0.58762 -0.63200   1.728  4.860  0.000
    14C     0.33030  0.45611   1.010  2.659  0.000
    15N    -0.22811 -0.33192   1.567  3.661  0.000
    16N    -0.27267 -0.38042   1.565  3.708  0.000
    17C     0.39012  0.49881   1.007  2.603  0.000
    18C    -0.10937 -0.24682   1.011  3.098  0.000
    19O    -0.35587 -0.41217   1.696  4.660  0.000
    20N    -0.39511 -0.58689   1.537  3.858  0.000
    21C     0.38604  0.49303   0.984  2.630  0.000
    22O    -0.41421 -0.50207   1.680  4.734  0.000
    23C     0.16387  0.04501   0.981  2.855  0.000
    24C     0.23403  0.26833   1.013  2.753  0.000
    25O    -0.51183 -0.70618   1.690  4.822  0.000
    26H     0.05305  0.11480   0.947  0.000  0.000
    27H     0.05258  0.11421   0.947  0.000  0.000
    28H     0.05446  0.11483   0.946  0.000  0.000
    29H     0.05709  0.11678   0.943  0.000  0.000
    30H     0.04235  0.09929   0.958  0.000  0.000
    31H     0.04288  0.09988   0.957  0.000  0.000
    32H     0.05556  0.11501   0.944  0.000  0.000
    33H     0.04221  0.10067   0.958  0.000  0.000
    34H     0.04194  0.09885   0.958  0.000  0.000
    35H     0.25598  0.47055   0.744  0.000  0.000
    36H     0.07750  0.13215   0.922  0.000  0.000
    37H     0.06744  0.12330   0.933  0.000  0.000
    38H     0.07832  0.13274   0.922  0.000  0.000
    39H     0.04915  0.11145   0.951  0.000  0.000
    40H     0.04915  0.11148   0.951  0.000  0.000
    41H     0.05975  0.12019   0.940  0.000  0.000
    42H     0.40956  0.58977   0.590  0.000  0.000

Wiberg/Mayer (AO) data.
largest (>0.10) Wiberg bond orders for each atom

 ---------------------------------------------------------------------------
     #   Z sym  total        # sym  WBO       # sym  WBO       # sym  WBO
 ---------------------------------------------------------------------------
     1   6 C    3.871 --    28 H    0.986    27 H    0.979    26 H    0.979
                             2 O    0.896
     2   8 O    2.208 --     3 C    1.120     1 C    0.896     4 O    0.136
     3   6 C    3.849 --     4 O    1.662     2 O    1.120     5 C    0.990
     4   8 O    1.925 --     3 C    1.662     2 O    0.136
     5   6 C    3.967 --    24 C    1.408     6 N    1.283     3 C    0.990
     6   7 N    3.051 --     7 C    1.475     5 C    1.283
     7   6 C    3.944 --     6 N    1.475    20 N    1.300     8 C    0.985
     8   6 C    3.937 --     7 C    0.985    10 C    0.983     9 C    0.975
                            11 N    0.931
     9   6 C    3.989 --    30 H    0.986    31 H    0.985    29 H    0.980
                             8 C    0.975
    10   6 C    3.990 --    34 H    0.986    33 H    0.984     8 C    0.983
                            32 H    0.982
    11   7 N    3.370 --    12 C    1.282     8 C    0.931    35 H    0.879
                            13 O    0.182
    12   6 C    3.921 --    13 O    1.570    11 N    1.282    14 C    0.988
    13   8 O    1.889 --    12 C    1.570    11 N    0.182
    14   6 C    3.871 --    15 N    1.625    19 O    1.049    12 C    0.988
    15   7 N    2.997 --    14 C    1.625    16 N    1.195
    16   7 N    2.980 --    17 C    1.613    15 N    1.195
    17   6 C    3.870 --    16 N    1.613    19 O    1.074    18 C    1.031
    18   6 C    3.987 --    17 C    1.031    37 H    0.983    36 H    0.965
                            38 H    0.962
    19   8 O    2.317 --    17 C    1.074    14 C    1.049
    20   7 N    3.027 --    21 C    1.419     7 C    1.300
    21   6 C    3.908 --    20 N    1.419    24 C    1.203    22 O    1.083
    22   8 O    2.184 --    21 C    1.083    23 C    0.896
    23   6 C    3.869 --    41 H    0.984    39 H    0.980    40 H    0.980
                            22 O    0.896
    24   6 C    3.924 --     5 C    1.408    21 C    1.203    25 O    1.089
    25   8 O    2.066 --    24 C    1.089    42 H    0.815
    26   1 H    1.007 --     1 C    0.979
    27   1 H    1.007 --     1 C    0.979
    28   1 H    1.011 --     1 C    0.986
    29   1 H    1.010 --     9 C    0.980
    30   1 H    1.003 --     9 C    0.986
    31   1 H    1.006 --     9 C    0.985
    32   1 H    1.009 --    10 C    0.982
    33   1 H    1.011 --    10 C    0.984
    34   1 H    1.003 --    10 C    0.986
    35   1 H    0.959 --    11 N    0.879
    36   1 H    0.997 --    18 C    0.965
    37   1 H    0.999 --    18 C    0.983
    38   1 H    0.997 --    18 C    0.962
    39   1 H    1.009 --    23 C    0.980
    40   1 H    1.009 --    23 C    0.980
    41   1 H    1.009 --    23 C    0.984
    42   1 H    0.844 --    25 O    0.815
 ---------------------------------------------------------------------------

Topologies differ in total number of bonds
Writing topology from bond orders to xtbtopo.mol

 dipole moment from electron density (au)
     X       Y       Z   
  -5.0742  -0.1644  -1.9096  total (Debye):   13.787

           -------------------------------------------------
          |                Geometry Summary                 |
           -------------------------------------------------

      molecular mass/u    :      351.3152409
   center of mass at/Å    :        0.1756315       0.1411100       0.1195316
  moments of inertia/u·Å² :        0.1717038E+04   0.3581597E+04   0.5138661E+04
rotational constants/cm⁻¹ :        0.9817857E-02   0.4706737E-02   0.3280550E-02

 * 39 selected distances

     #   Z          #   Z                                           value/Å
     1   6 C        2   8 O                                       1.4307218
     2   8 O        3   6 C                                       1.3297255
     3   6 C        4   8 O                                       1.2094762
     5   6 C        6   7 N                                       1.3506441
     6   7 N        7   6 C                                       1.3110192
     8   6 C        9   6 C                                       1.5370635 (max)
     8   6 C       10   6 C                                       1.5342297
     8   6 C       11   7 N                                       1.4595629
    11   7 N       12   6 C                                       1.3416591
    12   6 C       13   8 O                                       1.2227797
    14   6 C       15   7 N                                       1.2970233
    16   7 N       17   6 C                                       1.2966148
    17   6 C       18   6 C                                       1.4792257
    14   6 C       19   8 O                                       1.3509391
    17   6 C       19   8 O                                       1.3430601
     7   6 C       20   7 N                                       1.3451982
    20   7 N       21   6 C                                       1.3140627
    21   6 C       22   8 O                                       1.3364724
    22   8 O       23   6 C                                       1.4284634
     5   6 C       24   6 C                                       1.3852649
    21   6 C       24   6 C                                       1.4210306
    24   6 C       25   8 O                                       1.3423025
     1   6 C       26   1 H                                       1.0926402
     1   6 C       27   1 H                                       1.0926181
     1   6 C       28   1 H                                       1.0880514
     9   6 C       29   1 H                                       1.0885679
     9   6 C       30   1 H                                       1.0891325
     9   6 C       31   1 H                                       1.0885750
    10   6 C       32   1 H                                       1.0886564
    10   6 C       33   1 H                                       1.0884838
    10   6 C       34   1 H                                       1.0890505
    11   7 N       35   1 H                                       1.0131891
    18   6 C       36   1 H                                       1.0894480
    18   6 C       37   1 H                                       1.0870734
    18   6 C       38   1 H                                       1.0898902
    23   6 C       39   1 H                                       1.0930072
    23   6 C       40   1 H                                       1.0932242
    23   6 C       41   1 H                                       1.0882926
    25   8 O       42   1 H                                       0.9683448 (min)

 * 6 distinct bonds (by element types)

   Z      Z             #   av. dist./Å        max./Å        min./Å
   1 H    6 C          15     1.0897808     1.0932242     1.0870734
   6 C    6 C           5     1.4713629     1.5370635     1.3852649
   1 H    7 N           1     1.0131891     1.0131891     1.0131891
   6 C    7 N           8     1.3394730     1.4595629     1.2966148
   1 H    8 O           1     0.9683448     0.9683448     0.9683448
   6 C    8 O           9     1.3326601     1.4307218     1.2094762


optimized geometry written to: xtbopt.xyz


           -------------------------------------------------
          | TOTAL ENERGY              -83.013094982987 Eh   |
          | GRADIENT NORM               0.000317000174 Eh/α |
          | HOMO-LUMO GAP               2.977139721722 eV   |
           -------------------------------------------------

------------------------------------------------------------------------
 * finished run on 2023/06/20 at 18:31:10.117     
------------------------------------------------------------------------
 total:
 * wall-time:     0 d,  0 h,  0 min,  6.376 sec
 *  cpu-time:     0 d,  0 h,  0 min,  6.292 sec
 * ratio c/w:     0.987 speedup
 SCF:
 * wall-time:     0 d,  0 h,  0 min,  0.161 sec
 *  cpu-time:     0 d,  0 h,  0 min,  0.160 sec
 * ratio c/w:     0.995 speedup
 ANC optimizer:
 * wall-time:     0 d,  0 h,  0 min,  6.111 sec
 *  cpu-time:     0 d,  0 h,  0 min,  6.081 sec
 * ratio c/w:     0.995 speedup

