      -----------------------------------------------------------      
     |                   =====================                   |     
     |                           x T B                           |     
     |                   =====================                   |     
     |                         S. Grimme                         |     
     |          Mulliken Center for Theoretical Chemistry        |     
     |                    University of Bonn                     |     
      -----------------------------------------------------------      

   * xtb version 6.5.1 (579679a) compiled by 'ehlert@majestix' on 2022-07-11

   xtb is free software: you can redistribute it and/or modify it under
   the terms of the GNU Lesser General Public License as published by
   the Free Software Foundation, either version 3 of the License, or
   (at your option) any later version.
   
   xtb is distributed in the hope that it will be useful,
   but WITHOUT ANY WARRANTY; without even the implied warranty of
   MERCHANTABILITY or FITNESS FOR A PARTICULAR PURPOSE.  See the
   GNU Lesser General Public License for more details.
   
   Cite this work as:
   * C. Bannwarth, E. Caldeweyher, S. Ehlert, A. Hansen, P. Pracht,
     J. Seibert, S. Spicher, S. Grimme, WIREs Comput. Mol. Sci., 2020, 11,
     e01493. DOI: 10.1002/wcms.1493
   
   for GFN2-xTB:
   * C. Bannwarth, S. Ehlert and S. Grimme., J. Chem. Theory Comput., 2019,
     15, 1652-1671. DOI: 10.1021/acs.jctc.8b01176
   for GFN1-xTB:
   * S. Grimme, C. Bannwarth, P. Shushkov, J. Chem. Theory Comput., 2017,
     13, 1989-2009. DOI: 10.1021/acs.jctc.7b00118
   for GFN0-xTB:
   * P. Pracht, E. Caldeweyher, S. Ehlert, S. Grimme, ChemRxiv, 2019, preprint.
     DOI: 10.26434/chemrxiv.8326202.v1
   for GFN-FF:
   * S. Spicher and S. Grimme, Angew. Chem. Int. Ed., 2020, 59, 15665-15673.
     DOI: 10.1002/anie.202004239
   
   for ALPB and GBSA implicit solvation:
   * S. Ehlert, M. Stahn, S. Spicher, S. Grimme, J. Chem. Theory Comput.,
     2021, 17, 4250-4261. DOI: 10.1021/acs.jctc.1c00471
   
   for DFT-D4:
   * E. Caldeweyher, C. Bannwarth and S. Grimme, J. Chem. Phys., 2017,
     147, 034112. DOI: 10.1063/1.4993215
   * E. Caldeweyher, S. Ehlert, A. Hansen, H. Neugebauer, S. Spicher,
     C. Bannwarth and S. Grimme, J. Chem. Phys., 2019, 150, 154122.
     DOI: 10.1063/1.5090222
   * E. Caldeweyher, J.-M. Mewes, S. Ehlert and S. Grimme, Phys. Chem. Chem. Phys.
     2020, 22, 8499-8512. DOI: 10.1039/D0CP00502A
   
   for sTDA-xTB:
   * S. Grimme and C. Bannwarth, J. Chem. Phys., 2016, 145, 054103.
     DOI: 10.1063/1.4959605
   
   in the mass-spec context:
   * V. Asgeirsson, C. Bauer and S. Grimme, Chem. Sci., 2017, 8, 4879.
     DOI: 10.1039/c7sc00601b
   * J. Koopman and S. Grimme, ACS Omega 2019, 4, 12, 15120-15133.
     DOI: 10.1021/acsomega.9b02011
   
   for metadynamics refer to:
   * S. Grimme, J. Chem. Theory Comput., 2019, 155, 2847-2862
     DOI: 10.1021/acs.jctc.9b00143
   
   for SPH calculations refer to:
   * S. Spicher and S. Grimme, J. Chem. Theory Comput., 2021, 17, 1701-1714
     DOI: 10.1021/acs.jctc.0c01306
   
   with help from (in alphabetical order)
   P. Atkinson, C. Bannwarth, F. Bohle, G. Brandenburg, E. Caldeweyher
   M. Checinski, S. Dohm, S. Ehlert, S. Ehrlich, I. Gerasimov, C. Hölzer
   A. Katbashev, J. Koopman, C. Lavigne, S. Lehtola, F. März, M. Müller,
   F. Musil, H. Neugebauer, J. Pisarek, C. Plett, P. Pracht, F. Pultar,
   J. Seibert, P. Shushkov, S. Spicher, M. Stahn, M. Steiner, T. Strunk,
   J. Stückrath, T. Rose, and J. Unsleber
   
 * started run on 2023/06/20 at 15:12:34.402     

           -------------------------------------------------
          |                Calculation Setup                |
           -------------------------------------------------

          program call               : /lustre/hpc/kemi/ree/PhD/git/ReactivityQM/dep/xtb-6.5.1/bin/xtb --gfn 1 /lustre/hpc/kemi/ree/PhD/git/ReactivityQM/calculations/R03/reac01prodE01/conf05/R03_reac01prodE01_conf05_gfn1.xyz --opt --vfukui --chrg -1 --uhf 0 --alpb DMSO
          hostname                   : node068
          coordinate file            : /lustre/hpc/kemi/ree/PhD/git/ReactivityQM/calculations/R03/reac01prodE01/conf05/R03_reac01prodE01_conf05_gfn1.xyz
          omp threads                :                     1

   ID    Z sym.   atoms
    1    6 C      1-3, 5-7, 9, 10
    2    7 N      4
    3    9 F      8
    4    1 H      11-21

           -------------------------------------------------
          |                 G F N 1 - x T B                 |
           -------------------------------------------------

        Reference                      10.1021/acs.jctc.7b00118
      * Hamiltonian:
        H0-scaling (s, p, d)           1.850000    2.250000    2.000000
        zeta-weighting                 0.000000
      * Dispersion:
        s8                             2.400000
        a1                             0.630000
        a2                             5.000000
        s9                             0.000000
      * Repulsion:
        kExp                           1.500000
        rExp                           1.000000
      * Coulomb:
        alpha                          2.000000
        third order                    atomic
        anisotropic                    false
      * Halogen bond correction:
        rad-scale                      1.300000
        damping                        0.440000

      * Solvation model:               ALPB
        Solvent                        DMSO
        Parameter file                 internal GFN1-xTB/ALPB
        Dielectric constant                4.6680E+01
        Reference state                gsolv [1 M gas/solution]
        Free energy shift                  7.6243E-03 Eh       4.7843E+00 kcal/mol
        Temperature                        2.9815E+02 K
        Density                            1.1000E+00 kg/L
        Solvent mass                       7.8130E+01 g/mol
        Interaction kernel             P16
        Born radius scaling (c1)           1.7672E+00
        Born radii integrator          GBOBC
        Born offset                        0.0000E+00 a0       0.0000E+00 AA
        H-bond correction              true
        Ion screening                  false
        Surface tension                    1.0000E-05 Eh       1.5569E+01 dyn/cm
        Grid points                               230 per atom

          ...................................................
          :                      SETUP                      :
          :.................................................:
          :  # basis functions                  62          :
          :  # atomic orbitals                  62          :
          :  # shells                           42          :
          :  # electrons                        56          :
          :  # halogen bonds                     0          :
          :  max. iterations                   250          :
          :  Hamiltonian                  GFN1-xTB          :
          :  restarted?                      false          :
          :  GBSA solvation                   true          :
          :  PC potential                    false          :
          :  electronic temp.          300.0000000     K    :
          :  accuracy                    1.0000000          :
          :  -> integral cutoff          0.2500000E+02      :
          :  -> integral neglect         0.1000000E-07      :
          :  -> SCF convergence          0.1000000E-05 Eh   :
          :  -> wf. convergence          0.2000000E-04 e    :
          :  Broyden damping             0.4000000          :
          ...................................................

 iter      E             dE          RMSdq      gap      omega  full diag
   1    -31.8028214 -0.318028E+02  0.898E+00    2.31       0.0  T
   2    -31.8288086 -0.259872E-01  0.542E+00    2.46       1.0  T
   3    -31.8293445 -0.535959E-03  0.433E-01    2.40       1.0  T
   4    -31.8304823 -0.113779E-02  0.103E-01    2.45       1.0  T
   5    -31.8305725 -0.902209E-04  0.213E-02    2.44       1.0  T
   6    -31.8305784 -0.580943E-05  0.488E-03    2.44       4.5  T
   7    -31.8305785 -0.175746E-06  0.166E-03    2.44      13.1  T
   8    -31.8305785 -0.114211E-07  0.291E-04    2.44      75.0  T
   9    -31.8305785 -0.286416E-09  0.542E-05    2.44     402.5  T
  10    -31.8305785 -0.262901E-10  0.130E-05    2.44    1684.7  T

   *** convergence criteria satisfied after 10 iterations ***

         #    Occupation            Energy/Eh            Energy/eV
      -------------------------------------------------------------
         1        2.0000           -0.7738780             -21.0583
       ...           ...                  ...                  ...
        22        2.0000           -0.4323149             -11.7639
        23        2.0000           -0.4133686             -11.2483
        24        2.0000           -0.4034307             -10.9779
        25        2.0000           -0.3899922             -10.6122
        26        2.0000           -0.3714530             -10.1077
        27        2.0000           -0.3707002             -10.0873
        28        2.0000           -0.2706877              -7.3658 (HOMO)
        29                         -0.1810304              -4.9261 (LUMO)
        30                         -0.1055315              -2.8717
        31                         -0.0834322              -2.2703
        32                         -0.0781459              -2.1265
        33                         -0.0707474              -1.9251
       ...                                ...                  ...
        62                          0.6560105              17.8510
      -------------------------------------------------------------
                  HL-Gap            0.0896573 Eh            2.4397 eV
             Fermi-level           -0.2258590 Eh           -6.1459 eV

 SCC (total)                   0 d,  0 h,  0 min,  0.035 sec
 SCC setup                      ...        0 min,  0.001 sec (  2.044%)
 Dispersion                     ...        0 min,  0.000 sec (  0.258%)
 classical contributions        ...        0 min,  0.000 sec (  0.097%)
 integral evaluation            ...        0 min,  0.008 sec ( 23.507%)
 iterations                     ...        0 min,  0.008 sec ( 24.017%)
 molecular gradient             ...        0 min,  0.017 sec ( 49.394%)
 printout                       ...        0 min,  0.000 sec (  0.633%)

         :::::::::::::::::::::::::::::::::::::::::::::::::::::
         ::                     SUMMARY                     ::
         :::::::::::::::::::::::::::::::::::::::::::::::::::::
         :: total energy             -31.453502703576 Eh    ::
         :: total w/o Gsasa/hb       -31.443573773643 Eh    ::
         :: gradient norm              0.042969730680 Eh/a0 ::
         :: HOMO-LUMO gap              2.439697969781 eV    ::
         ::.................................................::
         :: SCC energy               -31.830578545574 Eh    ::
         :: -> electrostatic           0.133664470337 Eh    ::
         :: -> Gsolv                  -0.080491650649 Eh    ::
         ::    -> Gelec               -0.070562720716 Eh    ::
         ::    -> Gsasa               -0.013830402775 Eh    ::
         ::    -> Ghb                 -0.003722806162 Eh    ::
         ::    -> Gshift               0.007624279005 Eh    ::
         :: repulsion energy           0.387603718294 Eh    ::
         :: dispersion energy         -0.010527876296 Eh    ::
         :: halogen bond corr.         0.000000000000 Eh    ::
         :: add. restraining           0.000000000000 Eh    ::
         :: total charge              -1.000000000000 e     ::
         :::::::::::::::::::::::::::::::::::::::::::::::::::::

      ----------------------------------------------------------- 
     |                   =====================                   |
     |                        A N C O P T                        |
     |                   =====================                   |
     |               Approximate Normal Coordinate               |
     |                Rational Function Optimizer                |
      ----------------------------------------------------------- 

          ...................................................
          :                      SETUP                      :
          :.................................................:
          :   optimization level            normal          :
          :   max. optcycles                   200          :
          :   ANC micro-cycles                  20          :
          :   degrees of freedom                57          :
          :.................................................:
          :   RF solver                   davidson          :
          :   write xtbopt.log                true          :
          :   linear?                        false          :
          :   energy convergence         0.5000000E-05 Eh   :
          :   grad. convergence          0.1000000E-02 Eh/α :
          :   maximium RF displ.         1.0000000          :
          :   Hlow (freq-cutoff)         0.1000000E-01      :
          :   Hmax (freq-cutoff)         5.0000000          :
          :   S6 in model hess.         20.0000000          :
          ...................................................

generating ANC from model Hessian ...
Using Lindh-Hessian (1995)
 Shifting diagonal of input Hessian by   7.428206997521693E-003
 Lowest  eigenvalues of input Hessian
    0.000000    0.000000    0.000000    0.000000    0.000000    0.000000
    0.010000    0.011631    0.011929    0.014873    0.015645    0.016884
    0.020338    0.023741    0.027028    0.029568    0.031482    0.041980
 Highest eigenvalues
    1.362406    1.439240    1.535305    1.744486    1.904750    2.017007
 

........................................................................
.............................. CYCLE    1 ..............................
........................................................................
   1    -31.8305785 -0.318306E+02  0.280E-06    2.44       0.0  T
   2    -31.8305785 -0.355271E-13  0.115E-06    2.44   18976.7  T
   3    -31.8305785 -0.284217E-13  0.456E-07    2.44   47882.5  T
     SCC iter.                  ...        0 min,  0.003 sec
     gradient                   ...        0 min,  0.017 sec
 * total energy  :   -31.4535027 Eh     change       -0.1524114E-11 Eh
   gradient norm :     0.0429697 Eh/α   predicted     0.0000000E+00 (-100.00%)
   displ. norm   :     0.1745686 α      lambda       -0.2821199E-02
   maximum displ.:     0.1100331 α      in ANC's #4, #11, #16, ...

........................................................................
.............................. CYCLE    2 ..............................
........................................................................
   1    -31.8253953 -0.318254E+02  0.576E-02    2.37       0.0  T
   2    -31.8254494 -0.541198E-04  0.208E-02    2.38       1.0  T
   3    -31.8254536 -0.421563E-05  0.102E-02    2.38       2.1  T
   4    -31.8254537 -0.644150E-07  0.225E-03    2.38       9.7  T
   5    -31.8254537 -0.584943E-08  0.407E-04    2.38      53.6  T
   6    -31.8254537 -0.111477E-08  0.881E-05    2.38     247.6  T
   7    -31.8254537 -0.301874E-10  0.161E-05    2.38    1354.4  T
     SCC iter.                  ...        0 min,  0.006 sec
     gradient                   ...        0 min,  0.017 sec
 * total energy  :   -31.4552627 Eh     change       -0.1760040E-02 Eh
   gradient norm :     0.0164571 Eh/α   predicted    -0.1453866E-02 ( -17.40%)
   displ. norm   :     0.1210346 α      lambda       -0.5537273E-03
   maximum displ.:     0.0791778 α      in ANC's #4, #1, #9, ...

........................................................................
.............................. CYCLE    3 ..............................
........................................................................
   1    -31.8238730 -0.318239E+02  0.333E-02    2.35       0.0  T
   2    -31.8238885 -0.155262E-04  0.110E-02    2.35       2.0  T
   3    -31.8238897 -0.118309E-05  0.572E-03    2.35       3.8  T
   4    -31.8238898 -0.390389E-07  0.142E-03    2.35      15.4  T
   5    -31.8238898 -0.160763E-08  0.207E-04    2.35     105.4  T
   6    -31.8238898 -0.317822E-09  0.508E-05    2.35     429.6  T
   7    -31.8238898 -0.805045E-11  0.140E-05    2.35    1559.5  T
     SCC iter.                  ...        0 min,  0.006 sec
     gradient                   ...        0 min,  0.017 sec
 * total energy  :   -31.4555955 Eh     change       -0.3327151E-03 Eh
   gradient norm :     0.0042960 Eh/α   predicted    -0.2810425E-03 ( -15.53%)
   displ. norm   :     0.0854786 α      lambda       -0.1116431E-03
   maximum displ.:     0.0426073 α      in ANC's #1, #9, #4, ...

........................................................................
.............................. CYCLE    4 ..............................
........................................................................
   1    -31.8241589 -0.318242E+02  0.882E-03    2.35       0.0  T
   2    -31.8241596 -0.635837E-06  0.324E-03    2.35       6.7  T
   3    -31.8241596 -0.421430E-07  0.178E-03    2.35      12.2  T
   4    -31.8241596 -0.840267E-08  0.517E-04    2.35      42.2  T
   5    -31.8241596 -0.327589E-09  0.885E-05    2.35     246.7  T
   6    -31.8241596 -0.477343E-10  0.273E-05    2.35     799.7  T
     SCC iter.                  ...        0 min,  0.005 sec
     gradient                   ...        0 min,  0.017 sec
 * total energy  :   -31.4556788 Eh     change       -0.8334888E-04 Eh
   gradient norm :     0.0034492 Eh/α   predicted    -0.5623433E-04 ( -32.53%)
   displ. norm   :     0.1318897 α      lambda       -0.1161529E-03
   maximum displ.:     0.0767879 α      in ANC's #9, #1, #6, ...

........................................................................
.............................. CYCLE    5 ..............................
........................................................................
   1    -31.8246634 -0.318247E+02  0.690E-03    2.35       0.0  T
   2    -31.8246639 -0.435581E-06  0.343E-03    2.35       6.4  T
   3    -31.8246639 -0.406250E-07  0.132E-03    2.35      16.6  T
   4    -31.8246639 -0.409038E-08  0.529E-04    2.35      41.3  T
   5    -31.8246639 -0.696303E-09  0.110E-04    2.35     199.0  T
   6    -31.8246639 -0.422311E-10  0.286E-05    2.35     762.6  T
     SCC iter.                  ...        0 min,  0.005 sec
     gradient                   ...        0 min,  0.017 sec
 * total energy  :   -31.4557594 Eh     change       -0.8063434E-04 Eh
   gradient norm :     0.0053021 Eh/α   predicted    -0.5908851E-04 ( -26.72%)
   displ. norm   :     0.1248005 α      lambda       -0.8679992E-04
   maximum displ.:     0.0740093 α      in ANC's #9, #1, #6, ...

........................................................................
.............................. CYCLE    6 ..............................
........................................................................
   1    -31.8251588 -0.318252E+02  0.488E-03    2.35       0.0  T
   2    -31.8251594 -0.579432E-06  0.222E-03    2.35       9.8  T
   3    -31.8251594 -0.486434E-07  0.102E-03    2.35      21.5  T
   4    -31.8251594 -0.421398E-08  0.357E-04    2.35      61.1  T
   5    -31.8251594 -0.190415E-09  0.987E-05    2.35     221.1  T
   6    -31.8251594 -0.186304E-10  0.225E-05    2.35     970.4  T
     SCC iter.                  ...        0 min,  0.005 sec
     gradient                   ...        0 min,  0.017 sec
 * total energy  :   -31.4558255 Eh     change       -0.6601489E-04 Eh
   gradient norm :     0.0057736 Eh/α   predicted    -0.4407975E-04 ( -33.23%)
   displ. norm   :     0.1481698 α      lambda       -0.1078596E-03
   maximum displ.:     0.0837911 α      in ANC's #9, #1, #6, ...

........................................................................
.............................. CYCLE    7 ..............................
........................................................................
   1    -31.8256894 -0.318257E+02  0.744E-03    2.35       0.0  T
   2    -31.8256902 -0.802952E-06  0.292E-03    2.35       7.5  T
   3    -31.8256902 -0.621291E-07  0.167E-03    2.35      13.1  T
   4    -31.8256902 -0.309685E-08  0.234E-04    2.35      93.1  T
   5    -31.8256902 -0.199353E-09  0.719E-05    2.35     303.4  T
   6    -31.8256902 -0.390230E-10  0.271E-05    2.35     805.3  T
     SCC iter.                  ...        0 min,  0.005 sec
     gradient                   ...        0 min,  0.017 sec
 * total energy  :   -31.4558962 Eh     change       -0.7074202E-04 Eh
   gradient norm :     0.0039885 Eh/α   predicted    -0.5511482E-04 ( -22.09%)
   displ. norm   :     0.0625482 α      lambda       -0.4325895E-04
   maximum displ.:     0.0358153 α      in ANC's #1, #9, #3, ...

........................................................................
.............................. CYCLE    8 ..............................
........................................................................
   1    -31.8259868 -0.318260E+02  0.637E-03    2.35       0.0  T
   2    -31.8259870 -0.139631E-06  0.333E-03    2.35       6.6  T
   3    -31.8259870 -0.948986E-08  0.916E-04    2.35      23.8  T
   4    -31.8259870 -0.380442E-09  0.174E-04    2.35     125.4  T
   5    -31.8259870 -0.159421E-09  0.512E-05    2.35     426.3  T
     SCC iter.                  ...        0 min,  0.004 sec
     gradient                   ...        0 min,  0.017 sec
 * total energy  :   -31.4559233 Eh     change       -0.2706174E-04 Eh
   gradient norm :     0.0015469 Eh/α   predicted    -0.2171468E-04 ( -19.76%)
   displ. norm   :     0.1335708 α      lambda       -0.2262946E-04
   maximum displ.:     0.0749576 α      in ANC's #1, #9, #6, ...

........................................................................
.............................. CYCLE    9 ..............................
........................................................................
   1    -31.8244893 -0.318245E+02  0.671E-03    2.35       0.0  T
   2    -31.8244899 -0.617683E-06  0.323E-03    2.35       6.7  T
   3    -31.8244899 -0.421607E-07  0.141E-03    2.35      15.5  T
   4    -31.8244899 -0.470392E-08  0.514E-04    2.35      42.5  T
   5    -31.8244899 -0.780091E-09  0.139E-04    2.35     156.9  T
   6    -31.8244899 -0.256755E-10  0.279E-05    2.35     783.4  T
     SCC iter.                  ...        0 min,  0.005 sec
     gradient                   ...        0 min,  0.017 sec
 * total energy  :   -31.4559258 Eh     change       -0.2544749E-05 Eh
   gradient norm :     0.0038777 Eh/α   predicted    -0.1140526E-04 ( 348.19%)
   displ. norm   :     0.0300407 α      lambda       -0.1928239E-04
   maximum displ.:     0.0188861 α      in ANC's #9, #6, #1, ...

........................................................................
.............................. CYCLE   10 ..............................
........................................................................
   1    -31.8252606 -0.318253E+02  0.495E-03    2.35       0.0  T
   2    -31.8252606 -0.762866E-07  0.239E-03    2.35       9.1  T
   3    -31.8252606 -0.479583E-08  0.714E-04    2.35      30.5  T
   4    -31.8252606 -0.281272E-08  0.241E-04    2.35      90.7  T
   5    -31.8252606 -0.154294E-09  0.241E-05    2.35     905.3  T
   6    -31.8252606 -0.160938E-11  0.805E-06    2.35    2712.2  T
     SCC iter.                  ...        0 min,  0.005 sec
     gradient                   ...        0 min,  0.017 sec
 * total energy  :   -31.4559382 Eh     change       -0.1242055E-04 Eh
   gradient norm :     0.0014960 Eh/α   predicted    -0.9677845E-05 ( -22.08%)
   displ. norm   :     0.0364097 α      lambda       -0.8195857E-05
   maximum displ.:     0.0244021 α      in ANC's #2, #6, #9, ...

........................................................................
.............................. CYCLE   11 ..............................
........................................................................
   1    -31.8259560 -0.318260E+02  0.301E-03    2.35       0.0  T
   2    -31.8259560 -0.515698E-07  0.146E-03    2.35      15.0  T
   3    -31.8259560 -0.409727E-08  0.445E-04    2.35      49.1  T
   4    -31.8259560 -0.956604E-10  0.122E-04    2.35     179.1  T
   5    -31.8259560 -0.221618E-10  0.293E-05    2.35     745.9  T
     SCC iter.                  ...        0 min,  0.004 sec
     gradient                   ...        0 min,  0.017 sec
 * total energy  :   -31.4559456 Eh     change       -0.7417470E-05 Eh
   gradient norm :     0.0008878 Eh/α   predicted    -0.4105321E-05 ( -44.65%)
   displ. norm   :     0.0541908 α      lambda       -0.5483619E-05
   maximum displ.:     0.0438524 α      in ANC's #2, #1, #7, ...

........................................................................
.............................. CYCLE   12 ..............................
........................................................................
   1    -31.8260070 -0.318260E+02  0.972E-04    2.35       0.0  T
   2    -31.8260070 -0.185525E-07  0.362E-04    2.35      60.3  T
   3    -31.8260070 -0.104293E-08  0.194E-04    2.35     112.4  T
   4    -31.8260070 -0.108646E-09  0.975E-05    2.35     223.8  T
     SCC iter.                  ...        0 min,  0.003 sec
     gradient                   ...        0 min,  0.016 sec
 * total energy  :   -31.4559529 Eh     change       -0.7221319E-05 Eh
   gradient norm :     0.0009644 Eh/α   predicted    -0.2746004E-05 ( -61.97%)
   displ. norm   :     0.0760125 α      lambda       -0.6844703E-05
   maximum displ.:     0.0528204 α      in ANC's #2, #1, #9, ...

........................................................................
.............................. CYCLE   13 ..............................
........................................................................
   1    -31.8257171 -0.318257E+02  0.218E-03    2.35       0.0  T
   2    -31.8257172 -0.616218E-07  0.953E-04    2.35      22.9  T
   3    -31.8257172 -0.399417E-08  0.478E-04    2.35      45.7  T
   4    -31.8257172 -0.473513E-09  0.167E-04    2.35     130.6  T
   5    -31.8257172 -0.782912E-10  0.382E-05    2.35     571.4  T
     SCC iter.                  ...        0 min,  0.004 sec
     gradient                   ...        0 min,  0.017 sec
 * total energy  :   -31.4559607 Eh     change       -0.7880543E-05 Eh
   gradient norm :     0.0004048 Eh/α   predicted    -0.3440427E-05 ( -56.34%)
   displ. norm   :     0.0677419 α      lambda       -0.3757242E-05
   maximum displ.:     0.0498473 α      in ANC's #2, #1, #7, ...

........................................................................
.............................. CYCLE   14 ..............................
........................................................................
   1    -31.8255920 -0.318256E+02  0.125E-03    2.35       0.0  T
   2    -31.8255920 -0.336498E-07  0.454E-04    2.35      48.1  T
   3    -31.8255920 -0.146382E-08  0.283E-04    2.35      77.1  T
   4    -31.8255920 -0.201027E-09  0.118E-04    2.35     184.9  T
   5    -31.8255920 -0.440536E-10  0.251E-05    2.35     869.6  T
     SCC iter.                  ...        0 min,  0.004 sec
     gradient                   ...        0 min,  0.017 sec
 * total energy  :   -31.4559642 Eh     change       -0.3462076E-05 Eh
   gradient norm :     0.0004382 Eh/α   predicted    -0.1884354E-05 ( -45.57%)
   displ. norm   :     0.0267704 α      lambda       -0.9580872E-06
   maximum displ.:     0.0218558 α      in ANC's #2, #1, #5, ...

   *** GEOMETRY OPTIMIZATION CONVERGED AFTER 14 ITERATIONS ***

------------------------------------------------------------------------
 total energy gain   :        -0.0024615 Eh       -1.5446 kcal/mol
 total RMSD          :         0.1965475 a0        0.1040 Å
 total power (kW/mol):        -0.4616198 (step)  -14.6462 (real)
------------------------------------------------------------------------

 ANCopt (total)                0 d,  0 h,  0 min,  0.441 sec
 optimizer setup                ...        0 min,  0.001 sec (  0.133%)
 model hessian                  ...        0 min,  0.011 sec (  2.598%)
 ANC generation                 ...        0 min,  0.001 sec (  0.135%)
 coordinate transformation      ...        0 min,  0.000 sec (  0.021%)
 single point calculation       ...        0 min,  0.424 sec ( 96.053%)
 optimization log               ...        0 min,  0.002 sec (  0.478%)
 hessian update                 ...        0 min,  0.000 sec (  0.025%)
 rational function              ...        0 min,  0.001 sec (  0.177%)

================
 final structure:
================
21
 xtb: 6.5.1 (579679a)
C           -0.64680280527697        0.24726613819408        1.75906990510917
C           -0.21935695203765       -0.09454762071905        0.29861389570493
C           -1.49885629827567       -0.57524720780430       -0.45772370081887
N           -2.58662423043965        0.41304155706873       -0.39768269289539
C            0.78642129326374       -1.23501698910409        0.31100292889966
C            2.05553942467577       -1.12185004784300       -0.18902318816865
C            2.49040268836456        0.07295311874658       -0.76198848270170
F            3.78863828779593        0.15578914884660       -1.26631285024023
C            1.65054205427263        1.18430669510387       -0.85215111362971
C            0.37153653755738        1.13558602853725       -0.37007793680529
H           -1.43727107759328        1.00059434561219        1.76075376815088
H            0.21195455050650        0.63660255079895        2.30719385428523
H           -1.01266980117034       -0.64476631365792        2.27232342069001
H           -1.86127014548554       -1.50334283788377        0.00283773711860
H           -1.22796952531139       -0.79941814165445       -1.50233045612456
H           -2.37423862262822        1.17911826942625       -1.02738634818358
H           -3.43420699477539       -0.01665310875300       -0.73835417306441
H            0.45430375030047       -2.16965358468791        0.75606602741217
H            2.73588441194633       -1.96983474426282       -0.14659022229195
H            2.02352712127437        2.09498698811874       -1.31620374980048
H           -0.26948366696357        2.01008775591709       -0.44203662264584
 
 Bond Distances (Angstroems)
 ---------------------------
C1-C2=1.5596         C1-H11=1.0919        C1-H12=1.0906        C1-H13=1.0922        C2-C1=1.5596         C2-C3=1.5621         
C2-C5=1.5207         C2-C10=1.5197        C3-C2=1.5621         C3-N4=1.4709         C3-H14=1.0976        C3-H15=1.1022        
N4-C3=1.4709         N4-H16=1.0142        N4-H17=1.0095        C5-C2=1.5207         C5-C6=1.3688         C5-H18=1.0872        
C6-C5=1.3688         C6-C7=1.3946         C6-H19=1.0880        C7-C6=1.3946         C7-F8=1.3952         C7-C9=1.3959         
F8-C7=1.3952         C9-C7=1.3959         C9-C10=1.3677        C9-H20=1.0880        C10-C2=1.5197        C10-C9=1.3677        
C10-H21=1.0867       H11-C1=1.0919        H12-C1=1.0906        H13-C1=1.0922        H14-C3=1.0976        H15-C3=1.1022        
H16-N4=1.0142        H17-N4=1.0095        H18-C5=1.0872        H19-C6=1.0880        H20-C9=1.0880        H21-C10=1.0867       
 C  H  Rav=1.0916 sigma=0.0049  Rmin=1.0867  Rmax=1.1022     9
 C  C  Rav=1.4611 sigma=0.0813  Rmin=1.3677  Rmax=1.5621     8
 N  H  Rav=1.0118 sigma=0.0023  Rmin=1.0095  Rmax=1.0142     2
 N  C  Rav=1.4709 sigma=0.0000  Rmin=1.4709  Rmax=1.4709     1
 F  C  Rav=1.3952 sigma=0.0000  Rmin=1.3952  Rmax=1.3952     1
 
 selected bond angles (degree)
 --------------------
H11-C1-C2=110.55               H12-C1-C2=109.45               H12-C1-H11=108.84              H13-C1-C2=110.66               
H13-C1-H11=108.68              H13-C1-H12=108.61              C3-C2-C1=107.24                C5-C2-C1=109.76                
C5-C2-C3=108.35                C10-C2-C1=109.95               C10-C2-C3=110.76               C10-C2-C5=110.70               
N4-C3-C2=112.28                H14-C3-C2=109.12               H14-C3-N4=107.87               H15-C3-C2=108.67               
H15-C3-N4=110.92               H15-C3-H14=107.87              H16-N4-C3=109.11               H17-N4-C3=108.73               
H17-N4-H16=106.73              C6-C5-C2=123.25                H18-C5-C2=116.49               H18-C5-C6=120.26               
C7-C6-C5=120.67                H19-C6-C5=120.07               H19-C6-C7=119.26               F8-C7-C6=119.31                
C9-C7-C6=121.40                C9-C7-F8=119.29                C10-C9-C7=120.76               H20-C9-C7=119.19               
H20-C9-C10=120.05              C9-C10-C2=123.20               H21-C10-C2=116.82              H21-C10-C9=119.98              
 
 selected dihedral angles (degree)
 ---------------------------------
C3-C2-C1-H11=302.76           C3-C2-C1-H12=182.88           C3-C2-C1-H13= 63.21           C5-C2-C1-H11=185.26           
C5-C2-C1-H12= 65.38           C5-C2-C1-H13=305.71           C10-C2-C1-H11= 63.26          C10-C2-C1-H12=303.38          
C10-C2-C1-H13=183.71          N4-C3-C2-C1= 55.50            N4-C3-C2-C5=173.92            N4-C3-C2-C10=295.52           
H14-C3-C2-C1=295.97           H14-C3-C2-C5= 54.38           H14-C3-C2-C10=175.99          H15-C3-C2-C1=178.59           
H15-C3-C2-C5=297.00           H15-C3-C2-C10= 58.61          H16-N4-C3-C2= 74.92           H16-N4-C3-H14=195.18          
H16-N4-C3-H15=313.11          H17-N4-C3-C2=190.97           H17-N4-C3-H14=311.23          H17-N4-C3-H15= 69.16          
C6-C5-C2-C1=240.07            C6-C5-C2-C3=123.26            C6-C5-C2-C10=  1.62           H18-C5-C2-C1= 59.35           
H18-C5-C2-C3=302.55           H18-C5-C2-C10=180.90          C7-C6-C5-C2=359.25            C7-C6-C5-H18=179.99           
H19-C6-C5-C2=179.53           H19-C6-C5-H18=  0.27          F8-C7-C6-C5=180.18            F8-C7-C6-H19=359.90           
C9-C7-C6-C5=359.62            C9-C7-C6-H19=179.34           C10-C9-C7-C6=  0.43           C10-C9-C7-F8=179.87           
H20-C9-C7-C6=180.68           H20-C9-C7-F8=  0.11           C9-C10-C2-C1=119.87           C9-C10-C2-C3=238.21           
C9-C10-C2-C5=358.43           H21-C10-C2-C1=300.83          H21-C10-C2-C3= 59.18          H21-C10-C2-C5=179.40          
C2-C10-C9-C7=  0.66           C2-C10-C9-H20=180.41          H21-C10-C9-C7=179.66          H21-C10-C9-H20=359.42         
           -------------------------------------------------
          |                Final Singlepoint                |
           -------------------------------------------------

          ...................................................
          :                      SETUP                      :
          :.................................................:
          :  # basis functions                  62          :
          :  # atomic orbitals                  62          :
          :  # shells                           42          :
          :  # electrons                        56          :
          :  # halogen bonds                     0          :
          :  max. iterations                   250          :
          :  Hamiltonian                  GFN1-xTB          :
          :  restarted?                      false          :
          :  GBSA solvation                   true          :
          :  PC potential                    false          :
          :  electronic temp.          300.0000000     K    :
          :  accuracy                    1.0000000          :
          :  -> integral cutoff          0.2500000E+02      :
          :  -> integral neglect         0.1000000E-07      :
          :  -> SCF convergence          0.1000000E-05 Eh   :
          :  -> wf. convergence          0.2000000E-04 e    :
          :  Broyden damping             0.4000000          :
          ...................................................

 iter      E             dE          RMSdq      gap      omega  full diag
   1    -31.8255920 -0.318256E+02  0.575E-06    2.35       0.0  T
   2    -31.8255920 -0.461853E-13  0.309E-06    2.35    7069.9  T
   3    -31.8255920 -0.319744E-13  0.575E-07    2.35   37932.2  T

   *** convergence criteria satisfied after 3 iterations ***

         #    Occupation            Energy/Eh            Energy/eV
      -------------------------------------------------------------
         1        2.0000           -0.7741742             -21.0664
       ...           ...                  ...                  ...
        22        2.0000           -0.4332032             -11.7881
        23        2.0000           -0.4139765             -11.2649
        24        2.0000           -0.4051860             -11.0257
        25        2.0000           -0.3924291             -10.6785
        26        2.0000           -0.3738412             -10.1727
        27        2.0000           -0.3702223             -10.0743
        28        2.0000           -0.2715112              -7.3882 (HOMO)
        29                         -0.1850629              -5.0358 (LUMO)
        30                         -0.1054046              -2.8682
        31                         -0.0817566              -2.2247
        32                         -0.0752779              -2.0484
        33                         -0.0719065              -1.9567
       ...                                ...                  ...
        62                          0.6497553              17.6807
      -------------------------------------------------------------
                  HL-Gap            0.0864484 Eh            2.3524 eV
             Fermi-level           -0.2282871 Eh           -6.2120 eV

 SCC (total)                   0 d,  0 h,  0 min,  0.028 sec
 SCC setup                      ...        0 min,  0.001 sec (  2.272%)
 Dispersion                     ...        0 min,  0.000 sec (  0.223%)
 classical contributions        ...        0 min,  0.000 sec (  0.085%)
 integral evaluation            ...        0 min,  0.008 sec ( 27.819%)
 iterations                     ...        0 min,  0.002 sec (  8.744%)
 molecular gradient             ...        0 min,  0.017 sec ( 59.832%)
 printout                       ...        0 min,  0.000 sec (  0.969%)

         :::::::::::::::::::::::::::::::::::::::::::::::::::::
         ::                     SUMMARY                     ::
         :::::::::::::::::::::::::::::::::::::::::::::::::::::
         :: total energy             -31.455964207498 Eh    ::
         :: total w/o Gsasa/hb       -31.445802730561 Eh    ::
         :: gradient norm              0.000439608981 Eh/a0 ::
         :: HOMO-LUMO gap              2.352380309038 eV    ::
         ::.................................................::
         :: SCC energy               -31.825592032995 Eh    ::
         :: -> electrostatic           0.134348882481 Eh    ::
         :: -> Gsolv                  -0.081462570422 Eh    ::
         ::    -> Gelec               -0.071301093485 Eh    ::
         ::    -> Gsasa               -0.013911055966 Eh    ::
         ::    -> Ghb                 -0.003874699976 Eh    ::
         ::    -> Gshift               0.007624279005 Eh    ::
         :: repulsion energy           0.380126668272 Eh    ::
         :: dispersion energy         -0.010498842775 Eh    ::
         :: halogen bond corr.         0.000000000000 Eh    ::
         :: add. restraining           0.000000000000 Eh    ::
         :: total charge              -1.000000000000 e     ::
         :::::::::::::::::::::::::::::::::::::::::::::::::::::

           -------------------------------------------------
          |                Property Printout                |
           -------------------------------------------------

    * Orbital Energies and Occupations

         #    Occupation            Energy/Eh            Energy/eV
      -------------------------------------------------------------
         1        2.0000           -0.7741742             -21.0664
       ...           ...                  ...                  ...
        16        2.0000           -0.4842613             -13.1774
        17        2.0000           -0.4753011             -12.9336
        18        2.0000           -0.4669387             -12.7060
        19        2.0000           -0.4625649             -12.5870
        20        2.0000           -0.4533164             -12.3354
        21        2.0000           -0.4457316             -12.1290
        22        2.0000           -0.4332032             -11.7881
        23        2.0000           -0.4139765             -11.2649
        24        2.0000           -0.4051860             -11.0257
        25        2.0000           -0.3924291             -10.6785
        26        2.0000           -0.3738412             -10.1727
        27        2.0000           -0.3702223             -10.0743
        28        2.0000           -0.2715112              -7.3882 (HOMO)
        29                         -0.1850629              -5.0358 (LUMO)
        30                         -0.1054046              -2.8682
        31                         -0.0817566              -2.2247
        32                         -0.0752779              -2.0484
        33                         -0.0719065              -1.9567
        34                         -0.0511733              -1.3925
        35                         -0.0467208              -1.2713
        36                         -0.0419501              -1.1415
        37                         -0.0345145              -0.9392
        38                         -0.0248328              -0.6757
        39                         -0.0183255              -0.4987
       ...                                ...                  ...
        62                          0.6497553              17.6807
      -------------------------------------------------------------
                  HL-Gap            0.0864484 Eh            2.3524 eV
             Fermi-level           -0.2282871 Eh           -6.2120 eV

  Mulliken/CM5 charges         n(s)   n(p)   n(d)
     1C    -0.09613 -0.23972   1.016  3.080  0.000
     2C     0.05814  0.03967   1.076  2.866  0.000
     3C     0.07784  0.02653   1.019  2.903  0.000
     4N    -0.52576 -0.98399   1.471  4.055  0.000
     5C    -0.19051 -0.24562   1.036  3.154  0.000
     6C    -0.07566 -0.12644   1.047  3.029  0.000
     7C     0.08735  0.09629   1.010  2.903  0.000
     8F    -0.37264 -0.39386   1.858  5.515  0.000
     9C    -0.07736 -0.12815   1.047  3.030  0.000
    10C    -0.18155 -0.23562   1.035  3.146  0.000
    11H     0.00055  0.05735   0.999  0.000  0.000
    12H    -0.00636  0.04665   1.006  0.000  0.000
    13H    -0.00143  0.05161   1.001  0.000  0.000
    14H    -0.00882  0.05591   1.009  0.000  0.000
    15H    -0.01739  0.04564   1.017  0.000  0.000
    16H     0.19291  0.38064   0.807  0.000  0.000
    17H     0.19795  0.38665   0.802  0.000  0.000
    18H    -0.02068  0.03564   1.021  0.000  0.000
    19H    -0.01083  0.04565   1.011  0.000  0.000
    20H    -0.01096  0.04552   1.011  0.000  0.000
    21H    -0.01868  0.03965   1.019  0.000  0.000

Wiberg/Mayer (AO) data.
largest (>0.10) Wiberg bond orders for each atom

 ---------------------------------------------------------------------------
     #   Z sym  total        # sym  WBO       # sym  WBO       # sym  WBO
 ---------------------------------------------------------------------------
     1   6 C    3.991 --    12 H    0.989    13 H    0.986    11 H    0.985
                             2 C    0.968
     2   6 C    3.984 --    10 C    1.006     5 C    1.005     1 C    0.968
                             3 C    0.957
     3   6 C    3.964 --     4 N    0.984    14 H    0.982    15 H    0.977
                             2 C    0.957
     4   7 N    2.951 --     3 C    0.984    16 H    0.957    17 H    0.955
     5   6 C    3.924 --     6 C    1.588     2 C    1.005    18 H    0.975
                             7 C    0.108    10 C    0.108
     6   6 C    3.992 --     5 C    1.588     7 C    1.320    19 H    0.972
     7   6 C    3.742 --     6 C    1.320     9 C    1.313     8 F    0.830
                             5 C    0.108    10 C    0.105
     8   9 F    0.921 --     7 C    0.830
     9   6 C    3.992 --    10 C    1.596     7 C    1.313    20 H    0.972
    10   6 C    3.929 --     9 C    1.596     2 C    1.006    21 H    0.974
                             5 C    0.108     7 C    0.105
    11   1 H    1.024 --     1 C    0.985
    12   1 H    1.029 --     1 C    0.989
    13   1 H    1.012 --     1 C    0.986
    14   1 H    1.018 --     3 C    0.982
    15   1 H    1.027 --     3 C    0.977
    16   1 H    0.976 --     4 N    0.957
    17   1 H    0.971 --     4 N    0.955
    18   1 H    1.003 --     5 C    0.975
    19   1 H    1.008 --     6 C    0.972
    20   1 H    1.008 --     9 C    0.972
    21   1 H    1.004 --    10 C    0.974
 ---------------------------------------------------------------------------

Topologies differ in total number of bonds
Writing topology from bond orders to xtbtopo.mol

 dipole moment from electron density (au)
     X       Y       Z   
  -3.0579  -0.2029   0.0141  total (Debye):    7.790

           -------------------------------------------------
          |                Geometry Summary                 |
           -------------------------------------------------

      molecular mass/u    :      140.1783418
   center of mass at/Å    :        0.6380021       0.0279545      -0.2199821
  moments of inertia/u·Å² :        0.1780161E+03   0.6370781E+03   0.6830846E+03
rotational constants/cm⁻¹ :        0.9469723E-01   0.2646086E-01   0.2467869E-01

 * 16 selected distances

     #   Z          #   Z                                           value/Å
     3   6 C        4   7 N                                       1.4709042 (max)
     5   6 C        6   6 C                                       1.3687564
     6   6 C        7   6 C                                       1.3946147
     7   6 C        9   6 C                                       1.3959235
     9   6 C       10   6 C                                       1.3677075
     1   6 C       11   1 H                                       1.0919462
     1   6 C       12   1 H                                       1.0906361
     1   6 C       13   1 H                                       1.0922499
     3   6 C       14   1 H                                       1.0976440
     3   6 C       15   1 H                                       1.1021959
     4   7 N       16   1 H                                       1.0141539
     4   7 N       17   1 H                                       1.0095005 (min)
     5   6 C       18   1 H                                       1.0871656
     6   6 C       19   1 H                                       1.0880019
     9   6 C       20   1 H                                       1.0880264
    10   6 C       21   1 H                                       1.0866639

 * 4 distinct bonds (by element types)

   Z      Z             #   av. dist./Å        max./Å        min./Å
   1 H    6 C           9     1.0916144     1.1021959     1.0866639
   6 C    6 C           4     1.3817505     1.3959235     1.3677075
   1 H    7 N           2     1.0118272     1.0141539     1.0095005
   6 C    7 N           1     1.4709042     1.4709042     1.4709042


optimized geometry written to: xtbopt.xyz


           -------------------------------------------------
          | TOTAL ENERGY              -31.455964207498 Eh   |
          | GRADIENT NORM               0.000439608981 Eh/α |
          | HOMO-LUMO GAP               2.352380309038 eV   |
           -------------------------------------------------

------------------------------------------------------------------------
 * finished run on 2023/06/20 at 15:12:34.977     
------------------------------------------------------------------------
 total:
 * wall-time:     0 d,  0 h,  0 min,  0.575 sec
 *  cpu-time:     0 d,  0 h,  0 min,  0.524 sec
 * ratio c/w:     0.910 speedup
 SCF:
 * wall-time:     0 d,  0 h,  0 min,  0.035 sec
 *  cpu-time:     0 d,  0 h,  0 min,  0.035 sec
 * ratio c/w:     1.000 speedup
 ANC optimizer:
 * wall-time:     0 d,  0 h,  0 min,  0.474 sec
 *  cpu-time:     0 d,  0 h,  0 min,  0.468 sec
 * ratio c/w:     0.988 speedup

