      -----------------------------------------------------------      
     |                   =====================                   |     
     |                           x T B                           |     
     |                   =====================                   |     
     |                         S. Grimme                         |     
     |          Mulliken Center for Theoretical Chemistry        |     
     |                    University of Bonn                     |     
      -----------------------------------------------------------      

   * xtb version 6.5.1 (579679a) compiled by 'ehlert@majestix' on 2022-07-11

   xtb is free software: you can redistribute it and/or modify it under
   the terms of the GNU Lesser General Public License as published by
   the Free Software Foundation, either version 3 of the License, or
   (at your option) any later version.
   
   xtb is distributed in the hope that it will be useful,
   but WITHOUT ANY WARRANTY; without even the implied warranty of
   MERCHANTABILITY or FITNESS FOR A PARTICULAR PURPOSE.  See the
   GNU Lesser General Public License for more details.
   
   Cite this work as:
   * C. Bannwarth, E. Caldeweyher, S. Ehlert, A. Hansen, P. Pracht,
     J. Seibert, S. Spicher, S. Grimme, WIREs Comput. Mol. Sci., 2020, 11,
     e01493. DOI: 10.1002/wcms.1493
   
   for GFN2-xTB:
   * C. Bannwarth, S. Ehlert and S. Grimme., J. Chem. Theory Comput., 2019,
     15, 1652-1671. DOI: 10.1021/acs.jctc.8b01176
   for GFN1-xTB:
   * S. Grimme, C. Bannwarth, P. Shushkov, J. Chem. Theory Comput., 2017,
     13, 1989-2009. DOI: 10.1021/acs.jctc.7b00118
   for GFN0-xTB:
   * P. Pracht, E. Caldeweyher, S. Ehlert, S. Grimme, ChemRxiv, 2019, preprint.
     DOI: 10.26434/chemrxiv.8326202.v1
   for GFN-FF:
   * S. Spicher and S. Grimme, Angew. Chem. Int. Ed., 2020, 59, 15665-15673.
     DOI: 10.1002/anie.202004239
   
   for ALPB and GBSA implicit solvation:
   * S. Ehlert, M. Stahn, S. Spicher, S. Grimme, J. Chem. Theory Comput.,
     2021, 17, 4250-4261. DOI: 10.1021/acs.jctc.1c00471
   
   for DFT-D4:
   * E. Caldeweyher, C. Bannwarth and S. Grimme, J. Chem. Phys., 2017,
     147, 034112. DOI: 10.1063/1.4993215
   * E. Caldeweyher, S. Ehlert, A. Hansen, H. Neugebauer, S. Spicher,
     C. Bannwarth and S. Grimme, J. Chem. Phys., 2019, 150, 154122.
     DOI: 10.1063/1.5090222
   * E. Caldeweyher, J.-M. Mewes, S. Ehlert and S. Grimme, Phys. Chem. Chem. Phys.
     2020, 22, 8499-8512. DOI: 10.1039/D0CP00502A
   
   for sTDA-xTB:
   * S. Grimme and C. Bannwarth, J. Chem. Phys., 2016, 145, 054103.
     DOI: 10.1063/1.4959605
   
   in the mass-spec context:
   * V. Asgeirsson, C. Bauer and S. Grimme, Chem. Sci., 2017, 8, 4879.
     DOI: 10.1039/c7sc00601b
   * J. Koopman and S. Grimme, ACS Omega 2019, 4, 12, 15120-15133.
     DOI: 10.1021/acsomega.9b02011
   
   for metadynamics refer to:
   * S. Grimme, J. Chem. Theory Comput., 2019, 155, 2847-2862
     DOI: 10.1021/acs.jctc.9b00143
   
   for SPH calculations refer to:
   * S. Spicher and S. Grimme, J. Chem. Theory Comput., 2021, 17, 1701-1714
     DOI: 10.1021/acs.jctc.0c01306
   
   with help from (in alphabetical order)
   P. Atkinson, C. Bannwarth, F. Bohle, G. Brandenburg, E. Caldeweyher
   M. Checinski, S. Dohm, S. Ehlert, S. Ehrlich, I. Gerasimov, C. Hölzer
   A. Katbashev, J. Koopman, C. Lavigne, S. Lehtola, F. März, M. Müller,
   F. Musil, H. Neugebauer, J. Pisarek, C. Plett, P. Pracht, F. Pultar,
   J. Seibert, P. Shushkov, S. Spicher, M. Stahn, M. Steiner, T. Strunk,
   J. Stückrath, T. Rose, and J. Unsleber
   
 * started run on 2023/06/21 at 17:25:22.667     

           -------------------------------------------------
          |                Calculation Setup                |
           -------------------------------------------------

          program call               : /lustre/hpc/kemi/ree/PhD/git/ReactivityQM/dep/xtb-6.5.1/bin/xtb --gfn 1 /lustre/hpc/kemi/ree/PhD/git/ReactivityQM/calculations/R02oxygendeprot/reac01prodN10/conf17/R02oxygendeprot_reac01prodN10_conf17_gfn1.xyz --opt --vfukui --chrg 0 --uhf 0 --alpb DMSO
          hostname                   : node070
          coordinate file            : /lustre/hpc/kemi/ree/PhD/git/ReactivityQM/calculations/R02oxygendeprot/reac01prodN10/conf17/R02oxygendeprot_reac01prodN10_conf17_gfn1.xyz
          omp threads                :                     1

   ID    Z sym.   atoms
    1    6 C      1, 3, 5, 6, 8, 11-15, 17, 19, 22, 23
    2    8 O      2, 4, 7, 9, 18, 24
    3    7 N      10, 16, 20, 21, 25
    4    1 H      26-42

           -------------------------------------------------
          |                 G F N 1 - x T B                 |
           -------------------------------------------------

        Reference                      10.1021/acs.jctc.7b00118
      * Hamiltonian:
        H0-scaling (s, p, d)           1.850000    2.250000    2.000000
        zeta-weighting                 0.000000
      * Dispersion:
        s8                             2.400000
        a1                             0.630000
        a2                             5.000000
        s9                             0.000000
      * Repulsion:
        kExp                           1.500000
        rExp                           1.000000
      * Coulomb:
        alpha                          2.000000
        third order                    atomic
        anisotropic                    false
      * Halogen bond correction:
        rad-scale                      1.300000
        damping                        0.440000

      * Solvation model:               ALPB
        Solvent                        DMSO
        Parameter file                 internal GFN1-xTB/ALPB
        Dielectric constant                4.6680E+01
        Reference state                gsolv [1 M gas/solution]
        Free energy shift                  7.6243E-03 Eh       4.7843E+00 kcal/mol
        Temperature                        2.9815E+02 K
        Density                            1.1000E+00 kg/L
        Solvent mass                       7.8130E+01 g/mol
        Interaction kernel             P16
        Born radius scaling (c1)           1.7672E+00
        Born radii integrator          GBOBC
        Born offset                        0.0000E+00 a0       0.0000E+00 AA
        H-bond correction              true
        Ion screening                  false
        Surface tension                    1.0000E-05 Eh       1.5569E+01 dyn/cm
        Grid points                               230 per atom

          ...................................................
          :                      SETUP                      :
          :.................................................:
          :  # basis functions                 134          :
          :  # atomic orbitals                 134          :
          :  # shells                           84          :
          :  # electrons                       134          :
          :  # halogen bonds                     0          :
          :  max. iterations                   250          :
          :  Hamiltonian                  GFN1-xTB          :
          :  restarted?                      false          :
          :  GBSA solvation                   true          :
          :  PC potential                    false          :
          :  electronic temp.          300.0000000     K    :
          :  accuracy                    1.0000000          :
          :  -> integral cutoff          0.2500000E+02      :
          :  -> integral neglect         0.1000000E-07      :
          :  -> SCF convergence          0.1000000E-05 Eh   :
          :  -> wf. convergence          0.2000000E-04 e    :
          :  Broyden damping             0.4000000          :
          ...................................................

 iter      E             dE          RMSdq      gap      omega  full diag
   1    -83.3397059 -0.833397E+02  0.842E+00    1.89       0.0  T
   2    -83.7018945 -0.362189E+00  0.506E+00    1.55       1.0  T
   3    -83.6913270  0.105675E-01  0.179E+00    1.68       1.0  T
   4    -83.7225084 -0.311814E-01  0.168E-01    1.63       1.0  T
   5    -83.7234998 -0.991370E-03  0.470E-02    1.67       1.0  T
   6    -83.7235514 -0.516419E-04  0.162E-02    1.67       1.0  T
   7    -83.7235564 -0.495355E-05  0.378E-03    1.67       4.1  T
   8    -83.7235566 -0.211915E-06  0.748E-04    1.67      20.6  T
   9    -83.7235566 -0.132343E-07  0.354E-04    1.67      43.5  T
  10    -83.7235566 -0.102335E-08  0.917E-05    1.67     168.2  T
  11    -83.7235566 -0.830198E-10  0.285E-05    1.67     541.0  T

   *** convergence criteria satisfied after 11 iterations ***

         #    Occupation            Energy/Eh            Energy/eV
      -------------------------------------------------------------
         1        2.0000           -0.8648345             -23.5333
       ...           ...                  ...                  ...
        61        2.0000           -0.4832330             -13.1494
        62        2.0000           -0.4720930             -12.8463
        63        2.0000           -0.4641916             -12.6313
        64        2.0000           -0.4585805             -12.4786
        65        2.0000           -0.4480832             -12.1930
        66        2.0000           -0.4463878             -12.1468
        67        2.0000           -0.4437801             -12.0759 (HOMO)
        68                         -0.3824320             -10.4065 (LUMO)
        69                         -0.3281198              -8.9286
        70                         -0.3214292              -8.7465
        71                         -0.2615862              -7.1181
        72                         -0.2609786              -7.1016
       ...                                ...                  ...
       134                          0.7564686              20.5846
      -------------------------------------------------------------
                  HL-Gap            0.0613481 Eh            1.6694 eV
             Fermi-level           -0.4131061 Eh          -11.2412 eV

 SCC (total)                   0 d,  0 h,  0 min,  0.139 sec
 SCC setup                      ...        0 min,  0.002 sec (  1.265%)
 Dispersion                     ...        0 min,  0.000 sec (  0.194%)
 classical contributions        ...        0 min,  0.000 sec (  0.066%)
 integral evaluation            ...        0 min,  0.024 sec ( 17.535%)
 iterations                     ...        0 min,  0.055 sec ( 39.794%)
 molecular gradient             ...        0 min,  0.056 sec ( 40.240%)
 printout                       ...        0 min,  0.001 sec (  0.888%)

         :::::::::::::::::::::::::::::::::::::::::::::::::::::
         ::                     SUMMARY                     ::
         :::::::::::::::::::::::::::::::::::::::::::::::::::::
         :: total energy             -82.963296796576 Eh    ::
         :: total w/o Gsasa/hb       -82.943732092262 Eh    ::
         :: gradient norm              0.117832722763 Eh/a0 ::
         :: HOMO-LUMO gap              1.669366172857 eV    ::
         ::.................................................::
         :: SCC energy               -83.723556576859 Eh    ::
         :: -> electrostatic           0.358257692515 Eh    ::
         :: -> Gsolv                  -0.055594267988 Eh    ::
         ::    -> Gelec               -0.036029563675 Eh    ::
         ::    -> Gsasa               -0.023197374345 Eh    ::
         ::    -> Ghb                 -0.003991608973 Eh    ::
         ::    -> Gshift               0.007624279005 Eh    ::
         :: repulsion energy           0.787865448196 Eh    ::
         :: dispersion energy         -0.027605667913 Eh    ::
         :: halogen bond corr.         0.000000000000 Eh    ::
         :: add. restraining           0.000000000000 Eh    ::
         :: total charge              -0.000000000000 e     ::
         :::::::::::::::::::::::::::::::::::::::::::::::::::::

      ----------------------------------------------------------- 
     |                   =====================                   |
     |                        A N C O P T                        |
     |                   =====================                   |
     |               Approximate Normal Coordinate               |
     |                Rational Function Optimizer                |
      ----------------------------------------------------------- 

          ...................................................
          :                      SETUP                      :
          :.................................................:
          :   optimization level            normal          :
          :   max. optcycles                   200          :
          :   ANC micro-cycles                  20          :
          :   degrees of freedom               120          :
          :.................................................:
          :   RF solver                   davidson          :
          :   write xtbopt.log                true          :
          :   linear?                        false          :
          :   energy convergence         0.5000000E-05 Eh   :
          :   grad. convergence          0.1000000E-02 Eh/α :
          :   maximium RF displ.         1.0000000          :
          :   Hlow (freq-cutoff)         0.1000000E-01      :
          :   Hmax (freq-cutoff)         5.0000000          :
          :   S6 in model hess.         20.0000000          :
          ...................................................

generating ANC from model Hessian ...
Using Lindh-Hessian (1995)
 Shifting diagonal of input Hessian by   9.830442403088757E-003
 Lowest  eigenvalues of input Hessian
    0.000000    0.000000    0.000000    0.000000    0.000000    0.000000
    0.010000    0.010130    0.010707    0.011366    0.011936    0.012117
    0.013020    0.014414    0.015287    0.015866    0.016453    0.017404
 Highest eigenvalues
    2.035016    2.103077    2.240610    2.331775    2.353927    2.387989
 

........................................................................
.............................. CYCLE    1 ..............................
........................................................................
   1    -83.7235566 -0.837236E+02  0.125E-05    1.67       0.0  T
   2    -83.7235566 -0.135003E-11  0.702E-06    1.67    2199.1  T
   3    -83.7235566 -0.440536E-12  0.379E-06    1.67    4072.8  T
     SCC iter.                  ...        0 min,  0.016 sec
     gradient                   ...        0 min,  0.058 sec
 * total energy  :   -82.9632968 Eh     change       -0.9379164E-11 Eh
   gradient norm :     0.1178326 Eh/α   predicted     0.0000000E+00 (-100.00%)
   displ. norm   :     0.3348683 α      lambda       -0.1652285E-01
   maximum displ.:     0.1287787 α      in ANC's #26, #24, #21, ...

........................................................................
.............................. CYCLE    2 ..............................
........................................................................
   1    -83.7439765 -0.837440E+02  0.671E-02    1.70       0.0  T
   2    -83.7441469 -0.170367E-03  0.352E-02    1.71       1.0  T
   3    -83.7441678 -0.209049E-04  0.165E-02    1.71       1.0  T
   4    -83.7441679 -0.115865E-06  0.276E-03    1.71       5.6  T
   5    -83.7441680 -0.684923E-07  0.707E-04    1.71      21.8  T
   6    -83.7441680 -0.602184E-08  0.221E-04    1.71      69.9  T
   7    -83.7441680 -0.591982E-09  0.614E-05    1.71     251.4  T
   8    -83.7441680 -0.571845E-10  0.213E-05    1.71     722.8  T
     SCC iter.                  ...        0 min,  0.039 sec
     gradient                   ...        0 min,  0.057 sec
 * total energy  :   -82.9753889 Eh     change       -0.1209215E-01 Eh
   gradient norm :     0.0617014 Eh/α   predicted    -0.9201859E-02 ( -23.90%)
   displ. norm   :     0.3551418 α      lambda       -0.8067681E-02
   maximum displ.:     0.1297121 α      in ANC's #26, #21, #24, ...

........................................................................
.............................. CYCLE    3 ..............................
........................................................................
   1    -83.7585406 -0.837585E+02  0.664E-02    1.73       0.0  T
   2    -83.7587055 -0.164937E-03  0.332E-02    1.73       1.0  T
   3    -83.7587248 -0.192830E-04  0.153E-02    1.73       1.0  T
   4    -83.7587249 -0.856108E-07  0.334E-03    1.73       4.6  T
   5    -83.7587250 -0.937196E-07  0.661E-04    1.73      23.3  T
   6    -83.7587250 -0.653883E-08  0.192E-04    1.73      80.5  T
   7    -83.7587250 -0.427605E-09  0.568E-05    1.73     271.4  T
     SCC iter.                  ...        0 min,  0.035 sec
     gradient                   ...        0 min,  0.057 sec
 * total energy  :   -82.9802653 Eh     change       -0.4876403E-02 Eh
   gradient norm :     0.0174643 Eh/α   predicted    -0.4544670E-02 (  -6.80%)
   displ. norm   :     0.2274368 α      lambda       -0.1305212E-02
   maximum displ.:     0.0867347 α      in ANC's #16, #4, #23, ...

........................................................................
.............................. CYCLE    4 ..............................
........................................................................
   1    -83.7601885 -0.837602E+02  0.200E-02    1.75       0.0  T
   2    -83.7602006 -0.121020E-04  0.986E-03    1.75       1.6  T
   3    -83.7602019 -0.136315E-05  0.505E-03    1.75       3.1  T
   4    -83.7602020 -0.261589E-07  0.113E-03    1.75      13.6  T
   5    -83.7602020 -0.138119E-07  0.270E-04    1.75      57.2  T
   6    -83.7602020 -0.110275E-08  0.761E-05    1.75     202.8  T
   7    -83.7602020 -0.138400E-09  0.270E-05    1.75     570.5  T
     SCC iter.                  ...        0 min,  0.035 sec
     gradient                   ...        0 min,  0.057 sec
 * total energy  :   -82.9811727 Eh     change       -0.9073471E-03 Eh
   gradient norm :     0.0098890 Eh/α   predicted    -0.6864047E-03 ( -24.35%)
   displ. norm   :     0.2419594 α      lambda       -0.7065270E-03
   maximum displ.:     0.0980764 α      in ANC's #16, #4, #10, ...

........................................................................
.............................. CYCLE    5 ..............................
........................................................................
   1    -83.7603659 -0.837604E+02  0.114E-02    1.76       0.0  T
   2    -83.7603690 -0.311525E-05  0.578E-03    1.76       2.7  T
   3    -83.7603693 -0.289611E-06  0.320E-03    1.76       4.8  T
   4    -83.7603693 -0.167709E-07  0.706E-04    1.76      21.9  T
   5    -83.7603693 -0.638991E-08  0.160E-04    1.76      96.5  T
   6    -83.7603693 -0.356309E-09  0.468E-05    1.76     330.0  T
     SCC iter.                  ...        0 min,  0.030 sec
     gradient                   ...        0 min,  0.055 sec
 * total energy  :   -82.9816444 Eh     change       -0.4716986E-03 Eh
   gradient norm :     0.0086476 Eh/α   predicted    -0.3739542E-03 ( -20.72%)
   displ. norm   :     0.1869039 α      lambda       -0.3043831E-03
   maximum displ.:     0.0735601 α      in ANC's #4, #16, #7, ...

........................................................................
.............................. CYCLE    6 ..............................
........................................................................
   1    -83.7609648 -0.837610E+02  0.697E-03    1.77       0.0  T
   2    -83.7609663 -0.141978E-05  0.358E-03    1.77       4.3  T
   3    -83.7609664 -0.967474E-07  0.193E-03    1.77       8.0  T
   4    -83.7609664 -0.468012E-08  0.477E-04    1.77      32.4  T
   5    -83.7609664 -0.268068E-08  0.106E-04    1.77     145.8  T
   6    -83.7609664 -0.191278E-09  0.290E-05    1.77     532.0  T
     SCC iter.                  ...        0 min,  0.030 sec
     gradient                   ...        0 min,  0.057 sec
 * total energy  :   -82.9818544 Eh     change       -0.2099602E-03 Eh
   gradient norm :     0.0066412 Eh/α   predicted    -0.1575675E-03 ( -24.95%)
   displ. norm   :     0.1616249 α      lambda       -0.1756052E-03
   maximum displ.:     0.0713243 α      in ANC's #7, #6, #4, ...

........................................................................
.............................. CYCLE    7 ..............................
........................................................................
   1    -83.7619750 -0.837620E+02  0.678E-03    1.77       0.0  T
   2    -83.7619767 -0.177461E-05  0.374E-03    1.77       4.1  T
   3    -83.7619769 -0.177866E-06  0.190E-03    1.77       8.1  T
   4    -83.7619769 -0.212239E-08  0.509E-04    1.77      30.3  T
   5    -83.7619769 -0.260653E-08  0.112E-04    1.77     137.5  T
   6    -83.7619769 -0.204565E-09  0.300E-05    1.77     514.0  T
     SCC iter.                  ...        0 min,  0.030 sec
     gradient                   ...        0 min,  0.055 sec
 * total energy  :   -82.9819755 Eh     change       -0.1211334E-03 Eh
   gradient norm :     0.0043390 Eh/α   predicted    -0.9009714E-04 ( -25.62%)
   displ. norm   :     0.1322178 α      lambda       -0.9978710E-04
   maximum displ.:     0.0692067 α      in ANC's #7, #6, #4, ...

........................................................................
.............................. CYCLE    8 ..............................
........................................................................
   1    -83.7629291 -0.837629E+02  0.561E-03    1.77       0.0  T
   2    -83.7629305 -0.137627E-05  0.330E-03    1.77       4.7  T
   3    -83.7629306 -0.160137E-06  0.167E-03    1.77       9.2  T
   4    -83.7629306 -0.856787E-09  0.470E-04    1.77      32.8  T
   5    -83.7629306 -0.215209E-08  0.993E-05    1.77     155.5  T
   6    -83.7629306 -0.170516E-09  0.237E-05    1.77     652.2  T
     SCC iter.                  ...        0 min,  0.030 sec
     gradient                   ...        0 min,  0.056 sec
 * total energy  :   -82.9820459 Eh     change       -0.7042566E-04 Eh
   gradient norm :     0.0033034 Eh/α   predicted    -0.5076638E-04 ( -27.91%)
   displ. norm   :     0.1292580 α      lambda       -0.6997540E-04
   maximum displ.:     0.0736370 α      in ANC's #7, #6, #4, ...

........................................................................
.............................. CYCLE    9 ..............................
........................................................................
   1    -83.7634178 -0.837634E+02  0.460E-03    1.77       0.0  T
   2    -83.7634189 -0.104433E-05  0.268E-03    1.77       5.8  T
   3    -83.7634190 -0.128529E-06  0.131E-03    1.77      11.8  T
   4    -83.7634190 -0.153989E-09  0.453E-04    1.77      34.0  T
   5    -83.7634190 -0.153221E-08  0.730E-05    1.77     211.3  T
   6    -83.7634190 -0.104549E-09  0.181E-05    1.77     851.1  T
     SCC iter.                  ...        0 min,  0.030 sec
     gradient                   ...        0 min,  0.055 sec
 * total energy  :   -82.9820964 Eh     change       -0.5052952E-04 Eh
   gradient norm :     0.0031531 Eh/α   predicted    -0.3557301E-04 ( -29.60%)
   displ. norm   :     0.1351271 α      lambda       -0.5672751E-04
   maximum displ.:     0.0766666 α      in ANC's #7, #6, #3, ...

........................................................................
.............................. CYCLE   10 ..............................
........................................................................
   1    -83.7635293 -0.837635E+02  0.338E-03    1.77       0.0  T
   2    -83.7635299 -0.562350E-06  0.197E-03    1.77       7.8  T
   3    -83.7635299 -0.647277E-07  0.948E-04    1.77      16.3  T
   4    -83.7635299 -0.441958E-11  0.381E-04    1.77      40.5  T
   5    -83.7635299 -0.110295E-08  0.507E-05    1.77     304.3  T
   6    -83.7635299 -0.492122E-10  0.149E-05    1.77    1035.4  T
     SCC iter.                  ...        0 min,  0.030 sec
     gradient                   ...        0 min,  0.055 sec
 * total energy  :   -82.9821367 Eh     change       -0.4028513E-04 Eh
   gradient norm :     0.0028770 Eh/α   predicted    -0.2888206E-04 ( -28.31%)
   displ. norm   :     0.1218135 α      lambda       -0.4005207E-04
   maximum displ.:     0.0667385 α      in ANC's #7, #5, #3, ...

........................................................................
.............................. CYCLE   11 ..............................
........................................................................
   1    -83.7633610 -0.837634E+02  0.223E-03    1.77       0.0  T
   2    -83.7633612 -0.230204E-06  0.143E-03    1.77      10.8  T
   3    -83.7633612 -0.257295E-07  0.711E-04    1.77      21.7  T
   4    -83.7633612 -0.169820E-10  0.248E-04    1.77      62.2  T
   5    -83.7633612 -0.586397E-09  0.458E-05    1.77     337.2  T
   6    -83.7633612 -0.252811E-10  0.121E-05    1.77    1270.0  T
     SCC iter.                  ...        0 min,  0.025 sec
     gradient                   ...        0 min,  0.047 sec
 * total energy  :   -82.9821645 Eh     change       -0.2776903E-04 Eh
   gradient norm :     0.0022622 Eh/α   predicted    -0.2032686E-04 ( -26.80%)
   displ. norm   :     0.0866153 α      lambda       -0.2575651E-04
   maximum displ.:     0.0417743 α      in ANC's #7, #5, #3, ...

........................................................................
.............................. CYCLE   12 ..............................
........................................................................
   1    -83.7633244 -0.837633E+02  0.193E-03    1.77       0.0  T
   2    -83.7633245 -0.134180E-06  0.117E-03    1.77      13.2  T
   3    -83.7633245 -0.128412E-07  0.617E-04    1.77      25.0  T
   4    -83.7633245 -0.229420E-09  0.148E-04    1.77     104.3  T
   5    -83.7633245 -0.240874E-09  0.344E-05    1.77     448.7  T
     SCC iter.                  ...        0 min,  0.019 sec
     gradient                   ...        0 min,  0.062 sec
 * total energy  :   -82.9821831 Eh     change       -0.1864133E-04 Eh
   gradient norm :     0.0016801 Eh/α   predicted    -0.1297709E-04 ( -30.39%)
   displ. norm   :     0.1256928 α      lambda       -0.2185752E-04
   maximum displ.:     0.0557971 α      in ANC's #5, #3, #7, ...

........................................................................
.............................. CYCLE   13 ..............................
........................................................................
   1    -83.7631093 -0.837631E+02  0.302E-03    1.76       0.0  T
   2    -83.7631095 -0.275462E-06  0.159E-03    1.76       9.7  T
   3    -83.7631096 -0.245461E-07  0.867E-04    1.76      17.8  T
   4    -83.7631096 -0.534328E-09  0.193E-04    1.76      80.0  T
   5    -83.7631096 -0.543380E-09  0.429E-05    1.76     359.5  T
     SCC iter.                  ...        0 min,  0.030 sec
     gradient                   ...        0 min,  0.064 sec
 * total energy  :   -82.9822030 Eh     change       -0.1987482E-04 Eh
   gradient norm :     0.0021217 Eh/α   predicted    -0.1100804E-04 ( -44.61%)
   displ. norm   :     0.0557759 α      lambda       -0.1466531E-04
   maximum displ.:     0.0262483 α      in ANC's #5, #3, #1, ...

........................................................................
.............................. CYCLE   14 ..............................
........................................................................
   1    -83.7632206 -0.837632E+02  0.122E-03    1.76       0.0  T
   2    -83.7632207 -0.334270E-07  0.466E-04    1.76      33.1  T
   3    -83.7632207 -0.419382E-08  0.300E-04    1.76      51.5  T
   4    -83.7632207 -0.365048E-09  0.579E-05    1.76     266.6  T
   5    -83.7632207 -0.300702E-10  0.139E-05    1.76    1109.1  T
     SCC iter.                  ...        0 min,  0.030 sec
     gradient                   ...        0 min,  0.065 sec
 * total energy  :   -82.9822162 Eh     change       -0.1317997E-04 Eh
   gradient norm :     0.0019397 Eh/α   predicted    -0.7358885E-05 ( -44.17%)
   displ. norm   :     0.3754535 α      lambda       -0.5703359E-04
   maximum displ.:     0.1830363 α      in ANC's #5, #3, #1, ...

........................................................................
.............................. CYCLE   15 ..............................
........................................................................
   1    -83.7616155 -0.837616E+02  0.877E-03    1.74       0.0  T
   2    -83.7616175 -0.199489E-05  0.360E-03    1.74       4.3  T
   3    -83.7616178 -0.349207E-06  0.196E-03    1.74       7.9  T
   4    -83.7616179 -0.167294E-07  0.405E-04    1.74      38.1  T
   5    -83.7616179 -0.534783E-09  0.101E-04    1.74     152.4  T
   6    -83.7616179 -0.107676E-09  0.291E-05    1.74     529.8  T
     SCC iter.                  ...        0 min,  0.034 sec
     gradient                   ...        0 min,  0.064 sec
 * total energy  :   -82.9822278 Eh     change       -0.1156165E-04 Eh
   gradient norm :     0.0052132 Eh/α   predicted    -0.3030776E-04 ( 162.14%)
   displ. norm   :     0.0962153 α      lambda       -0.5128516E-04
   maximum displ.:     0.0478090 α      in ANC's #7, #5, #3, ...

........................................................................
.............................. CYCLE   16 ..............................
........................................................................
   1    -83.7638221 -0.837638E+02  0.487E-03    1.75       0.0  T
   2    -83.7638222 -0.180683E-06  0.256E-03    1.75       6.0  T
   3    -83.7638222 -0.357865E-08  0.116E-03    1.75      13.3  T
   4    -83.7638223 -0.153584E-07  0.223E-04    1.75      69.2  T
   5    -83.7638223 -0.512372E-09  0.568E-05    1.75     271.8  T
   6    -83.7638223 -0.278675E-10  0.856E-06    1.75    1803.0  T
     SCC iter.                  ...        0 min,  0.035 sec
     gradient                   ...        0 min,  0.066 sec
 * total energy  :   -82.9822525 Eh     change       -0.2471800E-04 Eh
   gradient norm :     0.0023864 Eh/α   predicted    -0.2588021E-04 (   4.70%)
   displ. norm   :     0.0296578 α      lambda       -0.1457062E-04
   maximum displ.:     0.0127247 α      in ANC's #6, #12, #7, ...

........................................................................
.............................. CYCLE   17 ..............................
........................................................................
   1    -83.7637351 -0.837637E+02  0.153E-03    1.75       0.0  T
   2    -83.7637352 -0.598394E-07  0.746E-04    1.75      20.7  T
   3    -83.7637352 -0.188284E-08  0.415E-04    1.75      37.2  T
   4    -83.7637352 -0.141810E-09  0.961E-05    1.75     160.6  T
   5    -83.7637352 -0.154770E-09  0.160E-05    1.75     965.3  T
     SCC iter.                  ...        0 min,  0.030 sec
     gradient                   ...        0 min,  0.066 sec
 * total energy  :   -82.9822632 Eh     change       -0.1071350E-04 Eh
   gradient norm :     0.0012000 Eh/α   predicted    -0.7294164E-05 ( -31.92%)
   displ. norm   :     0.0861239 α      lambda       -0.1612814E-04
   maximum displ.:     0.0382000 α      in ANC's #1, #5, #7, ...

........................................................................
.............................. CYCLE   18 ..............................
........................................................................
   1    -83.7636845 -0.837637E+02  0.281E-03    1.75       0.0  T
   2    -83.7636848 -0.299059E-06  0.166E-03    1.75       9.3  T
   3    -83.7636848 -0.249678E-07  0.879E-04    1.75      17.6  T
   4    -83.7636848 -0.776481E-10  0.309E-04    1.75      49.9  T
   5    -83.7636848 -0.102847E-08  0.408E-05    1.75     377.8  T
   6    -83.7636848 -0.384262E-10  0.125E-05    1.75    1232.5  T
     SCC iter.                  ...        0 min,  0.036 sec
     gradient                   ...        0 min,  0.067 sec
 * total energy  :   -82.9822773 Eh     change       -0.1411964E-04 Eh
   gradient norm :     0.0014070 Eh/α   predicted    -0.8092240E-05 ( -42.69%)
   displ. norm   :     0.1254703 α      lambda       -0.1088739E-04
   maximum displ.:     0.0588868 α      in ANC's #5, #1, #3, ...

........................................................................
.............................. CYCLE   19 ..............................
........................................................................
   1    -83.7630645 -0.837631E+02  0.198E-03    1.75       0.0  T
   2    -83.7630647 -0.159803E-06  0.101E-03    1.75      15.3  T
   3    -83.7630647 -0.262107E-07  0.456E-04    1.75      33.8  T
   4    -83.7630647 -0.459053E-09  0.138E-04    1.75     111.9  T
   5    -83.7630647 -0.740670E-10  0.330E-05    1.75     467.1  T
     SCC iter.                  ...        0 min,  0.032 sec
     gradient                   ...        0 min,  0.066 sec
 * total energy  :   -82.9822891 Eh     change       -0.1183202E-04 Eh
   gradient norm :     0.0019798 Eh/α   predicted    -0.5482651E-05 ( -53.66%)
   displ. norm   :     0.1344822 α      lambda       -0.1267060E-04
   maximum displ.:     0.0668831 α      in ANC's #1, #5, #6, ...

........................................................................
.............................. CYCLE   20 ..............................
........................................................................
   1    -83.7631641 -0.837632E+02  0.161E-03    1.75       0.0  T
   2    -83.7631642 -0.879983E-07  0.681E-04    1.75      22.6  T
   3    -83.7631642 -0.920400E-08  0.360E-04    1.75      42.8  T
   4    -83.7631642 -0.832117E-09  0.116E-04    1.75     132.8  T
   5    -83.7631642 -0.678284E-10  0.324E-05    1.75     476.6  T
     SCC iter.                  ...        0 min,  0.031 sec
     gradient                   ...        0 min,  0.065 sec
 * total energy  :   -82.9823021 Eh     change       -0.1291428E-04 Eh
   gradient norm :     0.0016675 Eh/α   predicted    -0.6389386E-05 ( -50.52%)
   displ. norm   :     0.1078194 α      lambda       -0.1309932E-04
   maximum displ.:     0.0609241 α      in ANC's #1, #5, #6, ...
 * RMSD in coord.:     0.3113538 α      energy gain  -0.1900525E-01 Eh

generating ANC from model Hessian ...
Using Lindh-Hessian (1995)
 Shifting diagonal of input Hessian by   9.817213211791654E-003
 Lowest  eigenvalues of input Hessian
    0.000000    0.000000    0.000000    0.000000    0.000000    0.000000
    0.010000    0.010122    0.010698    0.011277    0.011819    0.011980
    0.013008    0.014298    0.015281    0.015521    0.016624    0.017458
 Highest eigenvalues
    2.059924    2.126650    2.251363    2.379363    2.421460    2.430097
 

........................................................................
.............................. CYCLE   21 ..............................
........................................................................
   1    -83.7632742 -0.837633E+02  0.192E-03    1.75       0.0  T
   2    -83.7632743 -0.853446E-07  0.908E-04    1.75      17.0  T
   3    -83.7632743 -0.508113E-08  0.485E-04    1.75      31.8  T
   4    -83.7632743 -0.499540E-09  0.107E-04    1.75     143.9  T
   5    -83.7632743 -0.117936E-09  0.272E-05    1.75     566.4  T
     SCC iter.                  ...        0 min,  0.030 sec
     gradient                   ...        0 min,  0.065 sec
 * total energy  :   -82.9823160 Eh     change       -0.1397362E-04 Eh
   gradient norm :     0.0014239 Eh/α   predicted     0.0000000E+00 (-100.00%)
   displ. norm   :     0.0249483 α      lambda       -0.6614635E-05
   maximum displ.:     0.0110018 α      in ANC's #3, #5, #9, ...

........................................................................
.............................. CYCLE   22 ..............................
........................................................................
   1    -83.7638344 -0.837638E+02  0.116E-03    1.75       0.0  T
   2    -83.7638345 -0.240089E-07  0.570E-04    1.75      27.1  T
   3    -83.7638345 -0.142890E-08  0.304E-04    1.75      50.7  T
   4    -83.7638345 -0.644732E-09  0.730E-05    1.75     211.4  T
   5    -83.7638345 -0.469811E-10  0.158E-05    1.75     975.8  T
     SCC iter.                  ...        0 min,  0.030 sec
     gradient                   ...        0 min,  0.064 sec
 * total energy  :   -82.9823239 Eh     change       -0.7924186E-05 Eh
   gradient norm :     0.0004937 Eh/α   predicted    -0.3428797E-05 ( -56.73%)
   displ. norm   :     0.0738131 α      lambda       -0.1207712E-04
   maximum displ.:     0.0325652 α      in ANC's #3, #5, #9, ...

........................................................................
.............................. CYCLE   23 ..............................
........................................................................
   1    -83.7640559 -0.837641E+02  0.142E-03    1.75       0.0  T
   2    -83.7640560 -0.687587E-07  0.695E-04    1.75      22.2  T
   3    -83.7640560 -0.722221E-08  0.356E-04    1.75      43.4  T
   4    -83.7640560 -0.380652E-09  0.110E-04    1.75     140.8  T
   5    -83.7640560 -0.704432E-10  0.267E-05    1.75     578.2  T
     SCC iter.                  ...        0 min,  0.030 sec
     gradient                   ...        0 min,  0.066 sec
 * total energy  :   -82.9823368 Eh     change       -0.1289639E-04 Eh
   gradient norm :     0.0013056 Eh/α   predicted    -0.6054201E-05 ( -53.06%)
   displ. norm   :     0.0888747 α      lambda       -0.9126067E-05
   maximum displ.:     0.0407248 α      in ANC's #5, #3, #1, ...

........................................................................
.............................. CYCLE   24 ..............................
........................................................................
   1    -83.7638372 -0.837638E+02  0.156E-03    1.75       0.0  T
   2    -83.7638373 -0.802342E-07  0.660E-04    1.75      23.4  T
   3    -83.7638373 -0.123351E-07  0.271E-04    1.75      56.9  T
   4    -83.7638373 -0.300901E-09  0.784E-05    1.75     196.9  T
   5    -83.7638373 -0.380993E-10  0.213E-05    1.75     725.9  T
     SCC iter.                  ...        0 min,  0.030 sec
     gradient                   ...        0 min,  0.066 sec
 * total energy  :   -82.9823456 Eh     change       -0.8770394E-05 Eh
   gradient norm :     0.0011175 Eh/α   predicted    -0.4579445E-05 ( -47.79%)
   displ. norm   :     0.0658562 α      lambda       -0.5310162E-05
   maximum displ.:     0.0328900 α      in ANC's #5, #3, #1, ...

........................................................................
.............................. CYCLE   25 ..............................
........................................................................
   1    -83.7637134 -0.837637E+02  0.110E-03    1.75       0.0  T
   2    -83.7637135 -0.357693E-07  0.435E-04    1.75      35.5  T
   3    -83.7637135 -0.435975E-08  0.206E-04    1.75      74.9  T
   4    -83.7637135 -0.162089E-09  0.526E-05    1.75     293.4  T
   5    -83.7637135 -0.273275E-10  0.157E-05    1.75     981.6  T
     SCC iter.                  ...        0 min,  0.030 sec
     gradient                   ...        0 min,  0.065 sec
 * total energy  :   -82.9823511 Eh     change       -0.5470450E-05 Eh
   gradient norm :     0.0005923 Eh/α   predicted    -0.2661018E-05 ( -51.36%)
   displ. norm   :     0.0772061 α      lambda       -0.5975963E-05
   maximum displ.:     0.0374036 α      in ANC's #5, #6, #1, ...

........................................................................
.............................. CYCLE   26 ..............................
........................................................................
   1    -83.7635664 -0.837636E+02  0.148E-03    1.75       0.0  T
   2    -83.7635665 -0.616643E-07  0.572E-04    1.75      27.0  T
   3    -83.7635665 -0.830963E-08  0.285E-04    1.75      54.1  T
   4    -83.7635665 -0.249756E-09  0.681E-05    1.75     226.6  T
   5    -83.7635665 -0.437552E-10  0.189E-05    1.75     814.6  T
     SCC iter.                  ...        0 min,  0.030 sec
     gradient                   ...        0 min,  0.066 sec
 * total energy  :   -82.9823570 Eh     change       -0.5874770E-05 Eh
   gradient norm :     0.0008815 Eh/α   predicted    -0.3002845E-05 ( -48.89%)
   displ. norm   :     0.0748176 α      lambda        0.8132357E-06
   maximum displ.:     0.0362392 α      in ANC's #5, #6, #1, ...

........................................................................
.............................. CYCLE   27 ..............................
........................................................................
   1    -83.7632718 -0.837633E+02  0.150E-03    1.76       0.0  T
   2    -83.7632719 -0.613282E-07  0.578E-04    1.76      26.7  T
   3    -83.7632719 -0.785836E-08  0.296E-04    1.76      52.2  T
   4    -83.7632719 -0.270262E-09  0.704E-05    1.76     219.3  T
   5    -83.7632719 -0.445368E-10  0.194E-05    1.76     794.3  T
     SCC iter.                  ...        0 min,  0.029 sec
     gradient                   ...        0 min,  0.063 sec
 * total energy  :   -82.9823562 Eh     change        0.7635941E-06 Eh
   gradient norm :     0.0019939 Eh/α   predicted     0.4061448E-06 ( -46.81%)
   displ. norm   :     0.0247076 α      lambda       -0.5604020E-05
   maximum displ.:     0.0099767 α      in ANC's #3, #9, #8, ...

........................................................................
.............................. CYCLE   28 ..............................
........................................................................
   1    -83.7636695 -0.837637E+02  0.115E-03    1.76       0.0  T
   2    -83.7636695 -0.321000E-07  0.457E-04    1.76      33.8  T
   3    -83.7636695 -0.391267E-08  0.251E-04    1.76      61.5  T
   4    -83.7636695 -0.237847E-09  0.580E-05    1.76     266.0  T
   5    -83.7636695 -0.278391E-10  0.130E-05    1.76    1189.9  T
     SCC iter.                  ...        0 min,  0.029 sec
     gradient                   ...        0 min,  0.063 sec
 * total energy  :   -82.9823613 Eh     change       -0.5140194E-05 Eh
   gradient norm :     0.0009807 Eh/α   predicted    -0.2808112E-05 ( -45.37%)
   displ. norm   :     0.0198681 α      lambda       -0.2453320E-05
   maximum displ.:     0.0122023 α      in ANC's #6, #1, #9, ...

........................................................................
.............................. CYCLE   29 ..............................
........................................................................
   1    -83.7639308 -0.837639E+02  0.838E-04    1.75       0.0  T
   2    -83.7639308 -0.193159E-07  0.348E-04    1.75      44.4  T
   3    -83.7639308 -0.112286E-08  0.192E-04    1.75      80.3  T
   4    -83.7639308 -0.725464E-10  0.490E-05    1.75     315.1  T
     SCC iter.                  ...        0 min,  0.023 sec
     gradient                   ...        0 min,  0.063 sec
 * total energy  :   -82.9823638 Eh     change       -0.2476158E-05 Eh
   gradient norm :     0.0002998 Eh/α   predicted    -0.1237815E-05 ( -50.01%)
   displ. norm   :     0.0431372 α      lambda       -0.1929302E-05
   maximum displ.:     0.0256705 α      in ANC's #6, #1, #5, ...

   *** GEOMETRY OPTIMIZATION CONVERGED AFTER 29 ITERATIONS ***

------------------------------------------------------------------------
 total energy gain   :        -0.0190670 Eh      -11.9647 kcal/mol
 total RMSD          :         0.3291842 a0        0.1742 Å
 total power (kW/mol):        -1.7262223 (step)  -13.8995 (real)
------------------------------------------------------------------------

 ANCopt (total)                0 d,  0 h,  0 min,  3.602 sec
 optimizer setup                ...        0 min,  0.001 sec (  0.020%)
 model hessian                  ...        0 min,  0.064 sec (  1.777%)
 ANC generation                 ...        0 min,  0.005 sec (  0.145%)
 coordinate transformation      ...        0 min,  0.001 sec (  0.020%)
 single point calculation       ...        0 min,  3.519 sec ( 97.700%)
 optimization log               ...        0 min,  0.006 sec (  0.173%)
 hessian update                 ...        0 min,  0.001 sec (  0.018%)
 rational function              ...        0 min,  0.003 sec (  0.088%)

================
 final structure:
================
42
 xtb: 6.5.1 (579679a)
C           -5.66933786690399        2.24782931235446        0.31547325684532
O           -4.44280019091749        1.50598263721857        0.26739572768784
C           -4.51902035794860        0.21237646400220        0.53537838481599
O           -5.53278025140138       -0.37091943122764        0.81809667329093
C           -3.15975270872392       -0.45258517234251        0.43038245300787
C           -2.86864540833970       -1.64680924500267        1.27542215358126
O           -3.47838525061205       -1.92217754300790        2.27618946692850
C           -1.69736556912655       -2.49091414743733        0.76912737072262
O           -1.53843678385199       -3.65381040917389        1.07985392664173
N           -0.86133367828045       -1.83113043767542       -0.05954757622986
C           -1.00969458846723       -0.47991471809165       -0.56904938674795
C           -0.75639174334868       -0.52039396610161       -2.08163030111441
C           -0.02899255805844        0.49052973361975        0.18409340338574
C           -0.31497099959892        0.47054209767005        1.68856738524492
C           -0.16088814574791        1.91009988244194       -0.37464346923143
N            1.32367592656494       -0.01708492639300       -0.04912453841537
C            2.43711074516063        0.60922797132522        0.39770993636534
O            2.46548374401355        1.67297710398252        0.98776671731568
C            3.64820684388904       -0.18132538460318        0.06442408330687
N            3.66703400012910       -1.33778613232968       -0.52853818455657
N            4.97327243706792       -1.70862844128276       -0.62425570595400
C            5.66979686401558       -0.75395351374847       -0.08378295917696
C            7.14037803423506       -0.67737723780233        0.05737773583549
O            4.88910738514218        0.23770899891531        0.36978279391139
N           -2.31768713566492        0.05302011436711       -0.38180854734226
H           -6.11720876010006        2.16265738301652        1.30788618448731
H           -5.41221371408024        3.28229826201077        0.10071074465146
H           -6.36431847023882        1.86267217518994       -0.43351157431070
H           -0.10166910497007       -2.37351625440725       -0.43789064058413
H           -1.38094163803260       -1.29461379625306       -2.52285340643909
H            0.28679279178604       -0.74281010247697       -2.29107225239739
H           -1.01922022014328        0.43721381026338       -2.52443378745218
H           -0.22783020202890       -0.54207741904043        2.07943265760561
H            0.40651896788052        1.10642726995907        2.19884467066140
H           -1.31551913174320        0.85065601351442        1.88726457773822
H            0.24252294498889        1.96398688769066       -1.38364850761370
H            0.38829519288995        2.60784441102219        0.25529487689379
H           -1.21035013886960        2.19935169164304       -0.39166528686335
H            1.44388788764492       -0.92986322910811       -0.45866168036709
H            7.58509311760611       -1.62859429230425       -0.22468435450858
H            7.53509921284652        0.10930030334083       -0.58606922728677
H            7.40347452133957       -0.43641872373828        1.08668620566721
 
 Bond Distances (Angstroems)
 ---------------------------
C1-O2=1.4342         C1-H26=1.0921        C1-H27=1.0874        C1-H28=1.0919        O2-C1=1.4342         O2-C3=1.3233         
C3-O2=1.3233         C3-O4=1.2033         C3-C5=1.5168         O4-C3=1.2033         C5-C3=1.5168         C5-C6=1.4916         
C5-N25=1.2745        C6-C5=1.4916         C6-O7=1.2038         C6-C8=1.5299         O7-C6=1.2038         C8-C6=1.5299         
C8-O9=1.2141         C8-N10=1.3494        O9-C8=1.2141         N10-C8=1.3494        N10-C11=1.4517       N10-H29=1.0072       
C11-N10=1.4517       C11-C12=1.5342       C11-C13=1.5719       C11-N25=1.4248       C12-C11=1.5342       C12-H30=1.0882       
C12-H31=1.0870       C12-H32=1.0873       C13-C11=1.5719       C13-C14=1.5315       C13-C15=1.5313       C13-N16=1.4635       
C14-C13=1.5315       C14-H33=1.0889       C14-H34=1.0887       C14-H35=1.0886       C15-C13=1.5313       C15-H36=1.0880       
C15-H37=1.0887       C15-H38=1.0887       N16-C13=1.4635       N16-C17=1.3534       N16-H39=1.0076       C17-N16=1.3534       
C17-O18=1.2168       C17-C19=1.4842       O18-C17=1.2168       C19-C17=1.4842       C19-N20=1.2998       C19-O24=1.3449       
N20-C19=1.2998       N20-N21=1.3612       N21-N20=1.3612       N21-C22=1.2995       C22-N21=1.2995       C22-C23=1.4793       
C22-O24=1.3411       C23-C22=1.4793       C23-H40=1.0873       C23-H41=1.0903       C23-H42=1.0894       O24-C19=1.3449       
O24-C22=1.3411       N25-C5=1.2745        N25-C11=1.4248       H26-C1=1.0921        H27-C1=1.0874        H28-C1=1.0919        
H29-N10=1.0072       H30-C12=1.0882       H31-C12=1.0870       H32-C12=1.0873       H33-C14=1.0889       H34-C14=1.0887       
H35-C14=1.0886       H36-C15=1.0880       H37-C15=1.0887       H38-C15=1.0887       H39-N16=1.0076       H40-C23=1.0873       
H41-C23=1.0903       H42-C23=1.0894       
 C  H  Rav=1.0888 sigma=0.0015  Rmin=1.0870  Rmax=1.0921    15
 C  C  Rav=1.5190 sigma=0.0279  Rmin=1.4793  Rmax=1.5719     9
 N  H  Rav=1.0074 sigma=0.0002  Rmin=1.0072  Rmax=1.0076     2
 N  C  Rav=1.3646 sigma=0.0688  Rmin=1.2745  Rmax=1.4635     8
 N  N  Rav=1.3612 sigma=0.0000  Rmin=1.3612  Rmax=1.3612     1
 O  C  Rav=1.2852 sigma=0.0817  Rmin=1.2033  Rmax=1.4342     8
 
 selected bond angles (degree)
 --------------------
H26-C1-O2=109.93               H27-C1-O2=106.45               H27-C1-H26=110.53              H28-C1-O2=109.81               
H28-C1-H26=109.56              H28-C1-H27=110.52              C3-O2-C1=116.72                O4-C3-O2=124.75                
C5-C3-O2=111.28                C5-C3-O4=123.97                C6-C5-C3=119.12                N25-C5-C3=117.53               
N25-C5-C6=123.35               O7-C6-C5=123.73                C8-C6-C5=113.81                C8-C6-O7=122.46                
O9-C8-C6=122.95                N10-C8-C6=114.06               N10-C8-O9=122.98               C11-N10-C8=127.40              
H29-N10-C8=115.76              H29-N10-C11=116.52             
 
 selected dihedral angles (degree)
 ---------------------------------
C3-O2-C1-H26= 58.63           C3-O2-C1-H27=178.37           C3-O2-C1-H28=298.03           O4-C3-O2-C1=359.64            
C5-C3-O2-C1=179.19            C6-C5-C3-O2=150.65            C6-C5-C3-O4=330.20            N25-C5-C3-O2=331.00           
N25-C5-C3-O4=150.55           O7-C6-C5-C3=339.69            O7-C6-C5-N25=159.31           C8-C6-C5-C3=160.71            
C8-C6-C5-N25=340.33           O9-C8-C6-C5=200.78            O9-C8-C6-O7= 21.78            N10-C8-C6-C5= 20.40           
N10-C8-C6-O7=201.40           C11-N10-C8-C6=355.59          C11-N10-C8-O9=175.21          H29-N10-C8-C6=182.38          
H29-N10-C8-O9=  2.00          
           -------------------------------------------------
          |                Final Singlepoint                |
           -------------------------------------------------

          ...................................................
          :                      SETUP                      :
          :.................................................:
          :  # basis functions                 134          :
          :  # atomic orbitals                 134          :
          :  # shells                           84          :
          :  # electrons                       134          :
          :  # halogen bonds                     0          :
          :  max. iterations                   250          :
          :  Hamiltonian                  GFN1-xTB          :
          :  restarted?                      false          :
          :  GBSA solvation                   true          :
          :  PC potential                    false          :
          :  electronic temp.          300.0000000     K    :
          :  accuracy                    1.0000000          :
          :  -> integral cutoff          0.2500000E+02      :
          :  -> integral neglect         0.1000000E-07      :
          :  -> SCF convergence          0.1000000E-05 Eh   :
          :  -> wf. convergence          0.2000000E-04 e    :
          :  Broyden damping             0.4000000          :
          ...................................................

 iter      E             dE          RMSdq      gap      omega  full diag
   1    -83.7639308 -0.837639E+02  0.912E-06    1.75       0.0  T
   2    -83.7639308 -0.125056E-11  0.412E-06    1.75    3741.2  T
   3    -83.7639308  0.241585E-12  0.187E-06    1.75    8234.6  T

   *** convergence criteria satisfied after 3 iterations ***

         #    Occupation            Energy/Eh            Energy/eV
      -------------------------------------------------------------
         1        2.0000           -0.8655134             -23.5518
       ...           ...                  ...                  ...
        61        2.0000           -0.4813499             -13.0982
        62        2.0000           -0.4726581             -12.8617
        63        2.0000           -0.4648640             -12.6496
        64        2.0000           -0.4621630             -12.5761
        65        2.0000           -0.4543051             -12.3623
        66        2.0000           -0.4505371             -12.2597
        67        2.0000           -0.4389271             -11.9438 (HOMO)
        68                         -0.3744379             -10.1890 (LUMO)
        69                         -0.3185279              -8.6676
        70                         -0.3139735              -8.5437
        71                         -0.2583913              -7.0312
        72                         -0.2542253              -6.9178
       ...                                ...                  ...
       134                          0.7657651              20.8375
      -------------------------------------------------------------
                  HL-Gap            0.0644892 Eh            1.7548 eV
             Fermi-level           -0.4066825 Eh          -11.0664 eV

 SCC (total)                   0 d,  0 h,  0 min,  0.116 sec
 SCC setup                      ...        0 min,  0.002 sec (  1.529%)
 Dispersion                     ...        0 min,  0.000 sec (  0.245%)
 classical contributions        ...        0 min,  0.000 sec (  0.080%)
 integral evaluation            ...        0 min,  0.027 sec ( 23.711%)
 iterations                     ...        0 min,  0.018 sec ( 15.836%)
 molecular gradient             ...        0 min,  0.066 sec ( 57.399%)
 printout                       ...        0 min,  0.001 sec (  1.172%)

         :::::::::::::::::::::::::::::::::::::::::::::::::::::
         ::                     SUMMARY                     ::
         :::::::::::::::::::::::::::::::::::::::::::::::::::::
         :: total energy             -82.982363813361 Eh    ::
         :: total w/o Gsasa/hb       -82.962880778806 Eh    ::
         :: gradient norm              0.000302775252 Eh/a0 ::
         :: HOMO-LUMO gap              1.754840633389 eV    ::
         ::.................................................::
         :: SCC energy               -83.763930794553 Eh    ::
         :: -> electrostatic           0.360145324243 Eh    ::
         :: -> Gsolv                  -0.056840770494 Eh    ::
         ::    -> Gelec               -0.037357735939 Eh    ::
         ::    -> Gsasa               -0.023356910038 Eh    ::
         ::    -> Ghb                 -0.003750403522 Eh    ::
         ::    -> Gshift               0.007624279005 Eh    ::
         :: repulsion energy           0.809184897070 Eh    ::
         :: dispersion energy         -0.027617915877 Eh    ::
         :: halogen bond corr.         0.000000000000 Eh    ::
         :: add. restraining           0.000000000000 Eh    ::
         :: total charge              -0.000000000000 e     ::
         :::::::::::::::::::::::::::::::::::::::::::::::::::::

           -------------------------------------------------
          |                Property Printout                |
           -------------------------------------------------

    * Orbital Energies and Occupations

         #    Occupation            Energy/Eh            Energy/eV
      -------------------------------------------------------------
         1        2.0000           -0.8655134             -23.5518
       ...           ...                  ...                  ...
        55        2.0000           -0.5080792             -13.8255
        56        2.0000           -0.5077097             -13.8155
        57        2.0000           -0.5063801             -13.7793
        58        2.0000           -0.5036272             -13.7044
        59        2.0000           -0.4981584             -13.5556
        60        2.0000           -0.4849158             -13.1952
        61        2.0000           -0.4813499             -13.0982
        62        2.0000           -0.4726581             -12.8617
        63        2.0000           -0.4648640             -12.6496
        64        2.0000           -0.4621630             -12.5761
        65        2.0000           -0.4543051             -12.3623
        66        2.0000           -0.4505371             -12.2597
        67        2.0000           -0.4389271             -11.9438 (HOMO)
        68                         -0.3744379             -10.1890 (LUMO)
        69                         -0.3185279              -8.6676
        70                         -0.3139735              -8.5437
        71                         -0.2583913              -7.0312
        72                         -0.2542253              -6.9178
        73                         -0.2056816              -5.5969
        74                         -0.2017895              -5.4910
        75                         -0.1459646              -3.9719
        76                         -0.1436164              -3.9080
        77                         -0.1425665              -3.8794
        78                         -0.1344436              -3.6584
       ...                                ...                  ...
       134                          0.7657651              20.8375
      -------------------------------------------------------------
                  HL-Gap            0.0644892 Eh            1.7548 eV
             Fermi-level           -0.4066825 Eh          -11.0664 eV

  Mulliken/CM5 charges         n(s)   n(p)   n(d)
     1C     0.16064  0.03951   0.984  2.855  0.000
     2O    -0.40164 -0.48484   1.684  4.718  0.000
     3C     0.58713  0.65556   0.965  2.448  0.000
     4O    -0.53511 -0.58051   1.721  4.814  0.000
     5C     0.12802  0.22303   1.076  2.796  0.000
     6C     0.36703  0.41554   1.068  2.565  0.000
     7O    -0.46257 -0.50448   1.728  4.734  0.000
     8C     0.45936  0.56630   0.990  2.550  0.000
     9O    -0.55062 -0.58969   1.724  4.826  0.000
    10N    -0.35002 -0.70391   1.437  3.913  0.000
    11C     0.24876  0.35266   1.050  2.701  0.000
    12C    -0.10403 -0.23890   1.024  3.080  0.000
    13C     0.16219  0.20226   1.076  2.762  0.000
    14C    -0.11233 -0.24998   1.020  3.092  0.000
    15C    -0.10568 -0.24531   1.019  3.087  0.000
    16N    -0.35101 -0.70859   1.430  3.921  0.000
    17C     0.47355  0.58145   0.975  2.551  0.000
    18O    -0.56415 -0.61067   1.725  4.840  0.000
    19C     0.33309  0.45861   1.006  2.661  0.000
    20N    -0.23987 -0.35134   1.567  3.673  0.000
    21N    -0.26030 -0.36764   1.564  3.697  0.000
    22C     0.38944  0.49773   1.008  2.602  0.000
    23C    -0.11127 -0.24867   1.012  3.099  0.000
    24O    -0.33702 -0.38864   1.691  4.646  0.000
    25N    -0.28037 -0.47701   1.550  3.730  0.000
    26H     0.06054  0.12227   0.939  0.000  0.000
    27H     0.06146  0.12185   0.939  0.000  0.000
    28H     0.05931  0.12078   0.941  0.000  0.000
    29H     0.28322  0.48645   0.717  0.000  0.000
    30H     0.06667  0.12542   0.933  0.000  0.000
    31H     0.06070  0.12041   0.939  0.000  0.000
    32H     0.06501  0.12325   0.935  0.000  0.000
    33H     0.04463  0.10654   0.955  0.000  0.000
    34H     0.07021  0.13079   0.930  0.000  0.000
    35H     0.04524  0.10492   0.955  0.000  0.000
    36H     0.04840  0.10618   0.952  0.000  0.000
    37H     0.06593  0.12623   0.934  0.000  0.000
    38H     0.04655  0.10674   0.953  0.000  0.000
    39H     0.24915  0.46110   0.751  0.000  0.000
    40H     0.07054  0.12632   0.929  0.000  0.000
    41H     0.08046  0.13474   0.920  0.000  0.000
    42H     0.07877  0.13352   0.921  0.000  0.000

Wiberg/Mayer (AO) data.
largest (>0.10) Wiberg bond orders for each atom

 ---------------------------------------------------------------------------
     #   Z sym  total        # sym  WBO       # sym  WBO       # sym  WBO
 ---------------------------------------------------------------------------
     1   6 C    3.859 --    27 H    0.985    28 H    0.979    26 H    0.979
                             2 O    0.885
     2   8 O    2.221 --     3 C    1.141     1 C    0.885     4 O    0.146
     3   6 C    3.853 --     4 O    1.692     2 O    1.141     5 C    0.944
     4   8 O    1.949 --     3 C    1.692     2 O    0.146
     5   6 C    3.953 --    25 N    1.788     6 C    0.992     3 C    0.944
     6   6 C    3.857 --     7 O    1.804     5 C    0.992     8 C    0.908
     7   8 O    2.011 --     6 C    1.804
     8   6 C    3.903 --     9 O    1.633    10 N    1.247     6 C    0.908
     9   8 O    1.926 --     8 C    1.633    10 N    0.185
    10   7 N    3.362 --     8 C    1.247    11 C    0.937    29 H    0.885
                             9 O    0.185
    11   6 C    3.914 --    25 N    1.010    12 C    0.968    10 N    0.937
                            13 C    0.901
    12   6 C    3.979 --    30 H    0.982    31 H    0.981    32 H    0.981
                            11 C    0.968
    13   6 C    3.927 --    15 C    0.996    14 C    0.995    16 N    0.930
                            11 C    0.901
    14   6 C    3.990 --    13 C    0.995    35 H    0.984    33 H    0.983
                            34 H    0.975
    15   6 C    3.988 --    13 C    0.996    36 H    0.983    38 H    0.983
                            37 H    0.976
    16   7 N    3.334 --    17 C    1.238    13 C    0.930    39 H    0.894
                            18 O    0.175
    17   6 C    3.914 --    18 O    1.601    16 N    1.238    19 C    0.991
    18   8 O    1.918 --    17 C    1.601    16 N    0.175
    19   6 C    3.876 --    20 N    1.607    24 O    1.065    17 C    0.991
    20   7 N    3.020 --    19 C    1.607    21 N    1.203
    21   7 N    2.981 --    22 C    1.602    20 N    1.203
    22   6 C    3.870 --    21 N    1.602    24 O    1.083    23 C    1.032
    23   6 C    3.986 --    22 C    1.032    40 H    0.982    42 H    0.967
                            41 H    0.960
    24   8 O    2.332 --    22 C    1.083    19 C    1.065
    25   7 N    3.052 --     5 C    1.788    11 C    1.010
    26   1 H    1.004 --     1 C    0.979
    27   1 H    1.009 --     1 C    0.985
    28   1 H    1.004 --     1 C    0.979
    29   1 H    0.924 --    10 N    0.885
    30   1 H    0.999 --    12 C    0.982
    31   1 H    0.997 --    12 C    0.981
    32   1 H    1.003 --    12 C    0.981
    33   1 H    1.003 --    14 C    0.983
    34   1 H    1.006 --    14 C    0.975
    35   1 H    1.001 --    14 C    0.984
    36   1 H    1.001 --    15 C    0.983
    37   1 H    1.009 --    15 C    0.976
    38   1 H    1.009 --    15 C    0.983
    39   1 H    0.954 --    16 N    0.894
    40   1 H    0.998 --    23 C    0.982
    41   1 H    0.996 --    23 C    0.960
    42   1 H    0.996 --    23 C    0.967
 ---------------------------------------------------------------------------

Topologies differ in total number of bonds
Writing topology from bond orders to xtbtopo.mol

 dipole moment from electron density (au)
     X       Y       Z   
   2.5267   2.1269  -2.7527  total (Debye):   10.928

           -------------------------------------------------
          |                Geometry Summary                 |
           -------------------------------------------------

      molecular mass/u    :      351.3152409
   center of mass at/Å    :       -0.1152661      -0.3266576       0.2810648
  moments of inertia/u·Å² :        0.9741713E+03   0.4855849E+04   0.5337333E+04
rotational constants/cm⁻¹ :        0.1730459E-01   0.3471614E-02   0.3158437E-02

 * 37 selected distances

     #   Z          #   Z                                           value/Å
     1   6 C        2   8 O                                       1.4342395
     2   8 O        3   6 C                                       1.3232692
     3   6 C        4   8 O                                       1.2032760
     6   6 C        7   8 O                                       1.2038047
     8   6 C        9   8 O                                       1.2141406
     8   6 C       10   7 N                                       1.3494319
    10   7 N       11   6 C                                       1.4516843
    11   6 C       12   6 C                                       1.5341781 (max)
    13   6 C       14   6 C                                       1.5315435
    13   6 C       15   6 C                                       1.5312620
    13   6 C       16   7 N                                       1.4634807
    16   7 N       17   6 C                                       1.3533907
    17   6 C       18   8 O                                       1.2167722
    19   6 C       20   7 N                                       1.2997540
    21   7 N       22   6 C                                       1.2994851
    22   6 C       23   6 C                                       1.4793241
    19   6 C       24   8 O                                       1.3448674
    22   6 C       24   8 O                                       1.3411163
     5   6 C       25   7 N                                       1.2745060
    11   6 C       25   7 N                                       1.4247539
     1   6 C       26   1 H                                       1.0921201
     1   6 C       27   1 H                                       1.0873647
     1   6 C       28   1 H                                       1.0919352
    10   7 N       29   1 H                                       1.0071824 (min)
    12   6 C       30   1 H                                       1.0881898
    12   6 C       31   1 H                                       1.0870000
    12   6 C       32   1 H                                       1.0872749
    14   6 C       33   1 H                                       1.0889296
    14   6 C       34   1 H                                       1.0887060
    14   6 C       35   1 H                                       1.0886064
    15   6 C       36   1 H                                       1.0879962
    15   6 C       37   1 H                                       1.0887021
    15   6 C       38   1 H                                       1.0887273
    16   7 N       39   1 H                                       1.0076388
    23   6 C       40   1 H                                       1.0872647
    23   6 C       41   1 H                                       1.0902709
    23   6 C       42   1 H                                       1.0893837

 * 5 distinct bonds (by element types)

   Z      Z             #   av. dist./Å        max./Å        min./Å
   1 H    6 C          15     1.0888314     1.0921201     1.0870000
   6 C    6 C           4     1.5190769     1.5341781     1.4793241
   1 H    7 N           2     1.0074106     1.0076388     1.0071824
   6 C    7 N           8     1.3645608     1.4634807     1.2745060
   6 C    8 O           8     1.2851857     1.4342395     1.2032760


optimized geometry written to: xtbopt.xyz


           -------------------------------------------------
          | TOTAL ENERGY              -82.982363813361 Eh   |
          | GRADIENT NORM               0.000302775252 Eh/α |
          | HOMO-LUMO GAP               1.754840633389 eV   |
           -------------------------------------------------

------------------------------------------------------------------------
 * finished run on 2023/06/21 at 17:25:26.628     
------------------------------------------------------------------------
 total:
 * wall-time:     0 d,  0 h,  0 min,  3.962 sec
 *  cpu-time:     0 d,  0 h,  0 min,  3.897 sec
 * ratio c/w:     0.984 speedup
 SCF:
 * wall-time:     0 d,  0 h,  0 min,  0.139 sec
 *  cpu-time:     0 d,  0 h,  0 min,  0.139 sec
 * ratio c/w:     0.998 speedup
 ANC optimizer:
 * wall-time:     0 d,  0 h,  0 min,  3.724 sec
 *  cpu-time:     0 d,  0 h,  0 min,  3.716 sec
 * ratio c/w:     0.998 speedup

