      -----------------------------------------------------------      
     |                   =====================                   |     
     |                           x T B                           |     
     |                   =====================                   |     
     |                         S. Grimme                         |     
     |          Mulliken Center for Theoretical Chemistry        |     
     |                    University of Bonn                     |     
      -----------------------------------------------------------      

   * xtb version 6.5.1 (579679a) compiled by 'ehlert@majestix' on 2022-07-11

   xtb is free software: you can redistribute it and/or modify it under
   the terms of the GNU Lesser General Public License as published by
   the Free Software Foundation, either version 3 of the License, or
   (at your option) any later version.
   
   xtb is distributed in the hope that it will be useful,
   but WITHOUT ANY WARRANTY; without even the implied warranty of
   MERCHANTABILITY or FITNESS FOR A PARTICULAR PURPOSE.  See the
   GNU Lesser General Public License for more details.
   
   Cite this work as:
   * C. Bannwarth, E. Caldeweyher, S. Ehlert, A. Hansen, P. Pracht,
     J. Seibert, S. Spicher, S. Grimme, WIREs Comput. Mol. Sci., 2020, 11,
     e01493. DOI: 10.1002/wcms.1493
   
   for GFN2-xTB:
   * C. Bannwarth, S. Ehlert and S. Grimme., J. Chem. Theory Comput., 2019,
     15, 1652-1671. DOI: 10.1021/acs.jctc.8b01176
   for GFN1-xTB:
   * S. Grimme, C. Bannwarth, P. Shushkov, J. Chem. Theory Comput., 2017,
     13, 1989-2009. DOI: 10.1021/acs.jctc.7b00118
   for GFN0-xTB:
   * P. Pracht, E. Caldeweyher, S. Ehlert, S. Grimme, ChemRxiv, 2019, preprint.
     DOI: 10.26434/chemrxiv.8326202.v1
   for GFN-FF:
   * S. Spicher and S. Grimme, Angew. Chem. Int. Ed., 2020, 59, 15665-15673.
     DOI: 10.1002/anie.202004239
   
   for ALPB and GBSA implicit solvation:
   * S. Ehlert, M. Stahn, S. Spicher, S. Grimme, J. Chem. Theory Comput.,
     2021, 17, 4250-4261. DOI: 10.1021/acs.jctc.1c00471
   
   for DFT-D4:
   * E. Caldeweyher, C. Bannwarth and S. Grimme, J. Chem. Phys., 2017,
     147, 034112. DOI: 10.1063/1.4993215
   * E. Caldeweyher, S. Ehlert, A. Hansen, H. Neugebauer, S. Spicher,
     C. Bannwarth and S. Grimme, J. Chem. Phys., 2019, 150, 154122.
     DOI: 10.1063/1.5090222
   * E. Caldeweyher, J.-M. Mewes, S. Ehlert and S. Grimme, Phys. Chem. Chem. Phys.
     2020, 22, 8499-8512. DOI: 10.1039/D0CP00502A
   
   for sTDA-xTB:
   * S. Grimme and C. Bannwarth, J. Chem. Phys., 2016, 145, 054103.
     DOI: 10.1063/1.4959605
   
   in the mass-spec context:
   * V. Asgeirsson, C. Bauer and S. Grimme, Chem. Sci., 2017, 8, 4879.
     DOI: 10.1039/c7sc00601b
   * J. Koopman and S. Grimme, ACS Omega 2019, 4, 12, 15120-15133.
     DOI: 10.1021/acsomega.9b02011
   
   for metadynamics refer to:
   * S. Grimme, J. Chem. Theory Comput., 2019, 155, 2847-2862
     DOI: 10.1021/acs.jctc.9b00143
   
   for SPH calculations refer to:
   * S. Spicher and S. Grimme, J. Chem. Theory Comput., 2021, 17, 1701-1714
     DOI: 10.1021/acs.jctc.0c01306
   
   with help from (in alphabetical order)
   P. Atkinson, C. Bannwarth, F. Bohle, G. Brandenburg, E. Caldeweyher
   M. Checinski, S. Dohm, S. Ehlert, S. Ehrlich, I. Gerasimov, C. Hölzer
   A. Katbashev, J. Koopman, C. Lavigne, S. Lehtola, F. März, M. Müller,
   F. Musil, H. Neugebauer, J. Pisarek, C. Plett, P. Pracht, F. Pultar,
   J. Seibert, P. Shushkov, S. Spicher, M. Stahn, M. Steiner, T. Strunk,
   J. Stückrath, T. Rose, and J. Unsleber
   
 * started run on 2023/06/20 at 18:17:58.009     

           -------------------------------------------------
          |                Calculation Setup                |
           -------------------------------------------------

          program call               : /lustre/hpc/kemi/ree/PhD/git/ReactivityQM/dep/xtb-6.5.1/bin/xtb --gfn 1 /lustre/hpc/kemi/ree/PhD/git/ReactivityQM/calculations/R02deprot/reac01prodN11/conf20/R02deprot_reac01prodN11_conf20_gfn1.xyz --opt --vfukui --chrg 0 --uhf 0 --alpb DMSO
          hostname                   : node308
          coordinate file            : /lustre/hpc/kemi/ree/PhD/git/ReactivityQM/calculations/R02deprot/reac01prodN11/conf20/R02deprot_reac01prodN11_conf20_gfn1.xyz
          omp threads                :                     1

   ID    Z sym.   atoms
    1    6 C      1, 3, 5, 6, 8, 11-15, 17, 19, 22, 23
    2    8 O      2, 4, 7, 9, 18, 24
    3    7 N      10, 16, 20, 21, 25
    4    1 H      26-42

           -------------------------------------------------
          |                 G F N 1 - x T B                 |
           -------------------------------------------------

        Reference                      10.1021/acs.jctc.7b00118
      * Hamiltonian:
        H0-scaling (s, p, d)           1.850000    2.250000    2.000000
        zeta-weighting                 0.000000
      * Dispersion:
        s8                             2.400000
        a1                             0.630000
        a2                             5.000000
        s9                             0.000000
      * Repulsion:
        kExp                           1.500000
        rExp                           1.000000
      * Coulomb:
        alpha                          2.000000
        third order                    atomic
        anisotropic                    false
      * Halogen bond correction:
        rad-scale                      1.300000
        damping                        0.440000

      * Solvation model:               ALPB
        Solvent                        DMSO
        Parameter file                 internal GFN1-xTB/ALPB
        Dielectric constant                4.6680E+01
        Reference state                gsolv [1 M gas/solution]
        Free energy shift                  7.6243E-03 Eh       4.7843E+00 kcal/mol
        Temperature                        2.9815E+02 K
        Density                            1.1000E+00 kg/L
        Solvent mass                       7.8130E+01 g/mol
        Interaction kernel             P16
        Born radius scaling (c1)           1.7672E+00
        Born radii integrator          GBOBC
        Born offset                        0.0000E+00 a0       0.0000E+00 AA
        H-bond correction              true
        Ion screening                  false
        Surface tension                    1.0000E-05 Eh       1.5569E+01 dyn/cm
        Grid points                               230 per atom

          ...................................................
          :                      SETUP                      :
          :.................................................:
          :  # basis functions                 134          :
          :  # atomic orbitals                 134          :
          :  # shells                           84          :
          :  # electrons                       134          :
          :  # halogen bonds                     0          :
          :  max. iterations                   250          :
          :  Hamiltonian                  GFN1-xTB          :
          :  restarted?                      false          :
          :  GBSA solvation                   true          :
          :  PC potential                    false          :
          :  electronic temp.          300.0000000     K    :
          :  accuracy                    1.0000000          :
          :  -> integral cutoff          0.2500000E+02      :
          :  -> integral neglect         0.1000000E-07      :
          :  -> SCF convergence          0.1000000E-05 Eh   :
          :  -> wf. convergence          0.2000000E-04 e    :
          :  Broyden damping             0.4000000          :
          ...................................................

 iter      E             dE          RMSdq      gap      omega  full diag
   1    -83.3123347 -0.833123E+02  0.840E+00    1.34       0.0  T
   2    -83.6175290 -0.305194E+00  0.507E+00    0.67       1.0  T
   3    -83.5231602  0.943688E-01  0.227E+00    1.17       1.0  T
   4    -83.6161358 -0.929755E-01  0.832E-01    0.66       1.0  T
   5    -83.6466381 -0.305023E-01  0.466E-01    0.89       1.0  T
   6    -83.6566081 -0.997002E-02  0.147E-01    0.75       1.0  T
   7    -83.6576402 -0.103207E-02  0.222E-02    0.68       1.0  T
   8    -83.6576661 -0.259556E-04  0.144E-02    0.68       1.1  T
   9    -83.6576724 -0.626510E-05  0.243E-03    0.68       6.3  T
  10    -83.6576723  0.102153E-06  0.280E-03    0.68       5.5  T
  11    -83.6576726 -0.274021E-06  0.115E-03    0.68      13.4  T
  12    -83.6576726 -0.547001E-07  0.761E-05    0.68     202.8  T
  13    -83.6576726 -0.123379E-09  0.201E-05    0.68     766.6  T

   *** convergence criteria satisfied after 13 iterations ***

         #    Occupation            Energy/Eh            Energy/eV
      -------------------------------------------------------------
         1        2.0000           -0.8642349             -23.5170
       ...           ...                  ...                  ...
        61        2.0000           -0.4635760             -12.6145
        62        2.0000           -0.4574438             -12.4477
        63        2.0000           -0.4565390             -12.4231
        64        2.0000           -0.4464966             -12.1498
        65        2.0000           -0.4430581             -12.0562
        66        2.0000           -0.4320521             -11.7567
        67        2.0000           -0.4276974             -11.6382 (HOMO)
        68        0.0000           -0.4025722             -10.9545 (LUMO)
        69                         -0.3388532              -9.2207
        70                         -0.3195908              -8.6965
        71                         -0.2613097              -7.1106
        72                         -0.2441899              -6.6447
       ...                                ...                  ...
       134                          0.6905134              18.7898
      -------------------------------------------------------------
                  HL-Gap            0.0251252 Eh            0.6837 eV
             Fermi-level           -0.4151299 Eh          -11.2963 eV

 SCC (total)                   0 d,  0 h,  0 min,  0.198 sec
 SCC setup                      ...        0 min,  0.002 sec (  1.133%)
 Dispersion                     ...        0 min,  0.000 sec (  0.216%)
 classical contributions        ...        0 min,  0.000 sec (  0.069%)
 integral evaluation            ...        0 min,  0.062 sec ( 31.301%)
 iterations                     ...        0 min,  0.050 sec ( 25.083%)
 molecular gradient             ...        0 min,  0.082 sec ( 41.665%)
 printout                       ...        0 min,  0.001 sec (  0.504%)

         :::::::::::::::::::::::::::::::::::::::::::::::::::::
         ::                     SUMMARY                     ::
         :::::::::::::::::::::::::::::::::::::::::::::::::::::
         :: total energy             -82.911500520305 Eh    ::
         :: total w/o Gsasa/hb       -82.890203048450 Eh    ::
         :: gradient norm              0.131244562186 Eh/a0 ::
         :: HOMO-LUMO gap              0.683691615730 eV    ::
         ::.................................................::
         :: SCC energy               -83.657672633466 Eh    ::
         :: -> electrostatic           0.364986508112 Eh    ::
         :: -> Gsolv                  -0.059392954263 Eh    ::
         ::    -> Gelec               -0.038095482407 Eh    ::
         ::    -> Gsasa               -0.023650378331 Eh    ::
         ::    -> Ghb                 -0.005271372530 Eh    ::
         ::    -> Gshift               0.007624279005 Eh    ::
         :: repulsion energy           0.773009245977 Eh    ::
         :: dispersion energy         -0.026837132817 Eh    ::
         :: halogen bond corr.         0.000000000000 Eh    ::
         :: add. restraining           0.000000000000 Eh    ::
         :: total charge               0.000000000000 e     ::
         :::::::::::::::::::::::::::::::::::::::::::::::::::::

      ----------------------------------------------------------- 
     |                   =====================                   |
     |                        A N C O P T                        |
     |                   =====================                   |
     |               Approximate Normal Coordinate               |
     |                Rational Function Optimizer                |
      ----------------------------------------------------------- 

          ...................................................
          :                      SETUP                      :
          :.................................................:
          :   optimization level            normal          :
          :   max. optcycles                   200          :
          :   ANC micro-cycles                  20          :
          :   degrees of freedom               120          :
          :.................................................:
          :   RF solver                   davidson          :
          :   write xtbopt.log                true          :
          :   linear?                        false          :
          :   energy convergence         0.5000000E-05 Eh   :
          :   grad. convergence          0.1000000E-02 Eh/α :
          :   maximium RF displ.         1.0000000          :
          :   Hlow (freq-cutoff)         0.1000000E-01      :
          :   Hmax (freq-cutoff)         5.0000000          :
          :   S6 in model hess.         20.0000000          :
          ...................................................

generating ANC from model Hessian ...
Using Lindh-Hessian (1995)
 Shifting diagonal of input Hessian by   9.839005170362149E-003
 Lowest  eigenvalues of input Hessian
    0.000000    0.000000    0.000000    0.000000    0.000000    0.000000
    0.010000    0.010158    0.010661    0.011521    0.011805    0.012422
    0.012961    0.014523    0.014874    0.015903    0.016898    0.017131
 Highest eigenvalues
    2.032575    2.101405    2.113103    2.274586    2.335968    2.350923
 

........................................................................
.............................. CYCLE    1 ..............................
........................................................................
   1    -83.6576726 -0.836577E+02  0.113E-05    0.68       0.0  T
   2    -83.6576726  0.872546E-11  0.156E-05    0.68     989.6  T
   3    -83.6576726 -0.125908E-10  0.419E-06    0.68    3686.4  T
     SCC iter.                  ...        0 min,  0.012 sec
     gradient                   ...        0 min,  0.082 sec
 * total energy  :   -82.9115005 Eh     change       -0.1016076E-10 Eh
   gradient norm :     0.1312448 Eh/α   predicted     0.0000000E+00 (-100.00%)
   displ. norm   :     0.3479608 α      lambda       -0.2098818E-01
   maximum displ.:     0.1403136 α      in ANC's #26, #27, #19, ...

........................................................................
.............................. CYCLE    2 ..............................
........................................................................
   1    -83.6762823 -0.836763E+02  0.114E-01    0.79       0.0  T
   2    -83.6760210  0.261301E-03  0.127E-01    0.79       1.0  T
   3    -83.6768281 -0.807162E-03  0.452E-02    0.82       1.0  T
   4    -83.6769265 -0.983788E-04  0.120E-02    0.81       1.3  T
   5    -83.6769257  0.780697E-06  0.499E-03    0.81       3.1  T
   6    -83.6769267 -0.985431E-06  0.712E-04    0.81      21.7  T
   7    -83.6769267 -0.589728E-08  0.232E-04    0.81      66.6  T
   8    -83.6769267 -0.995485E-09  0.776E-05    0.81     198.9  T
   9    -83.6769267 -0.118973E-09  0.277E-05    0.81     557.0  T
     SCC iter.                  ...        0 min,  0.033 sec
     gradient                   ...        0 min,  0.082 sec
 * total energy  :   -82.9268398 Eh     change       -0.1533932E-01 Eh
   gradient norm :     0.0662186 Eh/α   predicted    -0.1178277E-01 ( -23.19%)
   displ. norm   :     0.3834108 α      lambda       -0.1029115E-01
   maximum displ.:     0.1470906 α      in ANC's #26, #19, #16, ...

........................................................................
.............................. CYCLE    3 ..............................
........................................................................
   1    -83.6897690 -0.836898E+02  0.112E-01    0.88       0.0  T
   2    -83.6898178 -0.488113E-04  0.935E-02    0.89       1.0  T
   3    -83.6902029 -0.385078E-03  0.470E-02    0.91       1.0  T
   4    -83.6903085 -0.105593E-03  0.117E-02    0.90       1.3  T
   5    -83.6903086 -0.138728E-06  0.398E-03    0.90       3.9  T
   6    -83.6903090 -0.401103E-06  0.631E-04    0.90      24.4  T
   7    -83.6903090 -0.632275E-08  0.192E-04    0.90      80.3  T
   8    -83.6903090 -0.610683E-09  0.679E-05    0.90     227.2  T
     SCC iter.                  ...        0 min,  0.032 sec
     gradient                   ...        0 min,  0.082 sec
 * total energy  :   -82.9330291 Eh     change       -0.6189272E-02 Eh
   gradient norm :     0.0216414 Eh/α   predicted    -0.5905613E-02 (  -4.58%)
   displ. norm   :     0.2747006 α      lambda       -0.1935610E-02
   maximum displ.:     0.1060827 α      in ANC's #16, #19, #13, ...

........................................................................
.............................. CYCLE    4 ..............................
........................................................................
   1    -83.6935434 -0.836935E+02  0.281E-02    0.91       0.0  T
   2    -83.6935685 -0.250901E-04  0.115E-02    0.92       1.3  T
   3    -83.6935702 -0.179758E-05  0.588E-03    0.92       2.6  T
   4    -83.6935702  0.829452E-07  0.219E-03    0.92       7.1  T
   5    -83.6935701  0.605810E-07  0.213E-03    0.92       7.2  T
   6    -83.6935703 -0.220021E-06  0.214E-04    0.92      72.0  T
   7    -83.6935703 -0.137378E-08  0.654E-05    0.92     235.8  T
   8    -83.6935703 -0.555787E-10  0.178E-05    0.92     867.3  T
     SCC iter.                  ...        0 min,  0.035 sec
     gradient                   ...        0 min,  0.082 sec
 * total energy  :   -82.9343909 Eh     change       -0.1361831E-02 Eh
   gradient norm :     0.0155681 Eh/α   predicted    -0.1040909E-02 ( -23.57%)
   displ. norm   :     0.3225077 α      lambda       -0.1261362E-02
   maximum displ.:     0.1280955 α      in ANC's #16, #2, #13, ...

........................................................................
.............................. CYCLE    5 ..............................
........................................................................
   1    -83.6967607 -0.836968E+02  0.193E-02    0.92       0.0  T
   2    -83.6967667 -0.602932E-05  0.164E-02    0.93       1.0  T
   3    -83.6967736 -0.683878E-05  0.778E-03    0.92       2.0  T
   4    -83.6967751 -0.149844E-05  0.599E-03    0.92       2.6  T
   5    -83.6967759 -0.856293E-06  0.101E-03    0.92      15.2  T
   6    -83.6967759 -0.150471E-07  0.144E-04    0.92     107.0  T
   7    -83.6967759 -0.539117E-09  0.540E-05    0.92     285.7  T
     SCC iter.                  ...        0 min,  0.026 sec
     gradient                   ...        0 min,  0.082 sec
 * total energy  :   -82.9352635 Eh     change       -0.8725276E-03 Eh
   gradient norm :     0.0118930 Eh/α   predicted    -0.6962821E-03 ( -20.20%)
   displ. norm   :     0.3053913 α      lambda       -0.6880233E-03
   maximum displ.:     0.1094634 α      in ANC's #2, #16, #9, ...

........................................................................
.............................. CYCLE    6 ..............................
........................................................................
   1    -83.6992865 -0.836993E+02  0.139E-02    0.92       0.0  T
   2    -83.6992909 -0.440671E-05  0.112E-02    0.92       1.4  T
   3    -83.6992944 -0.348415E-05  0.555E-03    0.92       2.8  T
   4    -83.6992955 -0.108919E-05  0.341E-03    0.92       4.5  T
   5    -83.6992957 -0.235608E-06  0.646E-04    0.92      23.9  T
   6    -83.6992957 -0.749552E-08  0.107E-04    0.92     143.9  T
   7    -83.6992957 -0.399524E-09  0.318E-05    0.92     485.2  T
     SCC iter.                  ...        0 min,  0.027 sec
     gradient                   ...        0 min,  0.083 sec
 * total energy  :   -82.9357639 Eh     change       -0.5004778E-03 Eh
   gradient norm :     0.0097173 Eh/α   predicted    -0.3760970E-03 ( -24.85%)
   displ. norm   :     0.3294106 α      lambda       -0.5208657E-03
   maximum displ.:     0.1306958 α      in ANC's #2, #5, #6, ...

........................................................................
.............................. CYCLE    7 ..............................
........................................................................
   1    -83.7008096 -0.837008E+02  0.133E-02    0.92       0.0  T
   2    -83.7008163 -0.660902E-05  0.610E-03    0.92       2.5  T
   3    -83.7008165 -0.239916E-06  0.431E-03    0.92       3.6  T
   4    -83.7008168 -0.319174E-06  0.288E-03    0.92       5.4  T
   5    -83.7008171 -0.287076E-06  0.726E-04    0.92      21.2  T
   6    -83.7008171 -0.748513E-08  0.119E-04    0.92     129.8  T
   7    -83.7008171 -0.639730E-09  0.433E-05    0.92     356.5  T
     SCC iter.                  ...        0 min,  0.032 sec
     gradient                   ...        0 min,  0.083 sec
 * total energy  :   -82.9361507 Eh     change       -0.3867298E-03 Eh
   gradient norm :     0.0078999 Eh/α   predicted    -0.2887206E-03 ( -25.34%)
   displ. norm   :     0.3340054 α      lambda       -0.4033590E-03
   maximum displ.:     0.1424889 α      in ANC's #2, #5, #6, ...

........................................................................
.............................. CYCLE    8 ..............................
........................................................................
   1    -83.7012848 -0.837013E+02  0.132E-02    0.93       0.0  T
   2    -83.7012912 -0.634838E-05  0.589E-03    0.93       2.6  T
   3    -83.7012917 -0.519656E-06  0.275E-03    0.93       5.6  T
   4    -83.7012917  0.292003E-08  0.144E-03    0.93      10.7  T
   5    -83.7012917  0.347394E-07  0.113E-03    0.93      13.7  T
   6    -83.7012917 -0.736319E-07  0.186E-04    0.93      83.0  T
   7    -83.7012917 -0.126499E-08  0.537E-05    0.93     287.1  T
     SCC iter.                  ...        0 min,  0.032 sec
     gradient                   ...        0 min,  0.084 sec
 * total energy  :   -82.9364493 Eh     change       -0.2986313E-03 Eh
   gradient norm :     0.0071229 Eh/α   predicted    -0.2241817E-03 ( -24.93%)
   displ. norm   :     0.3182291 α      lambda       -0.3055551E-03
   maximum displ.:     0.1434947 α      in ANC's #2, #5, #6, ...

........................................................................
.............................. CYCLE    9 ..............................
........................................................................
   1    -83.7013028 -0.837013E+02  0.124E-02    0.93       0.0  T
   2    -83.7013080 -0.516444E-05  0.546E-03    0.93       2.8  T
   3    -83.7013084 -0.439830E-06  0.294E-03    0.93       5.2  T
   4    -83.7013083  0.155548E-06  0.237E-03    0.93       6.5  T
   5    -83.7013085 -0.226281E-06  0.102E-03    0.93      15.1  T
   6    -83.7013085 -0.348124E-07  0.133E-04    0.93     115.9  T
   7    -83.7013085 -0.125989E-08  0.496E-05    0.93     311.1  T
     SCC iter.                  ...        0 min,  0.026 sec
     gradient                   ...        0 min,  0.083 sec
 * total energy  :   -82.9366729 Eh     change       -0.2236024E-03 Eh
   gradient norm :     0.0069879 Eh/α   predicted    -0.1682516E-03 ( -24.75%)
   displ. norm   :     0.2711843 α      lambda       -0.2207571E-03
   maximum displ.:     0.1298419 α      in ANC's #2, #6, #1, ...

........................................................................
.............................. CYCLE   10 ..............................
........................................................................
   1    -83.7014467 -0.837014E+02  0.106E-02    0.94       0.0  T
   2    -83.7014493 -0.266985E-05  0.680E-03    0.94       2.3  T
   3    -83.7014502 -0.875190E-06  0.449E-03    0.94       3.4  T
   4    -83.7014511 -0.876596E-06  0.190E-03    0.94       8.1  T
   5    -83.7014512 -0.732751E-07  0.555E-04    0.94      27.8  T
   6    -83.7014512 -0.240556E-08  0.113E-04    0.94     136.9  T
   7    -83.7014512 -0.824116E-09  0.339E-05    0.94     454.9  T
     SCC iter.                  ...        0 min,  0.026 sec
     gradient                   ...        0 min,  0.083 sec
 * total energy  :   -82.9368333 Eh     change       -0.1603411E-03 Eh
   gradient norm :     0.0060381 Eh/α   predicted    -0.1185005E-03 ( -26.09%)
   displ. norm   :     0.2279790 α      lambda       -0.1553559E-03
   maximum displ.:     0.1149503 α      in ANC's #2, #6, #1, ...

........................................................................
.............................. CYCLE   11 ..............................
........................................................................
   1    -83.7017382 -0.837017E+02  0.105E-02    0.94       0.0  T
   2    -83.7017380  0.131869E-06  0.116E-02    0.95       1.3  T
   3    -83.7017447 -0.664732E-05  0.269E-03    0.94       5.7  T
   4    -83.7017449 -0.209370E-06  0.177E-03    0.95       8.7  T
   5    -83.7017449 -0.512710E-07  0.514E-04    0.95      30.0  T
   6    -83.7017449 -0.214069E-08  0.810E-05    0.95     190.4  T
   7    -83.7017449 -0.283947E-09  0.276E-05    0.95     559.4  T
     SCC iter.                  ...        0 min,  0.026 sec
     gradient                   ...        0 min,  0.083 sec
 * total energy  :   -82.9369427 Eh     change       -0.1094939E-03 Eh
   gradient norm :     0.0043560 Eh/α   predicted    -0.8171731E-04 ( -25.37%)
   displ. norm   :     0.1840094 α      lambda       -0.9076551E-04
   maximum displ.:     0.0956128 α      in ANC's #2, #6, #1, ...

........................................................................
.............................. CYCLE   12 ..............................
........................................................................
   1    -83.7017780 -0.837018E+02  0.708E-03    0.94       0.0  T
   2    -83.7017745  0.349443E-05  0.125E-02    0.95       1.2  T
   3    -83.7017821 -0.753398E-05  0.320E-03    0.95       4.8  T
   4    -83.7017822 -0.117756E-06  0.198E-03    0.95       7.8  T
   5    -83.7017823 -0.788691E-07  0.597E-04    0.95      25.8  T
   6    -83.7017823 -0.101410E-07  0.520E-05    0.95     296.9  T
   7    -83.7017823 -0.445368E-10  0.242E-05    0.95     638.1  T
     SCC iter.                  ...        0 min,  0.026 sec
     gradient                   ...        0 min,  0.083 sec
 * total energy  :   -82.9370038 Eh     change       -0.6101712E-04 Eh
   gradient norm :     0.0028186 Eh/α   predicted    -0.4692387E-04 ( -23.10%)
   displ. norm   :     0.1354081 α      lambda       -0.5808206E-04
   maximum displ.:     0.0703684 α      in ANC's #2, #1, #6, ...

........................................................................
.............................. CYCLE   13 ..............................
........................................................................
   1    -83.7028758 -0.837029E+02  0.676E-03    0.95       0.0  T
   2    -83.7028761 -0.301594E-06  0.793E-03    0.95       1.9  T
   3    -83.7028794 -0.321280E-05  0.173E-03    0.95       8.9  T
   4    -83.7028794 -0.506108E-07  0.129E-03    0.95      12.0  T
   5    -83.7028794 -0.309147E-07  0.362E-04    0.95      42.6  T
   6    -83.7028794 -0.885279E-09  0.526E-05    0.95     293.4  T
   7    -83.7028794 -0.792681E-10  0.210E-05    0.95     734.3  T
     SCC iter.                  ...        0 min,  0.027 sec
     gradient                   ...        0 min,  0.083 sec
 * total energy  :   -82.9370385 Eh     change       -0.3471896E-04 Eh
   gradient norm :     0.0038156 Eh/α   predicted    -0.2957402E-04 ( -14.82%)
   displ. norm   :     0.1239286 α      lambda       -0.4133573E-04
   maximum displ.:     0.0647176 α      in ANC's #2, #1, #6, ...

........................................................................
.............................. CYCLE   14 ..............................
........................................................................
   1    -83.7023640 -0.837024E+02  0.463E-03    0.95       0.0  T
   2    -83.7023639  0.116929E-06  0.580E-03    0.95       2.7  T
   3    -83.7023655 -0.160111E-05  0.141E-03    0.95      11.0  T
   4    -83.7023655  0.217136E-08  0.116E-03    0.95      13.3  T
   5    -83.7023655 -0.231414E-07  0.340E-04    0.95      45.5  T
   6    -83.7023655 -0.340171E-08  0.461E-05    0.95     334.4  T
   7    -83.7023655 -0.492975E-10  0.118E-05    0.95    1309.4  T
     SCC iter.                  ...        0 min,  0.027 sec
     gradient                   ...        0 min,  0.083 sec
 * total energy  :   -82.9370658 Eh     change       -0.2728775E-04 Eh
   gradient norm :     0.0025913 Eh/α   predicted    -0.2098552E-04 ( -23.10%)
   displ. norm   :     0.1240639 α      lambda        0.5397214E-05
   maximum displ.:     0.0647907 α      in ANC's #2, #1, #6, ...

........................................................................
.............................. CYCLE   15 ..............................
........................................................................
   1    -83.7016807 -0.837017E+02  0.476E-03    0.95       0.0  T
   2    -83.7016806  0.144020E-06  0.593E-03    0.95       2.6  T
   3    -83.7016822 -0.168351E-05  0.145E-03    0.95      10.6  T
   4    -83.7016822 -0.328143E-09  0.116E-03    0.95      13.3  T
   5    -83.7016823 -0.224457E-07  0.335E-04    0.95      46.1  T
   6    -83.7016823 -0.331804E-08  0.469E-05    0.95     329.3  T
   7    -83.7016823 -0.547260E-10  0.118E-05    0.95    1310.1  T
     SCC iter.                  ...        0 min,  0.025 sec
     gradient                   ...        0 min,  0.083 sec
 * total energy  :   -82.9370637 Eh     change        0.2056375E-05 Eh
   gradient norm :     0.0048331 Eh/α   predicted     0.2740130E-05 (  33.25%)
   displ. norm   :     0.0585460 α      lambda       -0.4395691E-04
   maximum displ.:     0.0330487 α      in ANC's #5, #3, #16, ...

........................................................................
.............................. CYCLE   16 ..............................
........................................................................
   1    -83.7033084 -0.837033E+02  0.577E-03    0.95       0.0  T
   2    -83.7033072  0.122086E-05  0.717E-03    0.95       2.2  T
   3    -83.7033099 -0.264882E-05  0.185E-03    0.95       8.4  T
   4    -83.7033099 -0.183064E-07  0.705E-04    0.95      21.9  T
   5    -83.7033099 -0.608425E-08  0.191E-04    0.95      80.9  T
   6    -83.7033099 -0.520885E-09  0.391E-05    0.95     394.8  T
     SCC iter.                  ...        0 min,  0.022 sec
     gradient                   ...        0 min,  0.083 sec
 * total energy  :   -82.9370889 Eh     change       -0.2521796E-04 Eh
   gradient norm :     0.0035014 Eh/α   predicted    -0.2205865E-04 ( -12.53%)
   displ. norm   :     0.0446692 α      lambda       -0.3874212E-04
   maximum displ.:     0.0209035 α      in ANC's #5, #1, #12, ...

........................................................................
.............................. CYCLE   17 ..............................
........................................................................
   1    -83.7031469 -0.837031E+02  0.492E-03    0.95       0.0  T
   2    -83.7031468  0.129744E-06  0.724E-03    0.95       2.1  T
   3    -83.7031489 -0.218866E-05  0.214E-03    0.95       7.2  T
   4    -83.7031489  0.884324E-07  0.219E-03    0.95       7.1  T
   5    -83.7031490 -0.117381E-06  0.487E-04    0.95      31.7  T
   6    -83.7031490 -0.860395E-08  0.539E-05    0.95     286.2  T
   7    -83.7031490 -0.539302E-10  0.149E-05    0.95    1036.4  T
     SCC iter.                  ...        0 min,  0.026 sec
     gradient                   ...        0 min,  0.083 sec
 * total energy  :   -82.9371097 Eh     change       -0.2076116E-04 Eh
   gradient norm :     0.0025730 Eh/α   predicted    -0.1941018E-04 (  -6.51%)
   displ. norm   :     0.0776648 α      lambda       -0.2071442E-04
   maximum displ.:     0.0461563 α      in ANC's #1, #2, #6, ...

........................................................................
.............................. CYCLE   18 ..............................
........................................................................
   1    -83.7030102 -0.837030E+02  0.211E-03    0.95       0.0  T
   2    -83.7030102 -0.957601E-08  0.244E-03    0.95       6.3  T
   3    -83.7030105 -0.298560E-06  0.585E-04    0.95      26.4  T
   4    -83.7030105 -0.599552E-08  0.397E-04    0.95      38.9  T
   5    -83.7030105 -0.254015E-08  0.107E-04    0.95     144.5  T
   6    -83.7030105 -0.691642E-10  0.194E-05    0.95     795.7  T
     SCC iter.                  ...        0 min,  0.023 sec
     gradient                   ...        0 min,  0.083 sec
 * total energy  :   -82.9371275 Eh     change       -0.1780439E-04 Eh
   gradient norm :     0.0021226 Eh/α   predicted    -0.1042318E-04 ( -41.46%)
   displ. norm   :     0.1649030 α      lambda       -0.3861638E-04
   maximum displ.:     0.0983833 α      in ANC's #1, #2, #6, ...

........................................................................
.............................. CYCLE   19 ..............................
........................................................................
   1    -83.7025302 -0.837025E+02  0.303E-03    0.95       0.0  T
   2    -83.7025304 -0.164605E-06  0.296E-03    0.95       5.2  T
   3    -83.7025308 -0.395277E-06  0.114E-03    0.95      13.6  T
   4    -83.7025308 -0.363816E-07  0.549E-04    0.95      28.1  T
   5    -83.7025308 -0.235903E-08  0.185E-04    0.95      83.6  T
   6    -83.7025308 -0.633150E-09  0.390E-05    0.95     395.5  T
     SCC iter.                  ...        0 min,  0.022 sec
     gradient                   ...        0 min,  0.083 sec
 * total energy  :   -82.9371569 Eh     change       -0.2942958E-04 Eh
   gradient norm :     0.0020937 Eh/α   predicted    -0.1983592E-04 ( -32.60%)
   displ. norm   :     0.1752985 α      lambda       -0.3007424E-04
   maximum displ.:     0.1070453 α      in ANC's #1, #2, #6, ...

........................................................................
.............................. CYCLE   20 ..............................
........................................................................
   1    -83.7020958 -0.837021E+02  0.210E-03    0.95       0.0  T
   2    -83.7020959 -0.906810E-07  0.172E-03    0.95       9.0  T
   3    -83.7020960 -0.836044E-07  0.898E-04    0.95      17.2  T
   4    -83.7020960 -0.186094E-07  0.493E-04    0.95      31.3  T
   5    -83.7020960 -0.551250E-08  0.124E-04    0.95     124.9  T
   6    -83.7020960 -0.259391E-09  0.314E-05    0.95     491.2  T
     SCC iter.                  ...        0 min,  0.022 sec
     gradient                   ...        0 min,  0.083 sec
 * total energy  :   -82.9371799 Eh     change       -0.2300679E-04 Eh
   gradient norm :     0.0024413 Eh/α   predicted    -0.1550007E-04 ( -32.63%)
   displ. norm   :     0.1589247 α      lambda       -0.2779442E-04
   maximum displ.:     0.1010422 α      in ANC's #1, #2, #6, ...
 * RMSD in coord.:     0.4812338 α      energy gain  -0.2567942E-01 Eh

generating ANC from model Hessian ...
Using Lindh-Hessian (1995)
 Shifting diagonal of input Hessian by   9.818027782935721E-003
 Lowest  eigenvalues of input Hessian
    0.000000    0.000000    0.000000    0.000000    0.000000    0.000000
    0.010000    0.010142    0.010639    0.011536    0.011780    0.012348
    0.012808    0.014475    0.014941    0.015859    0.016552    0.017188
 Highest eigenvalues
    2.058744    2.127381    2.134459    2.327686    2.413044    2.430339
 

........................................................................
.............................. CYCLE   21 ..............................
........................................................................
   1    -83.7020934 -0.837021E+02  0.180E-03    0.95       0.0  T
   2    -83.7020935 -0.813446E-07  0.112E-03    0.94      13.8  T
   3    -83.7020935 -0.150235E-07  0.787E-04    0.94      19.6  T
   4    -83.7020935 -0.158353E-07  0.377E-04    0.94      40.9  T
   5    -83.7020935 -0.513614E-08  0.125E-04    0.94     123.5  T
   6    -83.7020935 -0.331070E-09  0.252E-05    0.94     612.9  T
     SCC iter.                  ...        0 min,  0.027 sec
     gradient                   ...        0 min,  0.083 sec
 * total energy  :   -82.9372022 Eh     change       -0.2223180E-04 Eh
   gradient norm :     0.0022806 Eh/α   predicted     0.0000000E+00 (-100.00%)
   displ. norm   :     0.0250056 α      lambda       -0.1605908E-04
   maximum displ.:     0.0154826 α      in ANC's #4, #1, #7, ...

........................................................................
.............................. CYCLE   22 ..............................
........................................................................
   1    -83.7027527 -0.837028E+02  0.174E-03    0.94       0.0  T
   2    -83.7027527 -0.671746E-07  0.122E-03    0.95      12.6  T
   3    -83.7027528 -0.253475E-07  0.808E-04    0.95      19.1  T
   4    -83.7027528 -0.193761E-07  0.403E-04    0.95      38.3  T
   5    -83.7027528 -0.316200E-08  0.815E-05    0.95     189.4  T
   6    -83.7027528 -0.211315E-09  0.173E-05    0.95     889.6  T
     SCC iter.                  ...        0 min,  0.023 sec
     gradient                   ...        0 min,  0.083 sec
 * total energy  :   -82.9372154 Eh     change       -0.1328159E-04 Eh
   gradient norm :     0.0010622 Eh/α   predicted    -0.8495180E-05 ( -36.04%)
   displ. norm   :     0.1023780 α      lambda       -0.2628762E-04
   maximum displ.:     0.0648642 α      in ANC's #4, #1, #7, ...

........................................................................
.............................. CYCLE   23 ..............................
........................................................................
   1    -83.7038189 -0.837038E+02  0.435E-03    0.94       0.0  T
   2    -83.7038192 -0.296087E-06  0.323E-03    0.95       4.8  T
   3    -83.7038194 -0.226985E-06  0.189E-03    0.94       8.2  T
   4    -83.7038196 -0.126343E-06  0.108E-03    0.95      14.3  T
   5    -83.7038196 -0.217012E-07  0.163E-04    0.95      94.8  T
   6    -83.7038196 -0.499298E-09  0.369E-05    0.95     417.8  T
     SCC iter.                  ...        0 min,  0.022 sec
     gradient                   ...        0 min,  0.083 sec
 * total energy  :   -82.9372363 Eh     change       -0.2082121E-04 Eh
   gradient norm :     0.0023946 Eh/α   predicted    -0.1320593E-04 ( -36.57%)
   displ. norm   :     0.0349810 α      lambda       -0.9998590E-05
   maximum displ.:     0.0223050 α      in ANC's #4, #1, #7, ...

........................................................................
.............................. CYCLE   24 ..............................
........................................................................
   1    -83.7033619 -0.837034E+02  0.136E-03    0.95       0.0  T
   2    -83.7033619 -0.999890E-08  0.122E-03    0.95      12.6  T
   3    -83.7033620 -0.652318E-07  0.554E-04    0.94      27.8  T
   4    -83.7033620 -0.943606E-08  0.242E-04    0.94      63.7  T
   5    -83.7033620 -0.584151E-09  0.576E-05    0.94     267.8  T
   6    -83.7033620 -0.733991E-10  0.153E-05    0.94    1010.6  T
     SCC iter.                  ...        0 min,  0.022 sec
     gradient                   ...        0 min,  0.083 sec
 * total energy  :   -82.9372449 Eh     change       -0.8676836E-05 Eh
   gradient norm :     0.0016495 Eh/α   predicted    -0.5006259E-05 ( -42.30%)
   displ. norm   :     0.1379265 α      lambda       -0.2183426E-04
   maximum displ.:     0.0840739 α      in ANC's #4, #1, #17, ...

........................................................................
.............................. CYCLE   25 ..............................
........................................................................
   1    -83.7017248 -0.837017E+02  0.439E-03    0.94       0.0  T
   2    -83.7017255 -0.602289E-06  0.251E-03    0.94       6.1  T
   3    -83.7017255 -0.640166E-07  0.183E-03    0.94       8.4  T
   4    -83.7017256 -0.917323E-07  0.106E-03    0.94      14.6  T
   5    -83.7017256 -0.338025E-07  0.227E-04    0.94      68.1  T
   6    -83.7017256 -0.792284E-09  0.499E-05    0.94     309.5  T
   7    -83.7017256 -0.103682E-09  0.138E-05    0.94    1116.4  T
     SCC iter.                  ...        0 min,  0.026 sec
     gradient                   ...        0 min,  0.083 sec
 * total energy  :   -82.9372611 Eh     change       -0.1617108E-04 Eh
   gradient norm :     0.0020513 Eh/α   predicted    -0.1101082E-04 ( -31.91%)
   displ. norm   :     0.0265112 α      lambda       -0.6197293E-05
   maximum displ.:     0.0143340 α      in ANC's #4, #1, #17, ...

........................................................................
.............................. CYCLE   26 ..............................
........................................................................
   1    -83.7018747 -0.837019E+02  0.788E-04    0.94       0.0  T
   2    -83.7018746  0.315649E-07  0.111E-03    0.94      13.9  T
   3    -83.7018747 -0.671072E-07  0.193E-04    0.94      79.9  T
   4    -83.7018747 -0.506759E-10  0.100E-04    0.94     154.0  T
     SCC iter.                  ...        0 min,  0.015 sec
     gradient                   ...        0 min,  0.083 sec
 * total energy  :   -82.9372670 Eh     change       -0.5855605E-05 Eh
   gradient norm :     0.0017365 Eh/α   predicted    -0.3101048E-05 ( -47.04%)
   displ. norm   :     0.3548868 α      lambda       -0.5027231E-04
   maximum displ.:     0.1854548 α      in ANC's #4, #1, #6, ...

........................................................................
.............................. CYCLE   27 ..............................
........................................................................
   1    -83.7018897 -0.837019E+02  0.994E-03    0.94       0.0  T
   2    -83.7018834  0.627861E-05  0.148E-02    0.94       1.0  T
   3    -83.7018958 -0.124112E-04  0.161E-03    0.94       9.6  T
   4    -83.7018958 -0.122576E-07  0.873E-04    0.94      17.7  T
   5    -83.7018958 -0.518830E-08  0.269E-04    0.94      57.4  T
   6    -83.7018958 -0.664372E-09  0.480E-05    0.94     321.8  T
   7    -83.7018958 -0.237605E-10  0.215E-05    0.94     716.9  T
     SCC iter.                  ...        0 min,  0.025 sec
     gradient                   ...        0 min,  0.083 sec
 * total energy  :   -82.9372994 Eh     change       -0.3238932E-04 Eh
   gradient norm :     0.0036393 Eh/α   predicted    -0.2654433E-04 ( -18.05%)
   displ. norm   :     0.0447989 α      lambda       -0.2953190E-04
   maximum displ.:     0.0269940 α      in ANC's #4, #7, #15, ...

........................................................................
.............................. CYCLE   28 ..............................
........................................................................
   1    -83.7030848 -0.837031E+02  0.350E-03    0.94       0.0  T
   2    -83.7030849 -0.807381E-07  0.187E-03    0.94       8.3  T
   3    -83.7030848  0.885694E-07  0.162E-03    0.94       9.5  T
   4    -83.7030849 -0.994420E-07  0.615E-04    0.94      25.1  T
   5    -83.7030849 -0.163812E-07  0.996E-05    0.94     154.9  T
   6    -83.7030849 -0.126704E-09  0.273E-05    0.94     566.1  T
     SCC iter.                  ...        0 min,  0.022 sec
     gradient                   ...        0 min,  0.083 sec
 * total energy  :   -82.9373154 Eh     change       -0.1603164E-04 Eh
   gradient norm :     0.0018473 Eh/α   predicted    -0.1480402E-04 (  -7.66%)
   displ. norm   :     0.1094712 α      lambda       -0.1412880E-04
   maximum displ.:     0.0557916 α      in ANC's #1, #5, #4, ...

........................................................................
.............................. CYCLE   29 ..............................
........................................................................
   1    -83.7028246 -0.837028E+02  0.189E-03    0.94       0.0  T
   2    -83.7028247 -0.144728E-06  0.849E-04    0.94      18.2  T
   3    -83.7028248 -0.104151E-07  0.418E-04    0.94      37.0  T
   4    -83.7028248  0.492122E-08  0.391E-04    0.94      39.5  T
   5    -83.7028248 -0.595357E-08  0.102E-04    0.94     151.2  T
   6    -83.7028248 -0.438988E-09  0.197E-05    0.94     782.4  T
     SCC iter.                  ...        0 min,  0.022 sec
     gradient                   ...        0 min,  0.083 sec
 * total energy  :   -82.9373328 Eh     change       -0.1739145E-04 Eh
   gradient norm :     0.0012102 Eh/α   predicted    -0.7107828E-05 ( -59.13%)
   displ. norm   :     0.3666533 α      lambda       -0.3488864E-04
   maximum displ.:     0.1863845 α      in ANC's #1, #5, #4, ...

........................................................................
.............................. CYCLE   30 ..............................
........................................................................
   1    -83.7005385 -0.837005E+02  0.782E-03    0.94       0.0  T
   2    -83.7005390 -0.585403E-06  0.415E-03    0.94       3.7  T
   3    -83.7005389  0.929786E-07  0.213E-03    0.94       7.2  T
   4    -83.7005389  0.249329E-07  0.187E-03    0.94       8.3  T
   5    -83.7005391 -0.175398E-06  0.254E-04    0.94      60.8  T
   6    -83.7005391 -0.111515E-08  0.712E-05    0.94     216.6  T
   7    -83.7005391 -0.535465E-10  0.190E-05    0.94     813.5  T
     SCC iter.                  ...        0 min,  0.025 sec
     gradient                   ...        0 min,  0.083 sec
 * total energy  :   -82.9373267 Eh     change        0.6066954E-05 Eh
   gradient norm :     0.0062872 Eh/α   predicted    -0.1849037E-04 (-404.77%)
   displ. norm   :     0.1271085 α      lambda       -0.7286576E-04
   maximum displ.:     0.0633670 α      in ANC's #4, #1, #6, ...

........................................................................
.............................. CYCLE   31 ..............................
........................................................................
   1    -83.7024180 -0.837024E+02  0.594E-03    0.94       0.0  T
   2    -83.7024178  0.181002E-06  0.408E-03    0.94       3.8  T
   3    -83.7024178  0.246288E-07  0.360E-03    0.94       4.3  T
   4    -83.7024183 -0.521987E-06  0.478E-04    0.94      32.3  T
   5    -83.7024183 -0.211364E-08  0.148E-04    0.94     104.5  T
   6    -83.7024183 -0.354959E-09  0.308E-05    0.94     501.0  T
     SCC iter.                  ...        0 min,  0.022 sec
     gradient                   ...        0 min,  0.083 sec
 * total energy  :   -82.9373597 Eh     change       -0.3299799E-04 Eh
   gradient norm :     0.0017826 Eh/α   predicted    -0.3702690E-04 (  12.21%)
   displ. norm   :     0.0636034 α      lambda       -0.9379194E-05
   maximum displ.:     0.0335437 α      in ANC's #1, #16, #5, ...

........................................................................
.............................. CYCLE   32 ..............................
........................................................................
   1    -83.7027115 -0.837027E+02  0.113E-03    0.94       0.0  T
   2    -83.7027116 -0.436940E-07  0.558E-04    0.94      27.7  T
   3    -83.7027116 -0.246399E-08  0.303E-04    0.94      51.0  T
   4    -83.7027116  0.372718E-08  0.331E-04    0.94      46.7  T
   5    -83.7027116 -0.492820E-08  0.383E-05    0.94     402.7  T
   6    -83.7027116 -0.284359E-10  0.114E-05    0.94    1354.5  T
     SCC iter.                  ...        0 min,  0.022 sec
     gradient                   ...        0 min,  0.083 sec
 * total energy  :   -82.9373708 Eh     change       -0.1110290E-04 Eh
   gradient norm :     0.0012759 Eh/α   predicted    -0.4703241E-05 ( -57.64%)
   displ. norm   :     0.3751415 α      lambda       -0.3580445E-04
   maximum displ.:     0.2006558 α      in ANC's #1, #16, #6, ...

........................................................................
.............................. CYCLE   33 ..............................
........................................................................
   1    -83.7011030 -0.837011E+02  0.580E-03    0.94       0.0  T
   2    -83.7011033 -0.290973E-06  0.314E-03    0.94       4.9  T
   3    -83.7011031  0.161899E-06  0.263E-03    0.94       5.9  T
   4    -83.7011033 -0.181953E-06  0.119E-03    0.94      13.0  T
   5    -83.7011034 -0.706500E-07  0.204E-04    0.94      75.5  T
   6    -83.7011034 -0.606249E-09  0.609E-05    0.94     253.4  T
   7    -83.7011034 -0.413678E-10  0.111E-05    0.94    1388.7  T
     SCC iter.                  ...        0 min,  0.025 sec
     gradient                   ...        0 min,  0.083 sec
 * total energy  :   -82.9373563 Eh     change        0.1447089E-04 Eh
   gradient norm :     0.0057134 Eh/α   predicted    -0.1903351E-04 (-231.53%)
   displ. norm   :     0.1336668 α      lambda       -0.7959842E-04
   maximum displ.:     0.0682061 α      in ANC's #1, #5, #16, ...

........................................................................
.............................. CYCLE   34 ..............................
........................................................................
   1    -83.7025825 -0.837026E+02  0.500E-03    0.94       0.0  T
   2    -83.7025826 -0.555367E-07  0.278E-03    0.94       5.6  T
   3    -83.7025823  0.243883E-06  0.242E-03    0.94       6.4  T
   4    -83.7025826 -0.268835E-06  0.580E-04    0.94      26.6  T
   5    -83.7025826 -0.146831E-07  0.134E-04    0.94     115.0  T
   6    -83.7025826 -0.300261E-09  0.304E-05    0.94     507.8  T
     SCC iter.                  ...        0 min,  0.022 sec
     gradient                   ...        0 min,  0.083 sec
 * total energy  :   -82.9373965 Eh     change       -0.4013103E-04 Eh
   gradient norm :     0.0013832 Eh/α   predicted    -0.4047590E-04 (   0.86%)
   displ. norm   :     0.0307235 α      lambda       -0.6599690E-05
   maximum displ.:     0.0151042 α      in ANC's #7, #5, #15, ...

........................................................................
.............................. CYCLE   35 ..............................
........................................................................
   1    -83.7028154 -0.837028E+02  0.105E-03    0.94       0.0  T
   2    -83.7028154 -0.264848E-07  0.529E-04    0.94      29.2  T
   3    -83.7028154 -0.177305E-08  0.276E-04    0.94      55.8  T
   4    -83.7028154  0.148985E-08  0.198E-04    0.94      78.1  T
   5    -83.7028154 -0.189964E-08  0.719E-05    0.94     214.7  T
     SCC iter.                  ...        0 min,  0.018 sec
     gradient                   ...        0 min,  0.083 sec
 * total energy  :   -82.9374039 Eh     change       -0.7448958E-05 Eh
   gradient norm :     0.0006743 Eh/α   predicted    -0.3306981E-05 ( -55.60%)
   displ. norm   :     0.0792280 α      lambda       -0.8052451E-05
   maximum displ.:     0.0358265 α      in ANC's #1, #7, #6, ...

........................................................................
.............................. CYCLE   36 ..............................
........................................................................
   1    -83.7027632 -0.837028E+02  0.134E-03    0.94       0.0  T
   2    -83.7027632 -0.538558E-07  0.704E-04    0.94      21.9  T
   3    -83.7027632 -0.421400E-08  0.401E-04    0.94      38.5  T
   4    -83.7027632 -0.116628E-09  0.368E-04    0.94      41.9  T
   5    -83.7027632 -0.536727E-08  0.689E-05    0.94     223.9  T
   6    -83.7027632 -0.445368E-10  0.152E-05    0.94    1017.5  T
     SCC iter.                  ...        0 min,  0.022 sec
     gradient                   ...        0 min,  0.083 sec
 * total energy  :   -82.9374119 Eh     change       -0.7951393E-05 Eh
   gradient norm :     0.0006233 Eh/α   predicted    -0.4052430E-05 ( -49.03%)
   displ. norm   :     0.0751347 α      lambda       -0.3506230E-05
   maximum displ.:     0.0375639 α      in ANC's #1, #16, #6, ...

........................................................................
.............................. CYCLE   37 ..............................
........................................................................
   1    -83.7026758 -0.837027E+02  0.117E-03    0.94       0.0  T
   2    -83.7026758 -0.210832E-07  0.745E-04    0.94      20.7  T
   3    -83.7026758 -0.624422E-08  0.522E-04    0.94      29.5  T
   4    -83.7026758 -0.128511E-07  0.219E-04    0.94      70.4  T
   5    -83.7026758 -0.982155E-09  0.498E-05    0.94     309.8  T
   6    -83.7026758 -0.926548E-11  0.143E-05    0.94    1080.6  T
     SCC iter.                  ...        0 min,  0.021 sec
     gradient                   ...        0 min,  0.083 sec
 * total energy  :   -82.9374154 Eh     change       -0.3501313E-05 Eh
   gradient norm :     0.0007740 Eh/α   predicted    -0.1763471E-05 ( -49.63%)
   displ. norm   :     0.0500348 α      lambda       -0.2162628E-05
   maximum displ.:     0.0238346 α      in ANC's #16, #6, #1, ...

   *** GEOMETRY OPTIMIZATION CONVERGED AFTER 37 ITERATIONS ***

------------------------------------------------------------------------
 total energy gain   :        -0.0259149 Eh      -16.2618 kcal/mol
 total RMSD          :         0.5869032 a0        0.3106 Å
 total power (kW/mol):        -1.8389043 (step)  -12.3455 (real)
------------------------------------------------------------------------

 ANCopt (total)                0 d,  0 h,  0 min,  5.511 sec
 optimizer setup                ...        0 min,  0.001 sec (  0.014%)
 model hessian                  ...        0 min,  0.075 sec (  1.354%)
 ANC generation                 ...        0 min,  0.005 sec (  0.089%)
 coordinate transformation      ...        0 min,  0.001 sec (  0.025%)
 single point calculation       ...        0 min,  5.408 sec ( 98.124%)
 optimization log               ...        0 min,  0.011 sec (  0.198%)
 hessian update                 ...        0 min,  0.001 sec (  0.021%)
 rational function              ...        0 min,  0.006 sec (  0.108%)

================
 final structure:
================
42
 xtb: 6.5.1 (579679a)
C           -6.64293008364356        0.63881068221381        0.43315372684739
O           -5.35528367962106        0.01096597316941        0.58039641537775
C           -4.33594736590750        0.62152323476190       -0.02062580075645
O           -4.44055578177539        1.63481700144678       -0.65907142472396
C           -3.02393043915647       -0.09970578802547        0.17573828415577
C           -2.81747544721677       -1.15925646718492        1.10068793596948
O           -3.76592129412564       -1.80201701822672        1.70938761923087
C           -1.41599404411484       -1.59681343291766        1.41648514656311
O           -1.18109471512632       -2.31057153660622        2.38577958668818
N           -0.50975973444856       -1.20063824455485        0.51662814797476
C           -0.78238004871465       -0.27502341230769       -0.50551137735590
C           -0.66800007537215       -1.03352763624279       -1.85295842666331
C            0.31823748320441        0.85496318919142       -0.43374821181508
C            0.13036120391871        1.63269345914721        0.87356350831357
C            0.23190649793164        1.78612682634410       -1.63906341349160
N            1.58922069604924        0.14455972739852       -0.39110812145769
C            2.79527621069311        0.73171131261052       -0.55009873834747
O            2.99374697365586        1.87237069800591       -0.92572682659529
C            3.88645380210790       -0.22267256760449       -0.22068203487325
N            3.74000802483205       -1.43542678178070        0.22135555745176
N            4.99132283183577       -1.94213243672017        0.40084687494329
C            5.82279192492437       -1.00482816508294        0.05851307699863
C            7.30119561471988       -1.05786495087880        0.07567201069909
O            5.18588210983411        0.10526404903278       -0.34158069705429
N           -2.04080152402189        0.36559266240357       -0.53858736480453
H           -6.61400180462056        1.63763991248579        0.87215113569057
H           -6.89657504656029        0.70822024724826       -0.62595453299887
H           -7.35605696966231        0.00930522598943        0.95798829250806
H           -4.67211248731538       -1.54240413688177        1.45187109156160
H            0.35538098988207       -1.37965815892517       -1.97542885261889
H           -0.94802215081476       -0.38409898771365       -2.67741003221971
H           -1.34211652346685       -1.88635005938602       -1.82027365913944
H            0.17473138597968        0.95821051277365        1.72710205060819
H            0.92223823791989        2.37482273790433        0.96690070098744
H           -0.83362856143030        2.13819533290510        0.86485051466014
H           -0.80877677746388        2.05292582636825       -1.81685069427686
H            0.79634151484068        2.69682850547240       -1.44548255740199
H            0.63964824907157        1.31201362588086       -2.52942716858910
H            1.56264239220292       -0.75937239425417        0.07193296257188
H            7.69090420993942       -0.33687470164088        0.79522473628429
H            7.62851565547155       -2.05789026430959        0.35154598517974
H            7.69456054556456       -0.80043360150918       -0.90737742607961
 
 Bond Distances (Angstroems)
 ---------------------------
C1-O2=1.4401         C1-H26=1.0914        C1-H27=1.0913        C1-H28=1.0864        O2-C1=1.4401         O2-C3=1.3316         
C3-O2=1.3316         C3-O4=1.2022         C3-C5=1.5100         O4-C3=1.2022         C5-C3=1.5100         C5-C6=1.4215         
C5-N25=1.3013        C6-C5=1.4215         C6-O7=1.2974         C6-C8=1.5018         O7-C6=1.2974         O7-H29=0.9772        
C8-C6=1.5018         C8-O9=1.2264         C8-N10=1.3371        O9-C8=1.2264         N10-C8=1.3371        N10-C11=1.4057       
C11-N10=1.4057       C11-C12=1.5505       C11-C13=1.5790       C11-N25=1.4125       C12-C11=1.5505       C12-H30=1.0873       
C12-H31=1.0862       C12-H32=1.0876       C13-C11=1.5790       C13-C14=1.5327       C13-C15=1.5256       C13-N16=1.4567       
C14-C13=1.5327       C14-H33=1.0888       C14-H34=1.0893       C14-H35=1.0885       C15-C13=1.5256       C15-H36=1.0889       
C15-H37=1.0888       C15-H38=1.0880       N16-C13=1.4567       N16-C17=1.3508       N16-H39=1.0160       C17-N16=1.3508       
C17-O18=1.2172       C17-C19=1.4866       O18-C17=1.2172       C19-C17=1.4866       C19-N20=1.2991       C19-O24=1.3456       
N20-C19=1.2991       N20-N21=1.3619       N21-N20=1.3619       N21-C22=1.2989       C22-N21=1.2989       C22-C23=1.4795       
C22-O24=1.3409       C23-C22=1.4795       C23-H40=1.0906       C23-H41=1.0878       C23-H42=1.0897       O24-C19=1.3456       
O24-C22=1.3409       N25-C5=1.3013        N25-C11=1.4125       H26-C1=1.0914        H27-C1=1.0913        H28-C1=1.0864        
H29-O7=0.9772        H30-C12=1.0873       H31-C12=1.0862       H32-C12=1.0876       H33-C14=1.0888       H34-C14=1.0893       
H35-C14=1.0885       H36-C15=1.0889       H37-C15=1.0888       H38-C15=1.0880       H39-N16=1.0160       H40-C23=1.0906       
H41-C23=1.0878       H42-C23=1.0897       
 C  H  Rav=1.0887 sigma=0.0015  Rmin=1.0862  Rmax=1.0914    15
 C  C  Rav=1.5097 sigma=0.0429  Rmin=1.4215  Rmax=1.5790     9
 N  H  Rav=1.0160 sigma=0.0000  Rmin=1.0160  Rmax=1.0160     1
 N  C  Rav=1.3577 sigma=0.0566  Rmin=1.2989  Rmax=1.4567     8
 N  N  Rav=1.3619 sigma=0.0000  Rmin=1.3619  Rmax=1.3619     1
 O  H  Rav=0.9772 sigma=0.0000  Rmin=0.9772  Rmax=0.9772     1
 O  C  Rav=1.3002 sigma=0.0760  Rmin=1.2022  Rmax=1.4401     8
 
 selected bond angles (degree)
 --------------------
H26-C1-O2=109.52               H27-C1-O2=109.56               H27-C1-H26=109.77              H28-C1-O2=106.55               
H28-C1-H26=110.69              H28-C1-H27=110.68              C3-O2-C1=116.00                O4-C3-O2=124.03                
C5-C3-O2=112.80                C5-C3-O4=123.18                C6-C5-C3=124.53                N25-C5-C3=114.47               
N25-C5-C6=120.93               O7-C6-C5=124.64                C8-C6-C5=119.31                C8-C6-O7=116.05                
H29-O7-C6=115.00               O9-C8-C6=120.96                N10-C8-C6=113.87               N10-C8-O9=125.06               
C11-N10-C8=123.57              
 
 selected dihedral angles (degree)
 ---------------------------------
C3-O2-C1-H26=298.55           C3-O2-C1-H27= 59.01           C3-O2-C1-H28=178.78           O4-C3-O2-C1=359.86            
C5-C3-O2-C1=180.22            C6-C5-C3-O2=348.36            C6-C5-C3-O4=168.72            N25-C5-C3-O2=171.38           
N25-C5-C3-O4=351.74           O7-C6-C5-C3= 13.29            O7-C6-C5-N25=190.08           C8-C6-C5-C3=193.03            
C8-C6-C5-N25=  9.82           H29-O7-C6-C5=  3.34           H29-O7-C6-C8=183.59           O9-C8-C6-C5=165.52            
O9-C8-C6-O7=345.28            N10-C8-C6-C5=341.99           N10-C8-C6-O7=161.76           C11-N10-C8-C6= 10.34          
C11-N10-C8-O9=186.65          
           -------------------------------------------------
          |                Final Singlepoint                |
           -------------------------------------------------

          ...................................................
          :                      SETUP                      :
          :.................................................:
          :  # basis functions                 134          :
          :  # atomic orbitals                 134          :
          :  # shells                           84          :
          :  # electrons                       134          :
          :  # halogen bonds                     0          :
          :  max. iterations                   250          :
          :  Hamiltonian                  GFN1-xTB          :
          :  restarted?                      false          :
          :  GBSA solvation                   true          :
          :  PC potential                    false          :
          :  electronic temp.          300.0000000     K    :
          :  accuracy                    1.0000000          :
          :  -> integral cutoff          0.2500000E+02      :
          :  -> integral neglect         0.1000000E-07      :
          :  -> SCF convergence          0.1000000E-05 Eh   :
          :  -> wf. convergence          0.2000000E-04 e    :
          :  Broyden damping             0.4000000          :
          ...................................................

 iter      E             dE          RMSdq      gap      omega  full diag
   1    -83.7026758 -0.837027E+02  0.465E-06    0.94       0.0  T
   2    -83.7026758 -0.127898E-12  0.247E-06    0.94    6249.8  T
   3    -83.7026758  0.170530E-12  0.117E-06    0.94   13160.3  T

   *** convergence criteria satisfied after 3 iterations ***

         #    Occupation            Energy/Eh            Energy/eV
      -------------------------------------------------------------
         1        2.0000           -0.8648113             -23.5327
       ...           ...                  ...                  ...
        61        2.0000           -0.4667404             -12.7007
        62        2.0000           -0.4616163             -12.5612
        63        2.0000           -0.4584292             -12.4745
        64        2.0000           -0.4533560             -12.3364
        65        2.0000           -0.4482444             -12.1974
        66        2.0000           -0.4297006             -11.6927
        67        2.0000           -0.4251807             -11.5698 (HOMO)
        68                         -0.3906273             -10.6295 (LUMO)
        69                         -0.3241354              -8.8202
        70                         -0.3119345              -8.4882
        71                         -0.2580141              -7.0209
        72                         -0.2382385              -6.4828
       ...                                ...                  ...
       134                          0.7311647              19.8960
      -------------------------------------------------------------
                  HL-Gap            0.0345534 Eh            0.9402 eV
             Fermi-level           -0.4078999 Eh          -11.0995 eV

 SCC (total)                   0 d,  0 h,  0 min,  0.132 sec
 SCC setup                      ...        0 min,  0.002 sec (  1.404%)
 Dispersion                     ...        0 min,  0.000 sec (  0.252%)
 classical contributions        ...        0 min,  0.000 sec (  0.082%)
 integral evaluation            ...        0 min,  0.035 sec ( 26.665%)
 iterations                     ...        0 min,  0.012 sec (  8.725%)
 molecular gradient             ...        0 min,  0.082 sec ( 62.130%)
 printout                       ...        0 min,  0.001 sec (  0.696%)

         :::::::::::::::::::::::::::::::::::::::::::::::::::::
         ::                     SUMMARY                     ::
         :::::::::::::::::::::::::::::::::::::::::::::::::::::
         :: total energy             -82.937415382102 Eh    ::
         :: total w/o Gsasa/hb       -82.915870841176 Eh    ::
         :: gradient norm              0.000774709893 Eh/a0 ::
         :: HOMO-LUMO gap              0.940246459643 eV    ::
         ::.................................................::
         :: SCC energy               -83.702675835855 Eh    ::
         :: -> electrostatic           0.363218574557 Eh    ::
         :: -> Gsolv                  -0.059425831860 Eh    ::
         ::    -> Gelec               -0.037881290933 Eh    ::
         ::    -> Gsasa               -0.023817178163 Eh    ::
         ::    -> Ghb                 -0.005351641768 Eh    ::
         ::    -> Gshift               0.007624279005 Eh    ::
         :: repulsion energy           0.792341908878 Eh    ::
         :: dispersion energy         -0.027081455126 Eh    ::
         :: halogen bond corr.         0.000000000000 Eh    ::
         :: add. restraining           0.000000000000 Eh    ::
         :: total charge               0.000000000217 e     ::
         :::::::::::::::::::::::::::::::::::::::::::::::::::::

           -------------------------------------------------
          |                Property Printout                |
           -------------------------------------------------

    * Orbital Energies and Occupations

         #    Occupation            Energy/Eh            Energy/eV
      -------------------------------------------------------------
         1        2.0000           -0.8648113             -23.5327
       ...           ...                  ...                  ...
        55        2.0000           -0.5069912             -13.7959
        56        2.0000           -0.5024292             -13.6718
        57        2.0000           -0.5019705             -13.6593
        58        2.0000           -0.4954653             -13.4823
        59        2.0000           -0.4896478             -13.3240
        60        2.0000           -0.4835045             -13.1568
        61        2.0000           -0.4667404             -12.7007
        62        2.0000           -0.4616163             -12.5612
        63        2.0000           -0.4584292             -12.4745
        64        2.0000           -0.4533560             -12.3364
        65        2.0000           -0.4482444             -12.1974
        66        2.0000           -0.4297006             -11.6927
        67        2.0000           -0.4251807             -11.5698 (HOMO)
        68                         -0.3906273             -10.6295 (LUMO)
        69                         -0.3241354              -8.8202
        70                         -0.3119345              -8.4882
        71                         -0.2580141              -7.0209
        72                         -0.2382385              -6.4828
        73                         -0.2005123              -5.4562
        74                         -0.1914062              -5.2084
        75                         -0.1432813              -3.8989
        76                         -0.1428241              -3.8864
        77                         -0.1367064              -3.7200
        78                         -0.1238301              -3.3696
       ...                                ...                  ...
       134                          0.7311647              19.8960
      -------------------------------------------------------------
                  HL-Gap            0.0345534 Eh            0.9402 eV
             Fermi-level           -0.4078999 Eh          -11.0995 eV

  Mulliken/CM5 charges         n(s)   n(p)   n(d)
     1C     0.16049  0.03849   0.987  2.853  0.000
     2O    -0.42256 -0.52160   1.692  4.731  0.000
     3C     0.58417  0.65138   0.969  2.447  0.000
     4O    -0.52753 -0.57255   1.720  4.808  0.000
     5C     0.10548  0.19381   1.053  2.842  0.000
     6C     0.30401  0.34135   1.077  2.619  0.000
     7O    -0.43429 -0.62815   1.684  4.750  0.000
     8C     0.46012  0.57340   0.968  2.572  0.000
     9O    -0.61431 -0.64873   1.729  4.886  0.000
    10N    -0.42045 -0.60686   1.554  3.867  0.000
    11C     0.26638  0.38311   1.037  2.697  0.000
    12C    -0.06827 -0.20113   1.027  3.041  0.000
    13C     0.17902  0.22040   1.077  2.744  0.000
    14C    -0.10539 -0.24319   1.021  3.084  0.000
    15C    -0.10556 -0.24551   1.018  3.087  0.000
    16N    -0.33859 -0.69191   1.436  3.903  0.000
    17C     0.47051  0.57920   0.976  2.554  0.000
    18O    -0.56747 -0.61187   1.725  4.842  0.000
    19C     0.33285  0.45857   1.008  2.660  0.000
    20N    -0.23989 -0.35079   1.567  3.672  0.000
    21N    -0.26424 -0.37169   1.564  3.700  0.000
    22C     0.38879  0.49724   1.008  2.603  0.000
    23C    -0.11098 -0.24824   1.012  3.099  0.000
    24O    -0.33865 -0.39020   1.691  4.648  0.000
    25N    -0.28403 -0.47761   1.565  3.719  0.000
    26H     0.06455  0.12627   0.935  0.000  0.000
    27H     0.06482  0.12680   0.935  0.000  0.000
    28H     0.06603  0.12641   0.934  0.000  0.000
    29H     0.42697  0.61267   0.573  0.000  0.000
    30H     0.05973  0.12099   0.940  0.000  0.000
    31H     0.05922  0.11788   0.941  0.000  0.000
    32H     0.06117  0.12058   0.939  0.000  0.000
    33H     0.04900  0.10996   0.951  0.000  0.000
    34H     0.05761  0.11510   0.942  0.000  0.000
    35H     0.04800  0.10652   0.952  0.000  0.000
    36H     0.04592  0.10540   0.954  0.000  0.000
    37H     0.06418  0.12399   0.936  0.000  0.000
    38H     0.04882  0.10734   0.951  0.000  0.000
    39H     0.24714  0.46126   0.753  0.000  0.000
    40H     0.07935  0.13366   0.921  0.000  0.000
    41H     0.06931  0.12504   0.931  0.000  0.000
    42H     0.07858  0.13320   0.921  0.000  0.000

Wiberg/Mayer (AO) data.
largest (>0.10) Wiberg bond orders for each atom

 ---------------------------------------------------------------------------
     #   Z sym  total        # sym  WBO       # sym  WBO       # sym  WBO
 ---------------------------------------------------------------------------
     1   6 C    3.848 --    28 H    0.985    27 H    0.979    26 H    0.979
                             2 O    0.872
     2   8 O    2.217 --     3 C    1.112     1 C    0.872     4 O    0.138
     3   6 C    3.849 --     4 O    1.699     2 O    1.112     5 C    0.958
     4   8 O    1.960 --     3 C    1.699     2 O    0.138
     5   6 C    3.965 --    25 N    1.569     6 C    1.209     3 C    0.958
     6   6 C    3.825 --     7 O    1.263     5 C    1.209     8 C    0.983
                            10 N    0.172
     7   8 O    2.216 --     6 C    1.263    29 H    0.773
     8   6 C    3.933 --     9 O    1.543    10 N    1.307     6 C    0.983
     9   8 O    1.845 --     8 C    1.543    10 N    0.168
    10   7 N    3.046 --     8 C    1.307    11 C    1.056     6 C    0.172
                             9 O    0.168    25 N    0.158
    11   6 C    3.941 --    10 N    1.056    25 N    1.037    12 C    0.888
                            13 C    0.863
    12   6 C    3.977 --    31 H    0.984    32 H    0.983    30 H    0.980
                            11 C    0.888
    13   6 C    3.919 --    15 C    1.004    14 C    0.986    16 N    0.939
                            11 C    0.863
    14   6 C    3.991 --    13 C    0.986    35 H    0.984    33 H    0.984
                            34 H    0.981
    15   6 C    3.989 --    13 C    1.004    38 H    0.983    36 H    0.982
                            37 H    0.972
    16   7 N    3.350 --    17 C    1.242    13 C    0.939    39 H    0.882
                            18 O    0.172
    17   6 C    3.915 --    18 O    1.600    16 N    1.242    19 C    0.988
    18   8 O    1.912 --    17 C    1.600    16 N    0.172
    19   6 C    3.874 --    20 N    1.611    24 O    1.063    17 C    0.988
    20   7 N    3.016 --    19 C    1.611    21 N    1.201
    21   7 N    2.980 --    22 C    1.604    20 N    1.201
    22   6 C    3.870 --    21 N    1.604    24 O    1.083    23 C    1.031
    23   6 C    3.986 --    22 C    1.031    41 H    0.982    42 H    0.965
                            40 H    0.961
    24   8 O    2.330 --    22 C    1.083    19 C    1.063
    25   7 N    3.033 --     5 C    1.569    11 C    1.037    10 N    0.158
    26   1 H    1.003 --     1 C    0.979
    27   1 H    1.004 --     1 C    0.979
    28   1 H    1.007 --     1 C    0.985
    29   1 H    0.833 --     7 O    0.773
    30   1 H    1.005 --    12 C    0.980
    31   1 H    1.003 --    12 C    0.984
    32   1 H    1.002 --    12 C    0.983
    33   1 H    1.004 --    14 C    0.984
    34   1 H    1.001 --    14 C    0.981
    35   1 H    1.003 --    14 C    0.984
    36   1 H    1.010 --    15 C    0.982
    37   1 H    1.011 --    15 C    0.972
    38   1 H    1.002 --    15 C    0.983
    39   1 H    0.971 --    16 N    0.882
    40   1 H    0.997 --    23 C    0.961
    41   1 H    0.998 --    23 C    0.982
    42   1 H    0.997 --    23 C    0.965
 ---------------------------------------------------------------------------

Topologies differ in total number of bonds
Writing topology from bond orders to xtbtopo.mol

 dipole moment from electron density (au)
     X       Y       Z   
  -2.7161   0.3010  -1.1487  total (Debye):    7.534

           -------------------------------------------------
          |                Geometry Summary                 |
           -------------------------------------------------

      molecular mass/u    :      351.3152409
   center of mass at/Å    :        0.0324647      -0.1771513       0.0798492
  moments of inertia/u·Å² :        0.8685394E+03   0.5098144E+04   0.5666120E+04
rotational constants/cm⁻¹ :        0.1940917E-01   0.3306621E-02   0.2975164E-02

 * 37 selected distances

     #   Z          #   Z                                           value/Å
     1   6 C        2   8 O                                       1.4401052
     2   8 O        3   6 C                                       1.3315610
     3   6 C        4   8 O                                       1.2022147
     5   6 C        6   6 C                                       1.4215497
     6   6 C        7   8 O                                       1.2973844
     8   6 C        9   8 O                                       1.2264421
     8   6 C       10   7 N                                       1.3371456
    10   7 N       11   6 C                                       1.4056508
    13   6 C       14   6 C                                       1.5327186 (max)
    13   6 C       15   6 C                                       1.5255504
    13   6 C       16   7 N                                       1.4566709
    16   7 N       17   6 C                                       1.3507758
    17   6 C       18   8 O                                       1.2172063
    19   6 C       20   7 N                                       1.2990830
    21   7 N       22   6 C                                       1.2988737
    22   6 C       23   6 C                                       1.4794544
    19   6 C       24   8 O                                       1.3456126
    22   6 C       24   8 O                                       1.3409080
     5   6 C       25   7 N                                       1.3012711
    11   6 C       25   7 N                                       1.4124829
     1   6 C       26   1 H                                       1.0914282
     1   6 C       27   1 H                                       1.0912671
     1   6 C       28   1 H                                       1.0864063
     7   8 O       29   1 H                                       0.9771879 (min)
    12   6 C       30   1 H                                       1.0872508
    12   6 C       31   1 H                                       1.0862277
    12   6 C       32   1 H                                       1.0875696
    14   6 C       33   1 H                                       1.0887719
    14   6 C       34   1 H                                       1.0892829
    14   6 C       35   1 H                                       1.0885240
    15   6 C       36   1 H                                       1.0889499
    15   6 C       37   1 H                                       1.0887783
    15   6 C       38   1 H                                       1.0880186
    16   7 N       39   1 H                                       1.0159758
    23   6 C       40   1 H                                       1.0906219
    23   6 C       41   1 H                                       1.0877940
    23   6 C       42   1 H                                       1.0896758

 * 6 distinct bonds (by element types)

   Z      Z             #   av. dist./Å        max./Å        min./Å
   1 H    6 C          15     1.0887045     1.0914282     1.0862277
   6 C    6 C           4     1.4898183     1.5327186     1.4215497
   1 H    7 N           1     1.0159758     1.0159758     1.0159758
   6 C    7 N           8     1.3577442     1.4566709     1.2988737
   1 H    8 O           1     0.9771879     0.9771879     0.9771879
   6 C    8 O           8     1.3001793     1.4401052     1.2022147


optimized geometry written to: xtbopt.xyz


           -------------------------------------------------
          | TOTAL ENERGY              -82.937415382102 Eh   |
          | GRADIENT NORM               0.000774709893 Eh/α |
          | HOMO-LUMO GAP               0.940246459643 eV   |
           -------------------------------------------------

------------------------------------------------------------------------
 * finished run on 2023/06/20 at 18:18:03.968     
------------------------------------------------------------------------
 total:
 * wall-time:     0 d,  0 h,  0 min,  5.959 sec
 *  cpu-time:     0 d,  0 h,  0 min,  5.857 sec
 * ratio c/w:     0.983 speedup
 SCF:
 * wall-time:     0 d,  0 h,  0 min,  0.199 sec
 *  cpu-time:     0 d,  0 h,  0 min,  0.172 sec
 * ratio c/w:     0.867 speedup
 ANC optimizer:
 * wall-time:     0 d,  0 h,  0 min,  5.650 sec
 *  cpu-time:     0 d,  0 h,  0 min,  5.637 sec
 * ratio c/w:     0.998 speedup

