      -----------------------------------------------------------      
     |                   =====================                   |     
     |                           x T B                           |     
     |                   =====================                   |     
     |                         S. Grimme                         |     
     |          Mulliken Center for Theoretical Chemistry        |     
     |                    University of Bonn                     |     
      -----------------------------------------------------------      

   * xtb version 6.5.1 (579679a) compiled by 'ehlert@majestix' on 2022-07-11

   xtb is free software: you can redistribute it and/or modify it under
   the terms of the GNU Lesser General Public License as published by
   the Free Software Foundation, either version 3 of the License, or
   (at your option) any later version.
   
   xtb is distributed in the hope that it will be useful,
   but WITHOUT ANY WARRANTY; without even the implied warranty of
   MERCHANTABILITY or FITNESS FOR A PARTICULAR PURPOSE.  See the
   GNU Lesser General Public License for more details.
   
   Cite this work as:
   * C. Bannwarth, E. Caldeweyher, S. Ehlert, A. Hansen, P. Pracht,
     J. Seibert, S. Spicher, S. Grimme, WIREs Comput. Mol. Sci., 2020, 11,
     e01493. DOI: 10.1002/wcms.1493
   
   for GFN2-xTB:
   * C. Bannwarth, S. Ehlert and S. Grimme., J. Chem. Theory Comput., 2019,
     15, 1652-1671. DOI: 10.1021/acs.jctc.8b01176
   for GFN1-xTB:
   * S. Grimme, C. Bannwarth, P. Shushkov, J. Chem. Theory Comput., 2017,
     13, 1989-2009. DOI: 10.1021/acs.jctc.7b00118
   for GFN0-xTB:
   * P. Pracht, E. Caldeweyher, S. Ehlert, S. Grimme, ChemRxiv, 2019, preprint.
     DOI: 10.26434/chemrxiv.8326202.v1
   for GFN-FF:
   * S. Spicher and S. Grimme, Angew. Chem. Int. Ed., 2020, 59, 15665-15673.
     DOI: 10.1002/anie.202004239
   
   for ALPB and GBSA implicit solvation:
   * S. Ehlert, M. Stahn, S. Spicher, S. Grimme, J. Chem. Theory Comput.,
     2021, 17, 4250-4261. DOI: 10.1021/acs.jctc.1c00471
   
   for DFT-D4:
   * E. Caldeweyher, C. Bannwarth and S. Grimme, J. Chem. Phys., 2017,
     147, 034112. DOI: 10.1063/1.4993215
   * E. Caldeweyher, S. Ehlert, A. Hansen, H. Neugebauer, S. Spicher,
     C. Bannwarth and S. Grimme, J. Chem. Phys., 2019, 150, 154122.
     DOI: 10.1063/1.5090222
   * E. Caldeweyher, J.-M. Mewes, S. Ehlert and S. Grimme, Phys. Chem. Chem. Phys.
     2020, 22, 8499-8512. DOI: 10.1039/D0CP00502A
   
   for sTDA-xTB:
   * S. Grimme and C. Bannwarth, J. Chem. Phys., 2016, 145, 054103.
     DOI: 10.1063/1.4959605
   
   in the mass-spec context:
   * V. Asgeirsson, C. Bauer and S. Grimme, Chem. Sci., 2017, 8, 4879.
     DOI: 10.1039/c7sc00601b
   * J. Koopman and S. Grimme, ACS Omega 2019, 4, 12, 15120-15133.
     DOI: 10.1021/acsomega.9b02011
   
   for metadynamics refer to:
   * S. Grimme, J. Chem. Theory Comput., 2019, 155, 2847-2862
     DOI: 10.1021/acs.jctc.9b00143
   
   for SPH calculations refer to:
   * S. Spicher and S. Grimme, J. Chem. Theory Comput., 2021, 17, 1701-1714
     DOI: 10.1021/acs.jctc.0c01306
   
   with help from (in alphabetical order)
   P. Atkinson, C. Bannwarth, F. Bohle, G. Brandenburg, E. Caldeweyher
   M. Checinski, S. Dohm, S. Ehlert, S. Ehrlich, I. Gerasimov, C. Hölzer
   A. Katbashev, J. Koopman, C. Lavigne, S. Lehtola, F. März, M. Müller,
   F. Musil, H. Neugebauer, J. Pisarek, C. Plett, P. Pracht, F. Pultar,
   J. Seibert, P. Shushkov, S. Spicher, M. Stahn, M. Steiner, T. Strunk,
   J. Stückrath, T. Rose, and J. Unsleber
   
 * started run on 2023/06/21 at 17:02:20.395     

           -------------------------------------------------
          |                Calculation Setup                |
           -------------------------------------------------

          program call               : /lustre/hpc/kemi/ree/PhD/git/ReactivityQM/dep/xtb-6.5.1/bin/xtb --gfn 1 /lustre/hpc/kemi/ree/PhD/git/ReactivityQM/calculations/R02oxygendeprot/reac01prodE02/conf19/R02oxygendeprot_reac01prodE02_conf19_gfn1.xyz --opt --vfukui --chrg -2 --uhf 0 --alpb DMSO
          hostname                   : node070
          coordinate file            : /lustre/hpc/kemi/ree/PhD/git/ReactivityQM/calculations/R02oxygendeprot/reac01prodE02/conf19/R02oxygendeprot_reac01prodE02_conf19_gfn1.xyz
          omp threads                :                     1

   ID    Z sym.   atoms
    1    6 C      1, 3, 4, 6, 8-11, 13, 15, 18, 19, 22, 24
    2    8 O      2, 5, 14, 20, 23, 25
    3    7 N      7, 12, 16, 17, 21
    4    1 H      26-42

           -------------------------------------------------
          |                 G F N 1 - x T B                 |
           -------------------------------------------------

        Reference                      10.1021/acs.jctc.7b00118
      * Hamiltonian:
        H0-scaling (s, p, d)           1.850000    2.250000    2.000000
        zeta-weighting                 0.000000
      * Dispersion:
        s8                             2.400000
        a1                             0.630000
        a2                             5.000000
        s9                             0.000000
      * Repulsion:
        kExp                           1.500000
        rExp                           1.000000
      * Coulomb:
        alpha                          2.000000
        third order                    atomic
        anisotropic                    false
      * Halogen bond correction:
        rad-scale                      1.300000
        damping                        0.440000

      * Solvation model:               ALPB
        Solvent                        DMSO
        Parameter file                 internal GFN1-xTB/ALPB
        Dielectric constant                4.6680E+01
        Reference state                gsolv [1 M gas/solution]
        Free energy shift                  7.6243E-03 Eh       4.7843E+00 kcal/mol
        Temperature                        2.9815E+02 K
        Density                            1.1000E+00 kg/L
        Solvent mass                       7.8130E+01 g/mol
        Interaction kernel             P16
        Born radius scaling (c1)           1.7672E+00
        Born radii integrator          GBOBC
        Born offset                        0.0000E+00 a0       0.0000E+00 AA
        H-bond correction              true
        Ion screening                  false
        Surface tension                    1.0000E-05 Eh       1.5569E+01 dyn/cm
        Grid points                               230 per atom

          ...................................................
          :                      SETUP                      :
          :.................................................:
          :  # basis functions                 134          :
          :  # atomic orbitals                 134          :
          :  # shells                           84          :
          :  # electrons                       136          :
          :  # halogen bonds                     0          :
          :  max. iterations                   250          :
          :  Hamiltonian                  GFN1-xTB          :
          :  restarted?                      false          :
          :  GBSA solvation                   true          :
          :  PC potential                    false          :
          :  electronic temp.          300.0000000     K    :
          :  accuracy                    1.0000000          :
          :  -> integral cutoff          0.2500000E+02      :
          :  -> integral neglect         0.1000000E-07      :
          :  -> SCF convergence          0.1000000E-05 Eh   :
          :  -> wf. convergence          0.2000000E-04 e    :
          :  Broyden damping             0.4000000          :
          ...................................................

 iter      E             dE          RMSdq      gap      omega  full diag
   1    -83.9712422 -0.839712E+02  0.865E+00    2.46       0.0  T
   2    -84.2879941 -0.316752E+00  0.520E+00    0.95       1.0  T
   3    -83.6112886  0.676706E+00  0.317E+00    0.39       1.0  T
   4    -84.2468666 -0.635578E+00  0.135E+00    2.04       1.0  T
   5    -84.3035879 -0.567214E-01  0.635E-01    1.12       1.0  T
   6    -84.3084675 -0.487964E-02  0.463E-01    0.85       1.0  T
   7    -84.3140482 -0.558068E-02  0.287E-01    0.45       1.0  T
   8    -84.3189945 -0.494628E-02  0.899E-02    0.14       1.0  T
   9    -84.3190364 -0.419185E-04  0.569E-02    0.12       1.0  T
  10    -84.3149457  0.409076E-02  0.230E-01    0.39       1.0  T
  11    -84.3174514 -0.250571E-02  0.132E-01    0.21       1.0  T
  12    -84.0141595  0.303292E+00  0.165E+00    0.07       1.0  T
  13    -84.3162075 -0.302048E+00  0.179E-01    0.26       1.0  T
  14    -84.3191927 -0.298525E-02  0.446E-02    0.15       1.0  T
  15    -84.3180965  0.109622E-02  0.110E-01    0.18       1.0  T
  16    -84.3190892 -0.992728E-03  0.533E-02    0.15       1.0  T
  17    -84.3189107  0.178593E-03  0.666E-02    0.16       1.0  T
  18    -84.3192596 -0.348948E-03  0.344E-02    0.15       1.0  T
  19    -84.3192902 -0.305732E-04  0.294E-02    0.14       1.0  T
  20    -84.3193790 -0.888291E-04  0.395E-03    0.14       3.9  T
  21    -84.3193801 -0.114748E-05  0.157E-03    0.13       9.8  T
  22    -84.3193804 -0.269223E-06  0.300E-05    0.13     513.6  T
  23    -84.3193804  0.511577E-09  0.699E-05    0.13     220.6  T

   *** convergence criteria satisfied after 23 iterations ***

         #    Occupation            Energy/Eh            Energy/eV
      -------------------------------------------------------------
         1        2.0000           -0.8421305             -22.9155
       ...           ...                  ...                  ...
        62        2.0000           -0.4004055             -10.8956
        63        2.0000           -0.3906111             -10.6291
        64        2.0000           -0.3854961             -10.4899
        65        2.0000           -0.3420996              -9.3090
        66        2.0000           -0.3259907              -8.8707
        67        2.0000           -0.3112910              -8.4707
        68        1.8613           -0.3025165              -8.2319 (HOMO)
        69        0.1387           -0.2975819              -8.0976 (LUMO)
        70                         -0.2451084              -6.6697
        71                         -0.2156761              -5.8688
        72                         -0.1979015              -5.3852
        73                         -0.1825752              -4.9681
       ...                                ...                  ...
       134                          0.8228984              22.3922
      -------------------------------------------------------------
                  HL-Gap            0.0049346 Eh            0.1343 eV
             Fermi-level           -0.3000491 Eh           -8.1648 eV

 SCC (total)                   0 d,  0 h,  0 min,  0.214 sec
 SCC setup                      ...        0 min,  0.001 sec (  0.648%)
 Dispersion                     ...        0 min,  0.000 sec (  0.125%)
 classical contributions        ...        0 min,  0.000 sec (  0.041%)
 integral evaluation            ...        0 min,  0.024 sec ( 11.192%)
 iterations                     ...        0 min,  0.136 sec ( 63.856%)
 molecular gradient             ...        0 min,  0.051 sec ( 23.790%)
 printout                       ...        0 min,  0.001 sec (  0.338%)

         :::::::::::::::::::::::::::::::::::::::::::::::::::::
         ::                     SUMMARY                     ::
         :::::::::::::::::::::::::::::::::::::::::::::::::::::
         :: total energy             -83.591836837867 Eh    ::
         :: total w/o Gsasa/hb       -83.573192453140 Eh    ::
         :: gradient norm              0.137580116718 Eh/a0 ::
         :: HOMO-LUMO gap              0.134277596495 eV    ::
         ::.................................................::
         :: SCC energy               -84.319380416818 Eh    ::
         :: -> electrostatic           0.754314186485 Eh    ::
         :: -> Gsolv                  -0.296689356960 Eh    ::
         ::    -> Gelec               -0.278044972233 Eh    ::
         ::    -> Gsasa               -0.023345948284 Eh    ::
         ::    -> Ghb                 -0.002922715448 Eh    ::
         ::    -> Gshift               0.007624279005 Eh    ::
         :: repulsion energy           0.754016206210 Eh    ::
         :: dispersion energy         -0.026472627259 Eh    ::
         :: halogen bond corr.         0.000000000000 Eh    ::
         :: add. restraining           0.000000000000 Eh    ::
         :: total charge              -2.000000000000 e     ::
         :::::::::::::::::::::::::::::::::::::::::::::::::::::

      ----------------------------------------------------------- 
     |                   =====================                   |
     |                        A N C O P T                        |
     |                   =====================                   |
     |               Approximate Normal Coordinate               |
     |                Rational Function Optimizer                |
      ----------------------------------------------------------- 

          ...................................................
          :                      SETUP                      :
          :.................................................:
          :   optimization level            normal          :
          :   max. optcycles                   200          :
          :   ANC micro-cycles                  20          :
          :   degrees of freedom               120          :
          :.................................................:
          :   RF solver                   davidson          :
          :   write xtbopt.log                true          :
          :   linear?                        false          :
          :   energy convergence         0.5000000E-05 Eh   :
          :   grad. convergence          0.1000000E-02 Eh/α :
          :   maximium RF displ.         1.0000000          :
          :   Hlow (freq-cutoff)         0.1000000E-01      :
          :   Hmax (freq-cutoff)         5.0000000          :
          :   S6 in model hess.         20.0000000          :
          ...................................................

generating ANC from model Hessian ...
Using Lindh-Hessian (1995)
 Shifting diagonal of input Hessian by   9.808832584570666E-003
 Lowest  eigenvalues of input Hessian
    0.000000    0.000000    0.000000    0.000000    0.000000    0.000000
    0.010000    0.010079    0.010498    0.010637    0.010860    0.011840
    0.012981    0.013411    0.014370    0.014821    0.015808    0.016376
 Highest eigenvalues
    1.917523    2.046932    2.087702    2.252574    2.292450    2.410254
 

........................................................................
.............................. CYCLE    1 ..............................
........................................................................
   1    -84.3193804 -0.843194E+02  0.139E-04    0.13       0.0  T
   2    -84.3193803  0.108511E-06  0.976E-04    0.13      15.8  T
   3    -84.3193804 -0.110663E-06  0.128E-05    0.13    1207.4  T
   4    -84.3193804 -0.192699E-10  0.163E-06    0.13    9466.0  T
     SCC iter.                  ...        0 min,  0.021 sec
     gradient                   ...        0 min,  0.040 sec
 * total energy  :   -83.5918368 Eh     change       -0.5876615E-09 Eh
   gradient norm :     0.1375827 Eh/α   predicted     0.0000000E+00 (-100.00%)
   displ. norm   :     0.3155412 α      lambda       -0.1770724E-01
   maximum displ.:     0.1246539 α      in ANC's #15, #16, #7, ...

........................................................................
.............................. CYCLE    2 ..............................
........................................................................
   1    -84.3245635 -0.843246E+02  0.175E-01    0.34       0.0  T
   2    -83.9369201  0.387643E+00  0.187E+00    0.09       1.0  T
   3    -84.3261323 -0.389212E+00  0.136E-01    0.26       1.0  T
   4    -84.3266131 -0.480730E-03  0.104E-01    0.23       1.0  T
   5    -84.3270636 -0.450546E-03  0.804E-02    0.20       1.0  T
   6    -84.3274678 -0.404149E-03  0.496E-02    0.18       1.0  T
   7    -84.3276390 -0.171281E-03  0.268E-02    0.17       1.0  T
   8    -84.3276972 -0.582026E-04  0.128E-02    0.16       1.2  T
   9    -84.3277063 -0.908115E-05  0.844E-03    0.16       1.8  T
  10    -84.3277130 -0.672358E-05  0.256E-03    0.16       6.0  T
  11    -84.3277137 -0.627886E-06  0.443E-04    0.15      34.8  T
  12    -84.3277137 -0.176786E-07  0.125E-04    0.15     123.3  T
  13    -84.3277137 -0.155968E-08  0.933E-06    0.15    1653.2  T
     SCC iter.                  ...        0 min,  0.068 sec
     gradient                   ...        0 min,  0.056 sec
 * total energy  :   -83.6046680 Eh     change       -0.1283121E-01 Eh
   gradient norm :     0.0720358 Eh/α   predicted    -0.9758899E-02 ( -23.94%)
   displ. norm   :     0.3246275 α      lambda       -0.8966603E-02
   maximum displ.:     0.1283728 α      in ANC's #15, #16, #7, ...

........................................................................
.............................. CYCLE    3 ..............................
........................................................................
   1    -84.3384847 -0.843385E+02  0.141E-01    0.34       0.0  T
   2    -84.3184898  0.199948E-01  0.437E-01    0.07       1.0  T
   3    -84.3394085 -0.209187E-01  0.967E-02    0.32       1.0  T
   4    -84.3396418 -0.233323E-03  0.716E-02    0.27       1.0  T
   5    -84.3398861 -0.244255E-03  0.475E-02    0.23       1.0  T
   6    -84.3400908 -0.204683E-03  0.536E-03    0.19       2.9  T
   7    -84.3400906  0.142170E-06  0.329E-03    0.18       4.7  T
   8    -84.3400917 -0.110589E-05  0.583E-04    0.19      26.5  T
   9    -84.3400918 -0.308253E-07  0.116E-04    0.19     132.6  T
  10    -84.3400918 -0.246231E-09  0.569E-05    0.19     271.2  T
     SCC iter.                  ...        0 min,  0.053 sec
     gradient                   ...        0 min,  0.057 sec
 * total energy  :   -83.6101073 Eh     change       -0.5439264E-02 Eh
   gradient norm :     0.0267127 Eh/α   predicted    -0.4955767E-02 (  -8.89%)
   displ. norm   :     0.2502247 α      lambda       -0.1646855E-02
   maximum displ.:     0.1188856 α      in ANC's #7, #16, #8, ...

........................................................................
.............................. CYCLE    4 ..............................
........................................................................
   1    -84.3431997 -0.843432E+02  0.496E-02    0.25       0.0  T
   2    -84.3425464  0.653303E-03  0.873E-02    0.15       1.0  T
   3    -84.3433349 -0.788454E-03  0.268E-02    0.23       1.0  T
   4    -84.3433791 -0.442005E-04  0.127E-02    0.22       1.2  T
   5    -84.3433905 -0.114314E-04  0.301E-03    0.21       5.1  T
   6    -84.3433906 -0.106068E-06  0.706E-04    0.20      21.8  T
   7    -84.3433907 -0.397669E-07  0.255E-04    0.20      60.5  T
   8    -84.3433907  0.344897E-10  0.185E-04    0.20      83.3  T
   9    -84.3433907 -0.242584E-08  0.511E-05    0.20     301.8  T
     SCC iter.                  ...        0 min,  0.048 sec
     gradient                   ...        0 min,  0.056 sec
 * total energy  :   -83.6113049 Eh     change       -0.1197545E-02 Eh
   gradient norm :     0.0177782 Eh/α   predicted    -0.8750750E-03 ( -26.93%)
   displ. norm   :     0.3112012 α      lambda       -0.1143135E-02
   maximum displ.:     0.1379362 α      in ANC's #7, #10, #8, ...

........................................................................
.............................. CYCLE    5 ..............................
........................................................................
   1    -84.3453458 -0.843453E+02  0.373E-02    0.25       0.0  T
   2    -84.3453860 -0.402367E-04  0.232E-02    0.21       1.0  T
   3    -84.3454174 -0.314444E-04  0.136E-02    0.24       1.1  T
   4    -84.3454297 -0.122408E-04  0.450E-03    0.23       3.4  T
   5    -84.3454297 -0.461704E-07  0.209E-03    0.23       7.4  T
   6    -84.3454298 -0.969923E-07  0.471E-04    0.22      32.8  T
   7    -84.3454298 -0.633473E-08  0.180E-04    0.23      85.7  T
   8    -84.3454298 -0.942777E-09  0.765E-05    0.23     201.7  T
     SCC iter.                  ...        0 min,  0.044 sec
     gradient                   ...        0 min,  0.056 sec
 * total energy  :   -83.6121035 Eh     change       -0.7986146E-03 Eh
   gradient norm :     0.0110945 Eh/α   predicted    -0.6269241E-03 ( -21.50%)
   displ. norm   :     0.2964902 α      lambda       -0.6030879E-03
   maximum displ.:     0.1253310 α      in ANC's #10, #8, #7, ...

........................................................................
.............................. CYCLE    6 ..............................
........................................................................
   1    -84.3467173 -0.843467E+02  0.227E-02    0.25       0.0  T
   2    -84.3467429 -0.256077E-04  0.831E-03    0.24       1.9  T
   3    -84.3467450 -0.208104E-05  0.515E-03    0.25       3.0  T
   4    -84.3467459 -0.915256E-06  0.232E-03    0.24       6.6  T
   5    -84.3467460 -0.196301E-07  0.110E-03    0.24      14.0  T
   6    -84.3467460 -0.495419E-07  0.211E-04    0.24      73.0  T
   7    -84.3467460 -0.169521E-08  0.898E-05    0.24     171.8  T
   8    -84.3467460 -0.157698E-09  0.342E-05    0.24     451.3  T
     SCC iter.                  ...        0 min,  0.043 sec
     gradient                   ...        0 min,  0.056 sec
 * total energy  :   -83.6125477 Eh     change       -0.4442678E-03 Eh
   gradient norm :     0.0098856 Eh/α   predicted    -0.3280522E-03 ( -26.16%)
   displ. norm   :     0.3239985 α      lambda       -0.4710549E-03
   maximum displ.:     0.1337044 α      in ANC's #8, #10, #3, ...

........................................................................
.............................. CYCLE    7 ..............................
........................................................................
   1    -84.3478303 -0.843478E+02  0.181E-02    0.26       0.0  T
   2    -84.3478474 -0.170274E-04  0.587E-03    0.26       2.6  T
   3    -84.3478481 -0.689465E-06  0.301E-03    0.25       5.1  T
   4    -84.3478481 -0.661718E-07  0.167E-03    0.26       9.2  T
   5    -84.3478481 -0.112099E-07  0.429E-04    0.25      36.0  T
   6    -84.3478481 -0.103529E-07  0.115E-04    0.25     133.8  T
   7    -84.3478481 -0.411617E-09  0.508E-05    0.25     303.5  T
     SCC iter.                  ...        0 min,  0.037 sec
     gradient                   ...        0 min,  0.056 sec
 * total energy  :   -83.6128898 Eh     change       -0.3420267E-03 Eh
   gradient norm :     0.0089570 Eh/α   predicted    -0.2602527E-03 ( -23.91%)
   displ. norm   :     0.2861688 α      lambda       -0.3190354E-03
   maximum displ.:     0.1234421 α      in ANC's #3, #8, #10, ...

........................................................................
.............................. CYCLE    8 ..............................
........................................................................
   1    -84.3489598 -0.843490E+02  0.155E-02    0.26       0.0  T
   2    -84.3489711 -0.112626E-04  0.715E-03    0.26       2.2  T
   3    -84.3489729 -0.183491E-05  0.275E-03    0.26       5.6  T
   4    -84.3489730 -0.574639E-07  0.166E-03    0.26       9.3  T
   5    -84.3489730 -0.194835E-07  0.406E-04    0.26      38.0  T
   6    -84.3489730 -0.345857E-08  0.630E-05    0.26     244.9  T
   7    -84.3489730 -0.987797E-10  0.323E-05    0.26     478.0  T
     SCC iter.                  ...        0 min,  0.037 sec
     gradient                   ...        0 min,  0.056 sec
 * total energy  :   -83.6131222 Eh     change       -0.2324119E-03 Eh
   gradient norm :     0.0068229 Eh/α   predicted    -0.1725829E-03 ( -25.74%)
   displ. norm   :     0.2577880 α      lambda       -0.2223658E-03
   maximum displ.:     0.1155289 α      in ANC's #3, #8, #2, ...

........................................................................
.............................. CYCLE    9 ..............................
........................................................................
   1    -84.3498799 -0.843499E+02  0.127E-02    0.26       0.0  T
   2    -84.3498867 -0.676611E-05  0.614E-03    0.26       2.5  T
   3    -84.3498882 -0.150298E-05  0.241E-03    0.26       6.4  T
   4    -84.3498882 -0.291827E-07  0.128E-03    0.26      12.1  T
   5    -84.3498882 -0.106374E-07  0.275E-04    0.26      56.0  T
   6    -84.3498882 -0.136828E-08  0.427E-05    0.26     361.3  T
   7    -84.3498882 -0.452047E-10  0.189E-05    0.26     815.2  T
     SCC iter.                  ...        0 min,  0.037 sec
     gradient                   ...        0 min,  0.056 sec
 * total energy  :   -83.6132798 Eh     change       -0.1576585E-03 Eh
   gradient norm :     0.0058094 Eh/α   predicted    -0.1185724E-03 ( -24.79%)
   displ. norm   :     0.2059258 α      lambda       -0.1397031E-03
   maximum displ.:     0.0929925 α      in ANC's #2, #3, #6, ...

........................................................................
.............................. CYCLE   10 ..............................
........................................................................
   1    -84.3504677 -0.843505E+02  0.729E-03    0.26       0.0  T
   2    -84.3504697 -0.197202E-05  0.304E-03    0.26       5.1  T
   3    -84.3504699 -0.237240E-06  0.158E-03    0.26       9.8  T
   4    -84.3504700 -0.156310E-07  0.638E-04    0.26      24.2  T
   5    -84.3504700 -0.612421E-08  0.175E-04    0.26      88.3  T
   6    -84.3504700 -0.536559E-09  0.375E-05    0.26     411.2  T
     SCC iter.                  ...        0 min,  0.032 sec
     gradient                   ...        0 min,  0.056 sec
 * total energy  :   -83.6133855 Eh     change       -0.1056570E-03 Eh
   gradient norm :     0.0056542 Eh/α   predicted    -0.7281392E-04 ( -31.08%)
   displ. norm   :     0.2406722 α      lambda       -0.1352251E-03
   maximum displ.:     0.1199235 α      in ANC's #2, #4, #6, ...

........................................................................
.............................. CYCLE   11 ..............................
........................................................................
   1    -84.3504137 -0.843504E+02  0.676E-03    0.26       0.0  T
   2    -84.3504154 -0.176840E-05  0.254E-03    0.26       6.1  T
   3    -84.3504155 -0.928599E-07  0.120E-03    0.26      12.8  T
   4    -84.3504155 -0.657786E-08  0.588E-04    0.26      26.2  T
   5    -84.3504155 -0.811615E-08  0.150E-04    0.26     102.7  T
   6    -84.3504155 -0.423270E-09  0.475E-05    0.26     324.5  T
     SCC iter.                  ...        0 min,  0.032 sec
     gradient                   ...        0 min,  0.056 sec
 * total energy  :   -83.6134868 Eh     change       -0.1012781E-03 Eh
   gradient norm :     0.0053957 Eh/α   predicted    -0.7153660E-04 ( -29.37%)
   displ. norm   :     0.2303927 α      lambda       -0.1167222E-03
   maximum displ.:     0.1280283 α      in ANC's #2, #4, #6, ...

........................................................................
.............................. CYCLE   12 ..............................
........................................................................
   1    -84.3504922 -0.843505E+02  0.874E-03    0.26       0.0  T
   2    -84.3504956 -0.331582E-05  0.350E-03    0.25       4.4  T
   3    -84.3504960 -0.481547E-06  0.146E-03    0.26      10.6  T
   4    -84.3504961 -0.434369E-07  0.797E-04    0.25      19.4  T
   5    -84.3504961 -0.779504E-08  0.254E-04    0.25      60.7  T
   6    -84.3504961 -0.107646E-08  0.590E-05    0.25     261.6  T
   7    -84.3504961 -0.152312E-09  0.245E-05    0.25     630.7  T
     SCC iter.                  ...        0 min,  0.037 sec
     gradient                   ...        0 min,  0.056 sec
 * total energy  :   -83.6135777 Eh     change       -0.9089780E-04 Eh
   gradient norm :     0.0046655 Eh/α   predicted    -0.6146234E-04 ( -32.38%)
   displ. norm   :     0.2427174 α      lambda       -0.1170778E-03
   maximum displ.:     0.1436340 α      in ANC's #2, #4, #6, ...

........................................................................
.............................. CYCLE   13 ..............................
........................................................................
   1    -84.3503005 -0.843503E+02  0.105E-02    0.26       0.0  T
   2    -84.3503051 -0.464401E-05  0.437E-03    0.25       3.5  T
   3    -84.3503061 -0.100007E-05  0.186E-03    0.25       8.3  T
   4    -84.3503062 -0.828599E-07  0.972E-04    0.25      15.9  T
   5    -84.3503062 -0.419487E-08  0.341E-04    0.25      45.2  T
   6    -84.3503062 -0.263283E-08  0.800E-05    0.25     192.8  T
   7    -84.3503062 -0.317257E-09  0.271E-05    0.25     569.4  T
     SCC iter.                  ...        0 min,  0.040 sec
     gradient                   ...        0 min,  0.058 sec
 * total energy  :   -83.6136681 Eh     change       -0.9038510E-04 Eh
   gradient norm :     0.0040795 Eh/α   predicted    -0.6199270E-04 ( -31.41%)
   displ. norm   :     0.2144207 α      lambda       -0.9911300E-04
   maximum displ.:     0.1347918 α      in ANC's #2, #4, #6, ...

........................................................................
.............................. CYCLE   14 ..............................
........................................................................
   1    -84.3507221 -0.843507E+02  0.906E-03    0.26       0.0  T
   2    -84.3507255 -0.336295E-05  0.369E-03    0.25       4.2  T
   3    -84.3507262 -0.762949E-06  0.178E-03    0.25       8.7  T
   4    -84.3507263 -0.824832E-07  0.877E-04    0.25      17.6  T
   5    -84.3507263 -0.213898E-08  0.302E-04    0.25      51.1  T
   6    -84.3507263 -0.205661E-08  0.722E-05    0.25     213.7  T
   7    -84.3507263 -0.227061E-09  0.237E-05    0.25     650.5  T
     SCC iter.                  ...        0 min,  0.040 sec
     gradient                   ...        0 min,  0.056 sec
 * total energy  :   -83.6137462 Eh     change       -0.7812727E-04 Eh
   gradient norm :     0.0042404 Eh/α   predicted    -0.5184392E-04 ( -33.64%)
   displ. norm   :     0.2408804 α      lambda       -0.9885719E-04
   maximum displ.:     0.1518838 α      in ANC's #2, #4, #6, ...

........................................................................
.............................. CYCLE   15 ..............................
........................................................................
   1    -84.3502702 -0.843503E+02  0.611E-03    0.26       0.0  T
   2    -84.3502716 -0.138230E-05  0.251E-03    0.25       6.1  T
   3    -84.3502720 -0.355465E-06  0.131E-03    0.25      11.7  T
   4    -84.3502720 -0.475532E-07  0.608E-04    0.25      25.4  T
   5    -84.3502720 -0.218350E-08  0.159E-04    0.25      97.2  T
   6    -84.3502720 -0.290001E-09  0.362E-05    0.25     426.1  T
     SCC iter.                  ...        0 min,  0.034 sec
     gradient                   ...        0 min,  0.057 sec
 * total energy  :   -83.6138257 Eh     change       -0.7946928E-04 Eh
   gradient norm :     0.0045227 Eh/α   predicted    -0.5229704E-04 ( -34.19%)
   displ. norm   :     0.2800558 α      lambda       -0.1105432E-03
   maximum displ.:     0.1805578 α      in ANC's #2, #4, #5, ...

........................................................................
.............................. CYCLE   16 ..............................
........................................................................
   1    -84.3509485 -0.843509E+02  0.488E-03    0.25       0.0  T
   2    -84.3509492 -0.758991E-06  0.210E-03    0.25       7.3  T
   3    -84.3509493 -0.935786E-07  0.112E-03    0.25      13.8  T
   4    -84.3509493 -0.142473E-07  0.531E-04    0.25      29.1  T
   5    -84.3509493 -0.773281E-08  0.160E-04    0.25      96.3  T
   6    -84.3509493 -0.547303E-09  0.503E-05    0.25     306.6  T
     SCC iter.                  ...        0 min,  0.033 sec
     gradient                   ...        0 min,  0.056 sec
 * total energy  :   -83.6139134 Eh     change       -0.8777755E-04 Eh
   gradient norm :     0.0050320 Eh/α   predicted    -0.5960805E-04 ( -32.09%)
   displ. norm   :     0.3420920 α      lambda       -0.1185751E-03
   maximum displ.:     0.2199522 α      in ANC's #2, #4, #5, ...

........................................................................
.............................. CYCLE   17 ..............................
........................................................................
   1    -84.3497940 -0.843498E+02  0.557E-03    0.25       0.0  T
   2    -84.3497950 -0.105206E-05  0.258E-03    0.25       6.0  T
   3    -84.3497952 -0.231606E-06  0.981E-04    0.25      15.7  T
   4    -84.3497953 -0.806845E-08  0.486E-04    0.25      31.7  T
   5    -84.3497953 -0.198699E-08  0.146E-04    0.25     105.6  T
   6    -84.3497953 -0.366228E-09  0.402E-05    0.25     384.1  T
     SCC iter.                  ...        0 min,  0.034 sec
     gradient                   ...        0 min,  0.056 sec
 * total energy  :   -83.6140067 Eh     change       -0.9329642E-04 Eh
   gradient norm :     0.0052352 Eh/α   predicted    -0.6622892E-04 ( -29.01%)
   displ. norm   :     0.3585323 α      lambda       -0.1294662E-03
   maximum displ.:     0.2375098 α      in ANC's #2, #4, #5, ...

........................................................................
.............................. CYCLE   18 ..............................
........................................................................
   1    -84.3503976 -0.843504E+02  0.674E-03    0.25       0.0  T
   2    -84.3503991 -0.148103E-05  0.314E-03    0.25       4.9  T
   3    -84.3503996 -0.531150E-06  0.131E-03    0.25      11.8  T
   4    -84.3503997 -0.298078E-07  0.557E-04    0.25      27.7  T
   5    -84.3503997 -0.215796E-08  0.226E-04    0.25      68.3  T
   6    -84.3503997 -0.128836E-08  0.500E-05    0.25     308.5  T
   7    -84.3503997 -0.757154E-10  0.181E-05    0.25     852.0  T
     SCC iter.                  ...        0 min,  0.037 sec
     gradient                   ...        0 min,  0.056 sec
 * total energy  :   -83.6141086 Eh     change       -0.1018707E-03 Eh
   gradient norm :     0.0050057 Eh/α   predicted    -0.7305575E-04 ( -28.29%)
   displ. norm   :     0.4235437 α      lambda       -0.1306849E-03
   maximum displ.:     0.2829874 α      in ANC's #2, #4, #5, ...

........................................................................
.............................. CYCLE   19 ..............................
........................................................................
   1    -84.3492190 -0.843492E+02  0.849E-03    0.25       0.0  T
   2    -84.3492218 -0.284001E-05  0.344E-03    0.26       4.5  T
   3    -84.3492224 -0.595918E-06  0.181E-03    0.25       8.5  T
   4    -84.3492225 -0.672864E-07  0.857E-04    0.25      18.0  T
   5    -84.3492225 -0.391938E-08  0.271E-04    0.25      56.9  T
   6    -84.3492225 -0.170631E-08  0.475E-05    0.25     325.1  T
   7    -84.3492225 -0.385683E-10  0.202E-05    0.25     765.1  T
     SCC iter.                  ...        0 min,  0.037 sec
     gradient                   ...        0 min,  0.057 sec
 * total energy  :   -83.6142174 Eh     change       -0.1088272E-03 Eh
   gradient norm :     0.0055369 Eh/α   predicted    -0.7706579E-04 ( -29.19%)
   displ. norm   :     0.4883266 α      lambda       -0.1606899E-03
   maximum displ.:     0.3339290 α      in ANC's #2, #4, #5, ...

........................................................................
.............................. CYCLE   20 ..............................
........................................................................
   1    -84.3489807 -0.843490E+02  0.109E-02    0.24       0.0  T
   2    -84.3489862 -0.548634E-05  0.442E-03    0.26       3.5  T
   3    -84.3489873 -0.111052E-05  0.207E-03    0.25       7.5  T
   4    -84.3489874 -0.947902E-07  0.108E-03    0.25      14.3  T
   5    -84.3489874 -0.674453E-08  0.341E-04    0.25      45.3  T
   6    -84.3489874 -0.194714E-08  0.778E-05    0.25     198.2  T
   7    -84.3489874 -0.193680E-09  0.308E-05    0.25     501.0  T
     SCC iter.                  ...        0 min,  0.038 sec
     gradient                   ...        0 min,  0.058 sec
 * total energy  :   -83.6143356 Eh     change       -0.1181705E-03 Eh
   gradient norm :     0.0063004 Eh/α   predicted    -0.9950957E-04 ( -15.79%)
   displ. norm   :     0.3514482 α      lambda       -0.1139194E-03
   maximum displ.:     0.2458344 α      in ANC's #2, #4, #5, ...
 * RMSD in coord.:     0.6924435 α      energy gain  -0.2249875E-01 Eh

generating ANC from model Hessian ...
Using Lindh-Hessian (1995)
 Shifting diagonal of input Hessian by   9.816931780869863E-003
 Lowest  eigenvalues of input Hessian
    0.000000    0.000000    0.000000    0.000000    0.000000    0.000000
    0.010000    0.010135    0.010616    0.010668    0.011002    0.012080
    0.012861    0.013436    0.014008    0.014920    0.015472    0.016142
 Highest eigenvalues
    2.011714    2.019008    2.169891    2.216365    2.307763    2.393324
 

........................................................................
.............................. CYCLE   21 ..............................
........................................................................
   1    -84.3496156 -0.843496E+02  0.820E-03    0.25       0.0  T
   2    -84.3496190 -0.340721E-05  0.348E-03    0.26       4.4  T
   3    -84.3496194 -0.408337E-06  0.155E-03    0.25       9.9  T
   4    -84.3496194 -0.294798E-07  0.851E-04    0.25      18.1  T
   5    -84.3496194 -0.524379E-08  0.202E-04    0.25      76.5  T
   6    -84.3496194 -0.561144E-09  0.498E-05    0.25     310.1  T
   7    -84.3496194 -0.407709E-10  0.208E-05    0.25     740.9  T
     SCC iter.                  ...        0 min,  0.037 sec
     gradient                   ...        0 min,  0.056 sec
 * total energy  :   -83.6144216 Eh     change       -0.8599106E-04 Eh
   gradient norm :     0.0058915 Eh/α   predicted     0.0000000E+00 (-100.00%)
   displ. norm   :     0.0403537 α      lambda       -0.3843852E-04
   maximum displ.:     0.0157078 α      in ANC's #2, #13, #18, ...

........................................................................
.............................. CYCLE   22 ..............................
........................................................................
   1    -84.3512723 -0.843513E+02  0.553E-03    0.26       0.0  T
   2    -84.3512731 -0.849006E-06  0.235E-03    0.25       6.6  T
   3    -84.3512733 -0.213546E-06  0.133E-03    0.26      11.6  T
   4    -84.3512733 -0.166833E-07  0.451E-04    0.26      34.2  T
   5    -84.3512733 -0.423947E-08  0.103E-04    0.26     149.3  T
   6    -84.3512733 -0.319275E-09  0.218E-05    0.26     709.4  T
     SCC iter.                  ...        0 min,  0.033 sec
     gradient                   ...        0 min,  0.058 sec
 * total energy  :   -83.6144703 Eh     change       -0.4874704E-04 Eh
   gradient norm :     0.0029562 Eh/α   predicted    -0.3133332E-04 ( -35.72%)
   displ. norm   :     0.0900065 α      lambda       -0.7037403E-04
   maximum displ.:     0.0404086 α      in ANC's #2, #13, #5, ...

........................................................................
.............................. CYCLE   23 ..............................
........................................................................
   1    -84.3526748 -0.843527E+02  0.805E-03    0.27       0.0  T
   2    -84.3526771 -0.224748E-05  0.332E-03    0.26       4.6  T
   3    -84.3526777 -0.588461E-06  0.163E-03    0.26       9.5  T
   4    -84.3526777 -0.352044E-07  0.653E-04    0.26      23.6  T
   5    -84.3526777 -0.285367E-08  0.147E-04    0.26     105.0  T
   6    -84.3526777 -0.510653E-09  0.308E-05    0.26     501.4  T
     SCC iter.                  ...        0 min,  0.025 sec
     gradient                   ...        0 min,  0.058 sec
 * total energy  :   -83.6145156 Eh     change       -0.4530018E-04 Eh
   gradient norm :     0.0019637 Eh/α   predicted    -0.3547230E-04 ( -21.70%)
   displ. norm   :     0.1112995 α      lambda       -0.2760669E-04
   maximum displ.:     0.0561287 α      in ANC's #2, #13, #5, ...

........................................................................
.............................. CYCLE   24 ..............................
........................................................................
   1    -84.3526240 -0.843526E+02  0.535E-03    0.27       0.0  T
   2    -84.3526252 -0.125763E-05  0.217E-03    0.26       7.1  T
   3    -84.3526255 -0.295438E-06  0.897E-04    0.26      17.2  T
   4    -84.3526255 -0.174649E-07  0.418E-04    0.26      36.9  T
   5    -84.3526255 -0.505651E-09  0.945E-05    0.26     163.3  T
   6    -84.3526255 -0.150450E-09  0.275E-05    0.26     561.7  T
     SCC iter.                  ...        0 min,  0.033 sec
     gradient                   ...        0 min,  0.058 sec
 * total energy  :   -83.6145445 Eh     change       -0.2886131E-04 Eh
   gradient norm :     0.0030888 Eh/α   predicted    -0.1393886E-04 ( -51.70%)
   displ. norm   :     0.0864385 α      lambda       -0.2929274E-04
   maximum displ.:     0.0465353 α      in ANC's #2, #5, #13, ...

........................................................................
.............................. CYCLE   25 ..............................
........................................................................
   1    -84.3520867 -0.843521E+02  0.245E-03    0.26       0.0  T
   2    -84.3520869 -0.210635E-06  0.104E-03    0.26      14.8  T
   3    -84.3520870 -0.276068E-07  0.558E-04    0.26      27.6  T
   4    -84.3520870 -0.390243E-08  0.231E-04    0.26      66.7  T
   5    -84.3520870 -0.598874E-09  0.479E-05    0.26     322.3  T
   6    -84.3520870 -0.298712E-10  0.155E-05    0.26     998.3  T
     SCC iter.                  ...        0 min,  0.033 sec
     gradient                   ...        0 min,  0.058 sec
 * total energy  :   -83.6145694 Eh     change       -0.2491485E-04 Eh
   gradient norm :     0.0024695 Eh/α   predicted    -0.1493117E-04 ( -40.07%)
   displ. norm   :     0.1754164 α      lambda       -0.5023897E-04
   maximum displ.:     0.0961558 α      in ANC's #2, #5, #13, ...

........................................................................
.............................. CYCLE   26 ..............................
........................................................................
   1    -84.3510688 -0.843511E+02  0.454E-03    0.26       0.0  T
   2    -84.3510694 -0.571174E-06  0.198E-03    0.26       7.8  T
   3    -84.3510695 -0.858506E-07  0.113E-03    0.26      13.7  T
   4    -84.3510695 -0.126170E-07  0.372E-04    0.26      41.5  T
   5    -84.3510695 -0.171651E-08  0.979E-05    0.26     157.7  T
   6    -84.3510695 -0.184258E-09  0.268E-05    0.26     576.7  T
     SCC iter.                  ...        0 min,  0.033 sec
     gradient                   ...        0 min,  0.059 sec
 * total energy  :   -83.6146031 Eh     change       -0.3371682E-04 Eh
   gradient norm :     0.0022319 Eh/α   predicted    -0.2589868E-04 ( -23.19%)
   displ. norm   :     0.1181148 α      lambda       -0.2517189E-04
   maximum displ.:     0.0686888 α      in ANC's #2, #13, #5, ...

........................................................................
.............................. CYCLE   27 ..............................
........................................................................
   1    -84.3508542 -0.843509E+02  0.247E-03    0.26       0.0  T
   2    -84.3508543 -0.177292E-06  0.118E-03    0.26      13.1  T
   3    -84.3508544 -0.588267E-07  0.573E-04    0.26      26.9  T
   4    -84.3508544 -0.339013E-08  0.188E-04    0.26      82.2  T
   5    -84.3508544 -0.448722E-09  0.494E-05    0.26     312.3  T
     SCC iter.                  ...        0 min,  0.027 sec
     gradient                   ...        0 min,  0.059 sec
 * total energy  :   -83.6146237 Eh     change       -0.2055387E-04 Eh
   gradient norm :     0.0025494 Eh/α   predicted    -0.1277677E-04 ( -37.84%)
   displ. norm   :     0.1848073 α      lambda       -0.4500141E-04
   maximum displ.:     0.1106038 α      in ANC's #2, #13, #5, ...

........................................................................
.............................. CYCLE   28 ..............................
........................................................................
   1    -84.3509948 -0.843510E+02  0.361E-03    0.25       0.0  T
   2    -84.3509953 -0.468390E-06  0.185E-03    0.26       8.3  T
   3    -84.3509955 -0.202785E-06  0.721E-04    0.26      21.4  T
   4    -84.3509955 -0.538293E-08  0.295E-04    0.26      52.3  T
   5    -84.3509955 -0.547246E-09  0.766E-05    0.26     201.4  T
   6    -84.3509955 -0.839293E-10  0.185E-05    0.26     832.4  T
     SCC iter.                  ...        0 min,  0.033 sec
     gradient                   ...        0 min,  0.059 sec
 * total energy  :   -83.6146591 Eh     change       -0.3544122E-04 Eh
   gradient norm :     0.0030851 Eh/α   predicted    -0.2326965E-04 ( -34.34%)
   displ. norm   :     0.2345070 α      lambda       -0.5630218E-04
   maximum displ.:     0.1434917 α      in ANC's #2, #13, #25, ...

........................................................................
.............................. CYCLE   29 ..............................
........................................................................
   1    -84.3512085 -0.843512E+02  0.401E-03    0.25       0.0  T
   2    -84.3512092 -0.688060E-06  0.192E-03    0.26       8.0  T
   3    -84.3512094 -0.227519E-06  0.730E-04    0.26      21.1  T
   4    -84.3512094 -0.976299E-08  0.355E-04    0.26      43.4  T
   5    -84.3512094 -0.597339E-09  0.935E-05    0.26     165.0  T
   6    -84.3512094 -0.105643E-09  0.244E-05    0.26     632.6  T
     SCC iter.                  ...        0 min,  0.033 sec
     gradient                   ...        0 min,  0.059 sec
 * total energy  :   -83.6147024 Eh     change       -0.4323146E-04 Eh
   gradient norm :     0.0038639 Eh/α   predicted    -0.2970134E-04 ( -31.30%)
   displ. norm   :     0.2522070 α      lambda       -0.6536956E-04
   maximum displ.:     0.1569292 α      in ANC's #2, #13, #25, ...

........................................................................
.............................. CYCLE   30 ..............................
........................................................................
   1    -84.3516937 -0.843517E+02  0.405E-03    0.26       0.0  T
   2    -84.3516945 -0.775159E-06  0.133E-03    0.26      11.6  T
   3    -84.3516945 -0.526152E-07  0.743E-04    0.26      20.8  T
   4    -84.3516945 -0.114236E-07  0.398E-04    0.26      38.7  T
   5    -84.3516945 -0.173594E-08  0.980E-05    0.26     157.5  T
   6    -84.3516945 -0.178119E-09  0.291E-05    0.26     529.6  T
     SCC iter.                  ...        0 min,  0.032 sec
     gradient                   ...        0 min,  0.059 sec
 * total energy  :   -83.6147522 Eh     change       -0.4985096E-04 Eh
   gradient norm :     0.0039787 Eh/α   predicted    -0.3477822E-04 ( -30.24%)
   displ. norm   :     0.2899967 α      lambda       -0.7221148E-04
   maximum displ.:     0.1816972 α      in ANC's #2, #13, #25, ...

........................................................................
.............................. CYCLE   31 ..............................
........................................................................
   1    -84.3518061 -0.843518E+02  0.485E-03    0.26       0.0  T
   2    -84.3518072 -0.103749E-05  0.166E-03    0.26       9.3  T
   3    -84.3518072 -0.525446E-07  0.888E-04    0.26      17.4  T
   4    -84.3518072 -0.134641E-07  0.415E-04    0.26      37.2  T
   5    -84.3518073 -0.162900E-08  0.122E-04    0.26     126.5  T
   6    -84.3518073 -0.397307E-09  0.273E-05    0.26     564.3  T
     SCC iter.                  ...        0 min,  0.032 sec
     gradient                   ...        0 min,  0.058 sec
 * total energy  :   -83.6148081 Eh     change       -0.5585071E-04 Eh
   gradient norm :     0.0037133 Eh/α   predicted    -0.3914355E-04 ( -29.91%)
   displ. norm   :     0.2444216 α      lambda       -0.7657747E-04
   maximum displ.:     0.1525861 α      in ANC's #2, #4, #1, ...

........................................................................
.............................. CYCLE   32 ..............................
........................................................................
   1    -84.3533602 -0.843534E+02  0.759E-03    0.28       0.0  T
   2    -84.3533622 -0.203044E-05  0.344E-03    0.27       4.5  T
   3    -84.3533626 -0.367080E-06  0.165E-03    0.27       9.4  T
   4    -84.3533626 -0.274113E-07  0.580E-04    0.27      26.6  T
   5    -84.3533626 -0.157482E-08  0.133E-04    0.27     116.4  T
   6    -84.3533626 -0.479304E-09  0.327E-05    0.27     472.1  T
     SCC iter.                  ...        0 min,  0.033 sec
     gradient                   ...        0 min,  0.059 sec
 * total energy  :   -83.6148520 Eh     change       -0.4391647E-04 Eh
   gradient norm :     0.0028036 Eh/α   predicted    -0.4057931E-04 (  -7.60%)
   displ. norm   :     0.5122193 α      lambda       -0.9040414E-04
   maximum displ.:     0.3221582 α      in ANC's #2, #13, #1, ...

........................................................................
.............................. CYCLE   33 ..............................
........................................................................
   1    -84.3478165 -0.843478E+02  0.151E-02    0.28       0.0  T
   2    -84.3478197 -0.323978E-05  0.735E-03    0.28       2.1  T
   3    -84.3478199 -0.219554E-06  0.398E-03    0.28       3.9  T
   4    -84.3478201 -0.134058E-06  0.839E-04    0.27      18.4  T
   5    -84.3478201 -0.895943E-08  0.242E-04    0.28      63.7  T
   6    -84.3478201 -0.184207E-08  0.626E-05    0.28     246.6  T
   7    -84.3478201 -0.794813E-10  0.217E-05    0.28     710.2  T
     SCC iter.                  ...        0 min,  0.038 sec
     gradient                   ...        0 min,  0.059 sec
 * total energy  :   -83.6147806 Eh     change        0.7140359E-04 Eh
   gradient norm :     0.0101886 Eh/α   predicted    -0.5707688E-04 (-179.94%)
   displ. norm   :     0.2702223 α      lambda       -0.2549817E-03
   maximum displ.:     0.1645761 α      in ANC's #2, #13, #25, ...

........................................................................
.............................. CYCLE   34 ..............................
........................................................................
   1    -84.3527184 -0.843527E+02  0.123E-02    0.28       0.0  T
   2    -84.3527203 -0.189467E-05  0.591E-03    0.27       2.6  T
   3    -84.3527204 -0.112565E-06  0.312E-03    0.27       5.0  T
   4    -84.3527204 -0.592835E-07  0.600E-04    0.27      25.7  T
   5    -84.3527205 -0.482731E-08  0.168E-04    0.27      91.9  T
   6    -84.3527205 -0.933426E-09  0.478E-05    0.27     323.0  T
     SCC iter.                  ...        0 min,  0.032 sec
     gradient                   ...        0 min,  0.058 sec
 * total energy  :   -83.6148948 Eh     change       -0.1141953E-03 Eh
   gradient norm :     0.0019855 Eh/α   predicted    -0.1367992E-03 (  19.79%)
   displ. norm   :     0.0836087 α      lambda       -0.1522033E-04
   maximum displ.:     0.0481785 α      in ANC's #2, #4, #13, ...

........................................................................
.............................. CYCLE   35 ..............................
........................................................................
   1    -84.3530651 -0.843531E+02  0.263E-03    0.28       0.0  T
   2    -84.3530654 -0.255086E-06  0.120E-03    0.27      12.8  T
   3    -84.3530654 -0.501468E-07  0.491E-04    0.28      31.4  T
   4    -84.3530654 -0.833197E-09  0.175E-04    0.28      88.3  T
   5    -84.3530654 -0.407070E-09  0.364E-05    0.28     424.0  T
     SCC iter.                  ...        0 min,  0.027 sec
     gradient                   ...        0 min,  0.060 sec
 * total energy  :   -83.6149135 Eh     change       -0.1873310E-04 Eh
   gradient norm :     0.0018805 Eh/α   predicted    -0.7634590E-05 ( -59.25%)
   displ. norm   :     0.3976261 α      lambda       -0.4721768E-04
   maximum displ.:     0.2430270 α      in ANC's #2, #4, #3, ...

........................................................................
.............................. CYCLE   36 ..............................
........................................................................
   1    -84.3514300 -0.843514E+02  0.749E-03    0.27       0.0  T
   2    -84.3514309 -0.982684E-06  0.329E-03    0.27       4.7  T
   3    -84.3514310 -0.680473E-07  0.187E-03    0.27       8.2  T
   4    -84.3514310 -0.135470E-07  0.376E-04    0.27      41.0  T
   5    -84.3514310 -0.218220E-08  0.138E-04    0.27     111.9  T
   6    -84.3514310 -0.385256E-09  0.430E-05    0.27     358.6  T
     SCC iter.                  ...        0 min,  0.032 sec
     gradient                   ...        0 min,  0.060 sec
 * total energy  :   -83.6149422 Eh     change       -0.2875447E-04 Eh
   gradient norm :     0.0036353 Eh/α   predicted    -0.2527872E-04 ( -12.09%)
   displ. norm   :     0.0880928 α      lambda       -0.2565193E-04
   maximum displ.:     0.0488556 α      in ANC's #2, #6, #4, ...

........................................................................
.............................. CYCLE   37 ..............................
........................................................................
   1    -84.3521842 -0.843522E+02  0.411E-03    0.28       0.0  T
   2    -84.3521846 -0.384810E-06  0.208E-03    0.27       7.4  T
   3    -84.3521847 -0.614971E-07  0.122E-03    0.28      12.7  T
   4    -84.3521847 -0.313361E-08  0.159E-04    0.27      97.2  T
   5    -84.3521847 -0.811042E-09  0.541E-05    0.27     285.4  T
     SCC iter.                  ...        0 min,  0.027 sec
     gradient                   ...        0 min,  0.059 sec
 * total energy  :   -83.6149588 Eh     change       -0.1652474E-04 Eh
   gradient norm :     0.0026748 Eh/α   predicted    -0.1292583E-04 ( -21.78%)
   displ. norm   :     0.0511644 α      lambda       -0.2269700E-04
   maximum displ.:     0.0278827 α      in ANC's #6, #3, #4, ...

........................................................................
.............................. CYCLE   38 ..............................
........................................................................
   1    -84.3536716 -0.843537E+02  0.330E-03    0.27       0.0  T
   2    -84.3536717 -0.119492E-06  0.171E-03    0.27       9.0  T
   3    -84.3536717 -0.823523E-08  0.947E-04    0.27      16.3  T
   4    -84.3536717 -0.870877E-08  0.166E-04    0.27      93.1  T
   5    -84.3536717 -0.546507E-09  0.473E-05    0.27     326.5  T
     SCC iter.                  ...        0 min,  0.027 sec
     gradient                   ...        0 min,  0.059 sec
 * total energy  :   -83.6149726 Eh     change       -0.1379767E-04 Eh
   gradient norm :     0.0024287 Eh/α   predicted    -0.1137887E-04 ( -17.53%)
   displ. norm   :     0.1689010 α      lambda       -0.1893874E-04
   maximum displ.:     0.1015729 α      in ANC's #2, #4, #6, ...

........................................................................
.............................. CYCLE   39 ..............................
........................................................................
   1    -84.3536136 -0.843536E+02  0.181E-03    0.27       0.0  T
   2    -84.3536137 -0.913425E-07  0.842E-04    0.27      18.3  T
   3    -84.3536137 -0.133173E-07  0.454E-04    0.27      34.0  T
   4    -84.3536137 -0.181613E-08  0.150E-04    0.27     102.8  T
   5    -84.3536137 -0.361737E-09  0.445E-05    0.27     346.5  T
     SCC iter.                  ...        0 min,  0.027 sec
     gradient                   ...        0 min,  0.058 sec
 * total energy  :   -83.6149874 Eh     change       -0.1487604E-04 Eh
   gradient norm :     0.0024650 Eh/α   predicted    -0.9743946E-05 ( -34.50%)
   displ. norm   :     0.2156734 α      lambda       -0.2508776E-04
   maximum displ.:     0.1263433 α      in ANC's #2, #3, #4, ...

........................................................................
.............................. CYCLE   40 ..............................
........................................................................
   1    -84.3530427 -0.843530E+02  0.303E-03    0.27       0.0  T
   2    -84.3530430 -0.286480E-06  0.140E-03    0.27      11.0  T
   3    -84.3530431 -0.539476E-07  0.618E-04    0.27      25.0  T
   4    -84.3530431 -0.182355E-08  0.202E-04    0.27      76.5  T
   5    -84.3530431 -0.577913E-09  0.655E-05    0.27     235.4  T
   6    -84.3530431 -0.942038E-10  0.175E-05    0.27     882.6  T
     SCC iter.                  ...        0 min,  0.032 sec
     gradient                   ...        0 min,  0.057 sec
 * total energy  :   -83.6150050 Eh     change       -0.1760281E-04 Eh
   gradient norm :     0.0016769 Eh/α   predicted    -0.1312824E-04 ( -25.42%)
   displ. norm   :     0.1862730 α      lambda       -0.1356701E-04
   maximum displ.:     0.0958155 α      in ANC's #2, #3, #6, ...

........................................................................
.............................. CYCLE   41 ..............................
........................................................................
   1    -84.3527437 -0.843527E+02  0.282E-03    0.27       0.0  T
   2    -84.3527440 -0.246701E-06  0.136E-03    0.27      11.3  T
   3    -84.3527440 -0.398709E-07  0.684E-04    0.27      22.5  T
   4    -84.3527440 -0.337758E-08  0.246E-04    0.27      62.8  T
   5    -84.3527440 -0.431086E-09  0.678E-05    0.27     227.6  T
   6    -84.3527440 -0.140034E-09  0.209E-05    0.27     739.2  T
     SCC iter.                  ...        0 min,  0.032 sec
     gradient                   ...        0 min,  0.059 sec
 * total energy  :   -83.6150176 Eh     change       -0.1253391E-04 Eh
   gradient norm :     0.0016126 Eh/α   predicted    -0.6891892E-05 ( -45.01%)
   displ. norm   :     0.1118582 α      lambda       -0.8685025E-05
   maximum displ.:     0.0538392 α      in ANC's #3, #6, #2, ...

........................................................................
.............................. CYCLE   42 ..............................
........................................................................
   1    -84.3527289 -0.843527E+02  0.186E-03    0.27       0.0  T
   2    -84.3527290 -0.128434E-06  0.944E-04    0.27      16.3  T
   3    -84.3527291 -0.245884E-07  0.453E-04    0.27      34.0  T
   4    -84.3527291 -0.121919E-08  0.162E-04    0.27      95.4  T
   5    -84.3527291 -0.241201E-09  0.436E-05    0.27     354.2  T
     SCC iter.                  ...        0 min,  0.026 sec
     gradient                   ...        0 min,  0.057 sec
 * total energy  :   -83.6150270 Eh     change       -0.9369629E-05 Eh
   gradient norm :     0.0008309 Eh/α   predicted    -0.4366996E-05 ( -53.39%)
   displ. norm   :     0.0937136 α      lambda       -0.9457441E-05
   maximum displ.:     0.0348438 α      in ANC's #3, #6, #8, ...
 * RMSD in coord.:     0.4655344 α      energy gain  -0.6913600E-03 Eh

generating ANC from model Hessian ...
Using Lindh-Hessian (1995)
 Shifting diagonal of input Hessian by   9.829341811593149E-003
 Lowest  eigenvalues of input Hessian
    0.000000    0.000000    0.000000    0.000000    0.000000    0.000000
    0.010000    0.010158    0.010577    0.010728    0.011039    0.012113
    0.012809    0.013431    0.013973    0.015217    0.015437    0.016211
 Highest eigenvalues
    2.014272    2.026110    2.174183    2.218380    2.308537    2.399387
 

........................................................................
.............................. CYCLE   43 ..............................
........................................................................
   1    -84.3537131 -0.843537E+02  0.261E-03    0.27       0.0  T
   2    -84.3537133 -0.150970E-06  0.130E-03    0.27      11.9  T
   3    -84.3537133 -0.191919E-07  0.717E-04    0.27      21.5  T
   4    -84.3537133 -0.396741E-08  0.201E-04    0.27      76.9  T
   5    -84.3537133 -0.687251E-09  0.593E-05    0.27     260.4  T
   6    -84.3537133 -0.577813E-10  0.158E-05    0.27     979.5  T
     SCC iter.                  ...        0 min,  0.031 sec
     gradient                   ...        0 min,  0.057 sec
 * total energy  :   -83.6150320 Eh     change       -0.5066226E-05 Eh
   gradient norm :     0.0017579 Eh/α   predicted     0.0000000E+00 (-100.00%)
   displ. norm   :     0.0154518 α      lambda       -0.3075554E-05
   maximum displ.:     0.0050097 α      in ANC's #7, #10, #6, ...

........................................................................
.............................. CYCLE   44 ..............................
........................................................................
   1    -84.3528063 -0.843528E+02  0.257E-03    0.27       0.0  T
   2    -84.3528064 -0.142580E-06  0.126E-03    0.27      12.3  T
   3    -84.3528064 -0.216310E-07  0.710E-04    0.27      21.7  T
   4    -84.3528064 -0.488834E-08  0.192E-04    0.27      80.2  T
   5    -84.3528064 -0.477712E-09  0.492E-05    0.27     313.5  T
     SCC iter.                  ...        0 min,  0.026 sec
     gradient                   ...        0 min,  0.058 sec
 * total energy  :   -83.6150373 Eh     change       -0.5260507E-05 Eh
   gradient norm :     0.0005355 Eh/α   predicted    -0.3320629E-05 ( -36.88%)
   displ. norm   :     0.0153014 α      lambda       -0.1438595E-05
   maximum displ.:     0.0060661 α      in ANC's #6, #5, #7, ...

........................................................................
.............................. CYCLE   45 ..............................
........................................................................
   1    -84.3527859 -0.843528E+02  0.878E-04    0.27       0.0  T
   2    -84.3527860 -0.428235E-07  0.382E-04    0.27      40.4  T
   3    -84.3527860 -0.608622E-08  0.162E-04    0.27      95.2  T
   4    -84.3527860 -0.241513E-09  0.901E-05    0.27     171.2  T
     SCC iter.                  ...        0 min,  0.022 sec
     gradient                   ...        0 min,  0.059 sec
 * total energy  :   -83.6150391 Eh     change       -0.1817253E-05 Eh
   gradient norm :     0.0003999 Eh/α   predicted    -0.7287915E-06 ( -59.90%)
   displ. norm   :     0.0471676 α      lambda       -0.3215779E-05
   maximum displ.:     0.0200791 α      in ANC's #6, #5, #3, ...

   *** GEOMETRY OPTIMIZATION CONVERGED AFTER 45 ITERATIONS ***

------------------------------------------------------------------------
 total energy gain   :        -0.0232023 Eh      -14.5596 kcal/mol
 total RMSD          :         1.0656527 a0        0.5639 Å
 total power (kW/mol):        -1.3537227 (step)  -11.1740 (real)
------------------------------------------------------------------------

 ANCopt (total)                0 d,  0 h,  0 min,  5.452 sec
 optimizer setup                ...        0 min,  0.001 sec (  0.013%)
 model hessian                  ...        0 min,  0.059 sec (  1.076%)
 ANC generation                 ...        0 min,  0.007 sec (  0.122%)
 coordinate transformation      ...        0 min,  0.001 sec (  0.018%)
 single point calculation       ...        0 min,  5.368 sec ( 98.464%)
 optimization log               ...        0 min,  0.009 sec (  0.169%)
 hessian update                 ...        0 min,  0.001 sec (  0.017%)
 rational function              ...        0 min,  0.004 sec (  0.081%)

================
 final structure:
================
42
 xtb: 6.5.1 (579679a)
C           -4.54056330129922       -0.26834881362454       -1.25772792640612
O           -4.26771720109994        0.87699573875811       -0.51351624763658
C           -3.71414604540696        0.69636190934981        0.95008661749686
C           -4.87831448562479       -0.04017530597029        1.69729674271024
O           -3.43821639207476        1.85960999400494        1.44311221890225
C           -2.45137455738832       -0.23165166962856        0.77722920389129
N           -1.59661067674910        0.21677686575542       -0.18956237183506
C           -0.46249621193321       -0.35730652705892       -0.40536624413029
C            0.45641894811590        0.12425637797020       -1.50940699649007
C            0.62232952282796       -0.96580848747683       -2.57940262357295
C           -0.11852116269950        1.40599568924899       -2.12004226349081
N            1.77997800860691        0.39824212745093       -0.90744295028806
C            2.82383007964230        0.88600335613501       -1.59238495671413
O            2.81311965771042        1.24705127148462       -2.76224406308966
C            4.06512625457826        0.98502228899194       -0.77441182183564
N            5.19329740565110        1.52476872079870       -1.12420134985194
N            6.04155932678901        1.38680495914156       -0.06399809776151
C            5.37970163526605        0.77041085542419        0.86488827770884
C            5.86184022856758        0.37440823115952        2.20624958788142
O            4.12254348580089        0.49101272960661        0.48213342435205
N           -0.05850353971368       -1.44421218655165        0.34420537127582
C           -0.81670426404268       -1.97993981395599        1.36114462602525
O           -0.36777474731913       -2.96014518346158        1.98006386917067
C           -2.13020462691094       -1.31509076363632        1.61802726565946
O           -2.85652890795055       -1.77543278040865        2.55286306256623
H           -4.57142210159045        0.00475963432940       -2.32230719518828
H           -5.51726703054607       -0.72206075148613       -1.00907019977586
H           -3.76971925296528       -1.05112679947961       -1.14048682612864
H           -4.64705361236310       -0.06136523485475        2.76135491626568
H           -5.03381809639517       -1.05830131398940        1.34535435860582
H           -5.79193808662904        0.53804931874193        1.55275108042254
H           -0.35498054986212       -1.23834976608115       -2.97540064428524
H            1.08597643820995       -1.84930284930665       -2.14446383363532
H            1.24776662237488       -0.60845000774050       -3.39563714410646
H            0.47139802291964        1.72982257969334       -2.97420858318880
H           -0.13674790274527        2.19956607091540       -1.37301442330112
H           -1.13990765051703        1.21155810004187       -2.44741776570609
H            1.94108423830926        0.07873707875893        0.03547778664929
H            6.88681303290968        0.71148820972658        2.33805390969956
H            5.22991547615924        0.81409804505017        2.97791081638249
H            5.81993912729079       -0.70978271566777        2.31184064414840
H            0.81789489209030       -1.89494818218066        0.15236174862357
 
 Bond Distances (Angstroems)
 ---------------------------
C1-O2=1.3929         C1-H26=1.0995        C1-H27=1.1053        C1-H28=1.1048        O2-C1=1.3929         O2-C3=1.5752         
C3-O2=1.5752         C3-C4=1.5672         C3-O5=1.2932         C3-C6=1.5766         C4-C3=1.5672         C4-H29=1.0891        
C4-H30=1.0884        C4-H31=1.0908        O5-C3=1.2932         C6-C3=1.5766         C6-N7=1.3662         C6-C24=1.4085        
N7-C6=1.3662         N7-C8=1.2893         C8-N7=1.2893         C8-C9=1.5150         C8-N21=1.3807        C9-C8=1.5150         
C9-C10=1.5364        C9-C11=1.5318        C9-N12=1.4796        C10-C9=1.5364        C10-H32=1.0891       C10-H33=1.0884       
C10-H34=1.0886       C11-C9=1.5318        C11-H35=1.0874       C11-H36=1.0900       C11-H37=1.0901       N12-C9=1.4796        
N12-C13=1.3404       N12-H38=1.0085       C13-N12=1.3404       C13-O14=1.2244       C13-C15=1.4899       O14-C13=1.2244       
C15-C13=1.4899       C15-N16=1.2986       C15-O20=1.3514       N16-C15=1.2986       N16-N17=1.3648       N17-N16=1.3648       
N17-C18=1.2965       C18-N17=1.2965       C18-C19=1.4794       C18-O20=1.3435       C19-C18=1.4794       C19-H39=1.0870       
C19-H40=1.0900       C19-H41=1.0901       O20-C15=1.3514       O20-C18=1.3435       N21-C8=1.3807        N21-C22=1.3770       
N21-H42=1.0040       C22-N21=1.3770       C22-O23=1.2431       C22-C24=1.4944       O23-C22=1.2431       C24-C6=1.4085        
C24-C22=1.4944       C24-O25=1.2702       O25-C24=1.2702       H26-C1=1.0995        H27-C1=1.1053        H28-C1=1.1048        
H29-C4=1.0891        H30-C4=1.0884        H31-C4=1.0908        H32-C10=1.0891       H33-C10=1.0884       H34-C10=1.0886       
H35-C11=1.0874       H36-C11=1.0900       H37-C11=1.0901       H38-N12=1.0085       H39-C19=1.0870       H40-C19=1.0900       
H41-C19=1.0901       H42-N21=1.0040       
 C  H  Rav=1.0919 sigma=0.0059  Rmin=1.0870  Rmax=1.1053    15
 C  C  Rav=1.5110 sigma=0.0481  Rmin=1.4085  Rmax=1.5766     9
 N  H  Rav=1.0063 sigma=0.0023  Rmin=1.0040  Rmax=1.0085     2
 N  C  Rav=1.3535 sigma=0.0591  Rmin=1.2893  Rmax=1.4796     8
 N  N  Rav=1.3648 sigma=0.0000  Rmin=1.3648  Rmax=1.3648     1
 O  C  Rav=1.3367 sigma=0.1049  Rmin=1.2244  Rmax=1.5752     8
 
 selected bond angles (degree)
 --------------------
H26-C1-O2=108.58               H27-C1-O2=112.98               H27-C1-H26=107.16              H28-C1-O2=112.91               
H28-C1-H26=107.36              H28-C1-H27=107.57              C3-O2-C1=118.10                C4-C3-O2=103.64                
O5-C3-O2=109.03                O5-C3-C4=113.55                C6-C3-O2=104.31                C6-C3-C4=111.75                
C6-C3-O5=113.60                H29-C4-C3=108.50               H30-C4-C3=113.05               H30-C4-H29=109.15              
H31-C4-C3=108.05               H31-C4-H29=108.52              H31-C4-H30=109.47              N7-C6-C3=112.68                
C24-C6-C3=124.75               C24-C6-N7=122.16               C8-N7-C6=121.51                C9-C8-N7=120.93                
N21-C8-N7=121.13               N21-C8-C9=117.93               C10-C9-C8=110.33               C11-C9-C8=109.20               
C11-C9-C10=110.89              N12-C9-C8=107.76               N12-C9-C10=108.55              N12-C9-C11=110.06              
H32-C10-C9=109.50              H33-C10-C9=110.10              H33-C10-H32=108.93             H34-C10-C9=110.57              
H34-C10-H32=108.97             H34-C10-H33=108.74             
 
 selected dihedral angles (degree)
 ---------------------------------
C3-O2-C1-H26=199.55           C3-O2-C1-H27= 80.83           C3-O2-C1-H28=318.48           C4-C3-O2-C1=296.93            
O5-C3-O2-C1=175.70            C6-C3-O2-C1= 54.03            H29-C4-C3-O2=189.16           H29-C4-C3-O5=307.31           
H29-C4-C3-C6= 77.41           H30-C4-C3-O2= 67.95           H30-C4-C3-O5=186.10           H30-C4-C3-C6=316.19           
H31-C4-C3-O2=306.63           H31-C4-C3-O5= 64.78           H31-C4-C3-C6=194.88           N7-C6-C3-O2= 50.35            
N7-C6-C3-C4=161.68            N7-C6-C3-O5=291.75            C24-C6-C3-O2=223.02           C24-C6-C3-C4=334.35           
C24-C6-C3-O5=104.42           C8-N7-C6-C3=174.85            C8-N7-C6-C24=  1.97           C9-C8-N7-C6=178.09            
N21-C8-N7-C6=359.32           C10-C9-C8-N7=244.30           C10-C9-C8-N21= 63.10          C11-C9-C8-N7=  6.42           
C11-C9-C8-N21=185.22          N12-C9-C8-N7=125.95           N12-C9-C8-N21=304.75          H32-C10-C9-C8= 57.50          
H32-C10-C9-C11=296.39         H32-C10-C9-N12=175.37         H33-C10-C9-C8=297.77          H33-C10-C9-C11=176.65         
H33-C10-C9-N12= 55.63         H34-C10-C9-C8=177.58          H34-C10-C9-C11= 56.47         H34-C10-C9-N12=295.45         
           -------------------------------------------------
          |                Final Singlepoint                |
           -------------------------------------------------

          ...................................................
          :                      SETUP                      :
          :.................................................:
          :  # basis functions                 134          :
          :  # atomic orbitals                 134          :
          :  # shells                           84          :
          :  # electrons                       136          :
          :  # halogen bonds                     0          :
          :  max. iterations                   250          :
          :  Hamiltonian                  GFN1-xTB          :
          :  restarted?                      false          :
          :  GBSA solvation                   true          :
          :  PC potential                    false          :
          :  electronic temp.          300.0000000     K    :
          :  accuracy                    1.0000000          :
          :  -> integral cutoff          0.2500000E+02      :
          :  -> integral neglect         0.1000000E-07      :
          :  -> SCF convergence          0.1000000E-05 Eh   :
          :  -> wf. convergence          0.2000000E-04 e    :
          :  Broyden damping             0.4000000          :
          ...................................................

 iter      E             dE          RMSdq      gap      omega  full diag
   1    -84.3527860 -0.843528E+02  0.216E-05    0.27       0.0  T
   2    -84.3527860 -0.653699E-11  0.108E-05    0.27    1431.1  T
   3    -84.3527860 -0.710543E-12  0.609E-06    0.27    2532.6  T

   *** convergence criteria satisfied after 3 iterations ***

         #    Occupation            Energy/Eh            Energy/eV
      -------------------------------------------------------------
         1        2.0000           -0.8564791             -23.3060
       ...           ...                  ...                  ...
        62        2.0000           -0.4011362             -10.9155
        63        2.0000           -0.3816954             -10.3865
        64        2.0000           -0.3786755             -10.3043
        65        2.0000           -0.3471189              -9.4456
        66        2.0000           -0.3312202              -9.0130
        67        2.0000           -0.3165674              -8.6142
        68        1.9890           -0.3077145              -8.3733 (HOMO)
        69        0.0110           -0.2978472              -8.1048 (LUMO)
        70                         -0.2493226              -6.7844
        71                         -0.2166296              -5.8948
        72                         -0.2006342              -5.4595
        73                         -0.1866659              -5.0794
       ...                                ...                  ...
       134                          0.7462428              20.3063
      -------------------------------------------------------------
                  HL-Gap            0.0098673 Eh            0.2685 eV
             Fermi-level           -0.3027808 Eh           -8.2391 eV

 SCC (total)                   0 d,  0 h,  0 min,  0.074 sec
 SCC setup                      ...        0 min,  0.002 sec (  2.151%)
 Dispersion                     ...        0 min,  0.000 sec (  0.311%)
 classical contributions        ...        0 min,  0.000 sec (  0.106%)
 integral evaluation            ...        0 min,  0.016 sec ( 21.620%)
 iterations                     ...        0 min,  0.010 sec ( 12.868%)
 molecular gradient             ...        0 min,  0.046 sec ( 61.393%)
 printout                       ...        0 min,  0.001 sec (  1.514%)

         :::::::::::::::::::::::::::::::::::::::::::::::::::::
         ::                     SUMMARY                     ::
         :::::::::::::::::::::::::::::::::::::::::::::::::::::
         :: total energy             -83.615039096818 Eh    ::
         :: total w/o Gsasa/hb       -83.596214645193 Eh    ::
         :: gradient norm              0.000399346914 Eh/a0 ::
         :: HOMO-LUMO gap              0.268501665976 eV    ::
         ::.................................................::
         :: SCC energy               -84.352785998906 Eh    ::
         :: -> electrostatic           0.777639256212 Eh    ::
         :: -> Gsolv                  -0.306578466758 Eh    ::
         ::    -> Gelec               -0.287754015133 Eh    ::
         ::    -> Gsasa               -0.023583140708 Eh    ::
         ::    -> Ghb                 -0.002865589922 Eh    ::
         ::    -> Gshift               0.007624279005 Eh    ::
         :: repulsion energy           0.764076405632 Eh    ::
         :: dispersion energy         -0.026329503544 Eh    ::
         :: halogen bond corr.         0.000000000000 Eh    ::
         :: add. restraining           0.000000000000 Eh    ::
         :: total charge              -2.000000000000 e     ::
         :::::::::::::::::::::::::::::::::::::::::::::::::::::

           -------------------------------------------------
          |                Property Printout                |
           -------------------------------------------------

    * Orbital Energies and Occupations

         #    Occupation            Energy/Eh            Energy/eV
      -------------------------------------------------------------
         1        2.0000           -0.8564791             -23.3060
       ...           ...                  ...                  ...
        56        2.0000           -0.4416234             -12.0172
        57        2.0000           -0.4369590             -11.8903
        58        2.0000           -0.4302793             -11.7085
        59        2.0000           -0.4240952             -11.5402
        60        2.0000           -0.4163291             -11.3289
        61        2.0000           -0.4092514             -11.1363
        62        2.0000           -0.4011362             -10.9155
        63        2.0000           -0.3816954             -10.3865
        64        2.0000           -0.3786755             -10.3043
        65        2.0000           -0.3471189              -9.4456
        66        2.0000           -0.3312202              -9.0130
        67        2.0000           -0.3165674              -8.6142
        68        1.9890           -0.3077145              -8.3733 (HOMO)
        69        0.0110           -0.2978472              -8.1048 (LUMO)
        70                         -0.2493226              -6.7844
        71                         -0.2166296              -5.8948
        72                         -0.2006342              -5.4595
        73                         -0.1866659              -5.0794
        74                         -0.1383174              -3.7638
        75                         -0.1093967              -2.9768
        76                         -0.1035756              -2.8184
        77                         -0.0932732              -2.5381
        78                         -0.0892098              -2.4275
        79                         -0.0871560              -2.3716
       ...                                ...                  ...
       134                          0.7462428              20.3063
      -------------------------------------------------------------
                  HL-Gap            0.0098673 Eh            0.2685 eV
             Fermi-level           -0.3027808 Eh           -8.2391 eV

  Mulliken/CM5 charges         n(s)   n(p)   n(d)
     1C     0.18765  0.07197   0.955  2.857  0.000
     2O    -0.57241 -0.65038   1.723  4.849  0.000
     3C     0.45639  0.49529   1.013  2.531  0.000
     4C    -0.10806 -0.24802   1.017  3.091  0.000
     5O    -0.83251 -0.87143   1.754  5.079  0.000
     6C     0.00818  0.08304   1.080  2.912  0.000
     7N    -0.38092 -0.57092   1.532  3.849  0.000
     8C     0.19967  0.34807   0.993  2.807  0.000
     9C     0.15123  0.18943   1.067  2.782  0.000
    10C    -0.10304 -0.24270   1.018  3.085  0.000
    11C    -0.08349 -0.22125   1.010  3.074  0.000
    12N    -0.33523 -0.68725   1.435  3.900  0.000
    13C     0.46229  0.57189   0.974  2.563  0.000
    14O    -0.59320 -0.63765   1.729  4.865  0.000
    15C     0.32949  0.45471   1.013  2.658  0.000
    16N    -0.23405 -0.33755   1.568  3.666  0.000
    17N    -0.27610 -0.38384   1.566  3.710  0.000
    18C     0.38860  0.49728   1.005  2.606  0.000
    19C    -0.11069 -0.24806   1.011  3.099  0.000
    20O    -0.35817 -0.41473   1.697  4.661  0.000
    21N    -0.32906 -0.67616   1.437  3.892  0.000
    22C     0.40054  0.50182   1.010  2.589  0.000
    23O    -0.66445 -0.70085   1.743  4.921  0.000
    24C     0.23600  0.27810   1.031  2.733  0.000
    25O    -0.70446 -0.74793   1.754  4.951  0.000
    26H    -0.01200  0.04704   1.012  0.000  0.000
    27H    -0.02134  0.03619   1.021  0.000  0.000
    28H    -0.01511  0.04756   1.015  0.000  0.000
    29H     0.00338  0.06240   0.997  0.000  0.000
    30H    -0.00435  0.05386   1.004  0.000  0.000
    31H    -0.00872  0.04805   1.009  0.000  0.000
    32H     0.03649  0.09108   0.964  0.000  0.000
    33H     0.03506  0.09342   0.965  0.000  0.000
    34H     0.04537  0.10455   0.955  0.000  0.000
    35H     0.03545  0.09565   0.965  0.000  0.000
    36H     0.03092  0.08946   0.969  0.000  0.000
    37H     0.03325  0.09177   0.967  0.000  0.000
    38H     0.25199  0.46073   0.748  0.000  0.000
    39H     0.06580  0.12169   0.934  0.000  0.000
    40H     0.07631  0.13077   0.924  0.000  0.000
    41H     0.07776  0.13218   0.922  0.000  0.000
    42H     0.23555  0.44068   0.764  0.000  0.000

Wiberg/Mayer (AO) data.
largest (>0.10) Wiberg bond orders for each atom

 ---------------------------------------------------------------------------
     #   Z sym  total        # sym  WBO       # sym  WBO       # sym  WBO
 ---------------------------------------------------------------------------
     1   6 C    3.954 --     2 O    1.004    26 H    0.980    27 H    0.977
                            28 H    0.972
     2   8 O    1.907 --     1 C    1.004     3 C    0.712
     3   6 C    3.882 --     5 O    1.265     4 C    0.943     6 C    0.908
                             2 O    0.712
     4   6 C    3.988 --    31 H    0.988    30 H    0.988    29 H    0.984
                             3 C    0.943
     5   8 O    1.512 --     3 C    1.265
     6   6 C    3.920 --    24 C    1.340     7 N    1.238     3 C    0.908
                            25 O    0.136
     7   7 N    3.037 --     8 C    1.561     6 C    1.238
     8   6 C    3.923 --     7 N    1.561    21 N    1.092     9 C    0.978
     9   6 C    3.923 --    11 C    0.997    10 C    0.983     8 C    0.978
                            12 N    0.899
    10   6 C    3.991 --    32 H    0.986    33 H    0.985     9 C    0.983
                            34 H    0.983
    11   6 C    3.993 --     9 C    0.997    36 H    0.985    35 H    0.984
                            37 H    0.983
    12   7 N    3.367 --    13 C    1.291     9 C    0.899    38 H    0.898
                            14 O    0.183
    13   6 C    3.918 --    14 O    1.562    12 N    1.291    15 C    0.986
    14   8 O    1.880 --    13 C    1.562    12 N    0.183
    15   6 C    3.863 --    16 N    1.622    20 O    1.047    13 C    0.986
    16   7 N    2.989 --    15 C    1.622    17 N    1.193
    17   7 N    2.980 --    18 C    1.616    16 N    1.193
    18   6 C    3.870 --    17 N    1.616    20 O    1.072    19 C    1.031
    19   6 C    3.988 --    18 C    1.031    39 H    0.983    40 H    0.965
                            41 H    0.963
    20   8 O    2.313 --    18 C    1.072    15 C    1.047
    21   7 N    3.414 --    22 C    1.142     8 C    1.092    42 H    0.907
                            23 O    0.127
    22   6 C    3.879 --    23 O    1.505    21 N    1.142    24 C    1.023
    23   8 O    1.797 --    22 C    1.505    21 N    0.127
    24   6 C    3.955 --    25 O    1.399     6 C    1.340    22 C    1.023
    25   8 O    1.741 --    24 C    1.399     6 C    0.136
    26   1 H    1.027 --     1 C    0.980
    27   1 H    1.022 --     1 C    0.977
    28   1 H    1.028 --     1 C    0.972
    29   1 H    1.039 --     4 C    0.984
    30   1 H    1.021 --     4 C    0.988
    31   1 H    1.022 --     4 C    0.988
    32   1 H    1.006 --    10 C    0.986
    33   1 H    1.005 --    10 C    0.985
    34   1 H    1.009 --    10 C    0.983
    35   1 H    1.015 --    11 C    0.984
    36   1 H    1.012 --    11 C    0.985
    37   1 H    1.020 --    11 C    0.983
    38   1 H    0.948 --    12 N    0.898
    39   1 H    0.999 --    19 C    0.983
    40   1 H    0.997 --    19 C    0.965
    41   1 H    0.997 --    19 C    0.963
    42   1 H    0.957 --    21 N    0.907
 ---------------------------------------------------------------------------

Topologies differ in total number of bonds
Writing topology from bond orders to xtbtopo.mol

 dipole moment from electron density (au)
     X       Y       Z   
   9.5353  -1.8695  -3.0516  total (Debye):   25.887

           -------------------------------------------------
          |                Geometry Summary                 |
           -------------------------------------------------

      molecular mass/u    :      351.3152409
   center of mass at/Å    :        0.2528903       0.0685502       0.0233371
  moments of inertia/u·Å² :        0.1267640E+04   0.4593850E+04   0.5140755E+04
rotational constants/cm⁻¹ :        0.1329844E-01   0.3669609E-02   0.3279213E-02

 * 34 selected distances

     #   Z          #   Z                                           value/Å
     1   6 C        2   8 O                                       1.3928785
     6   6 C        7   7 N                                       1.3661609
     7   7 N        8   6 C                                       1.2893250
     9   6 C       10   6 C                                       1.5364436 (max)
     9   6 C       11   6 C                                       1.5317597
     9   6 C       12   7 N                                       1.4796073
    12   7 N       13   6 C                                       1.3404044
    13   6 C       14   8 O                                       1.2243533
    15   6 C       16   7 N                                       1.2986337
    17   7 N       18   6 C                                       1.2964673
    18   6 C       19   6 C                                       1.4793668
    15   6 C       20   8 O                                       1.3513876
    18   6 C       20   8 O                                       1.3435072
     8   6 C       21   7 N                                       1.3807360
    21   7 N       22   6 C                                       1.3769670
    22   6 C       23   8 O                                       1.2431418
     6   6 C       24   6 C                                       1.4085213
     1   6 C       26   1 H                                       1.0994861
     1   6 C       27   1 H                                       1.1052763
     1   6 C       28   1 H                                       1.1048473
     4   6 C       29   1 H                                       1.0891054
     4   6 C       30   1 H                                       1.0884051
     4   6 C       31   1 H                                       1.0908462
    10   6 C       32   1 H                                       1.0891411
    10   6 C       33   1 H                                       1.0884405
    10   6 C       34   1 H                                       1.0886302
    11   6 C       35   1 H                                       1.0874138
    11   6 C       36   1 H                                       1.0900170
    11   6 C       37   1 H                                       1.0900510
    12   7 N       38   1 H                                       1.0085328
    19   6 C       39   1 H                                       1.0869980
    19   6 C       40   1 H                                       1.0900079
    19   6 C       41   1 H                                       1.0901263
    21   7 N       42   1 H                                       1.0040126 (min)

 * 5 distinct bonds (by element types)

   Z      Z             #   av. dist./Å        max./Å        min./Å
   1 H    6 C          15     1.0919195     1.1052763     1.0869980
   6 C    6 C           4     1.4890228     1.5364436     1.4085213
   1 H    7 N           2     1.0062727     1.0085328     1.0040126
   6 C    7 N           8     1.3535377     1.4796073     1.2893250
   6 C    8 O           5     1.3110537     1.3928785     1.2243533


optimized geometry written to: xtbopt.xyz


           -------------------------------------------------
          | TOTAL ENERGY              -83.615039096818 Eh   |
          | GRADIENT NORM               0.000399346914 Eh/α |
          | HOMO-LUMO GAP               0.268501665976 eV   |
           -------------------------------------------------

------------------------------------------------------------------------
 * finished run on 2023/06/21 at 17:02:26.192     
------------------------------------------------------------------------
 total:
 * wall-time:     0 d,  0 h,  0 min,  5.797 sec
 *  cpu-time:     0 d,  0 h,  0 min,  5.754 sec
 * ratio c/w:     0.992 speedup
 SCF:
 * wall-time:     0 d,  0 h,  0 min,  0.214 sec
 *  cpu-time:     0 d,  0 h,  0 min,  0.193 sec
 * ratio c/w:     0.902 speedup
 ANC optimizer:
 * wall-time:     0 d,  0 h,  0 min,  5.531 sec
 *  cpu-time:     0 d,  0 h,  0 min,  5.525 sec
 * ratio c/w:     0.999 speedup

