42
 energy: -83.615039096818 gnorm: 0.000399346914 xtb: 6.5.1 (579679a)
C           -4.54056330129922       -0.26834881362454       -1.25772792640612
O           -4.26771720109994        0.87699573875811       -0.51351624763658
C           -3.71414604540696        0.69636190934981        0.95008661749686
C           -4.87831448562479       -0.04017530597029        1.69729674271024
O           -3.43821639207476        1.85960999400494        1.44311221890225
C           -2.45137455738832       -0.23165166962856        0.77722920389129
N           -1.59661067674910        0.21677686575542       -0.18956237183506
C           -0.46249621193321       -0.35730652705892       -0.40536624413029
C            0.45641894811590        0.12425637797020       -1.50940699649007
C            0.62232952282796       -0.96580848747683       -2.57940262357295
C           -0.11852116269950        1.40599568924899       -2.12004226349081
N            1.77997800860691        0.39824212745093       -0.90744295028806
C            2.82383007964230        0.88600335613501       -1.59238495671413
O            2.81311965771042        1.24705127148462       -2.76224406308966
C            4.06512625457826        0.98502228899194       -0.77441182183564
N            5.19329740565110        1.52476872079870       -1.12420134985194
N            6.04155932678901        1.38680495914156       -0.06399809776151
C            5.37970163526605        0.77041085542419        0.86488827770884
C            5.86184022856758        0.37440823115952        2.20624958788142
O            4.12254348580089        0.49101272960661        0.48213342435205
N           -0.05850353971368       -1.44421218655165        0.34420537127582
C           -0.81670426404268       -1.97993981395599        1.36114462602525
O           -0.36777474731913       -2.96014518346158        1.98006386917067
C           -2.13020462691094       -1.31509076363632        1.61802726565946
O           -2.85652890795055       -1.77543278040865        2.55286306256623
H           -4.57142210159045        0.00475963432940       -2.32230719518828
H           -5.51726703054607       -0.72206075148613       -1.00907019977586
H           -3.76971925296528       -1.05112679947961       -1.14048682612864
H           -4.64705361236310       -0.06136523485475        2.76135491626568
H           -5.03381809639517       -1.05830131398940        1.34535435860582
H           -5.79193808662904        0.53804931874193        1.55275108042254
H           -0.35498054986212       -1.23834976608115       -2.97540064428524
H            1.08597643820995       -1.84930284930665       -2.14446383363532
H            1.24776662237488       -0.60845000774050       -3.39563714410646
H            0.47139802291964        1.72982257969334       -2.97420858318880
H           -0.13674790274527        2.19956607091540       -1.37301442330112
H           -1.13990765051703        1.21155810004187       -2.44741776570609
H            1.94108423830926        0.07873707875893        0.03547778664929
H            6.88681303290968        0.71148820972658        2.33805390969956
H            5.22991547615924        0.81409804505017        2.97791081638249
H            5.81993912729079       -0.70978271566777        2.31184064414840
H            0.81789489209030       -1.89494818218066        0.15236174862357
