      -----------------------------------------------------------      
     |                   =====================                   |     
     |                           x T B                           |     
     |                   =====================                   |     
     |                         S. Grimme                         |     
     |          Mulliken Center for Theoretical Chemistry        |     
     |                    University of Bonn                     |     
      -----------------------------------------------------------      

   * xtb version 6.5.1 (579679a) compiled by 'ehlert@majestix' on 2022-07-11

   xtb is free software: you can redistribute it and/or modify it under
   the terms of the GNU Lesser General Public License as published by
   the Free Software Foundation, either version 3 of the License, or
   (at your option) any later version.
   
   xtb is distributed in the hope that it will be useful,
   but WITHOUT ANY WARRANTY; without even the implied warranty of
   MERCHANTABILITY or FITNESS FOR A PARTICULAR PURPOSE.  See the
   GNU Lesser General Public License for more details.
   
   Cite this work as:
   * C. Bannwarth, E. Caldeweyher, S. Ehlert, A. Hansen, P. Pracht,
     J. Seibert, S. Spicher, S. Grimme, WIREs Comput. Mol. Sci., 2020, 11,
     e01493. DOI: 10.1002/wcms.1493
   
   for GFN2-xTB:
   * C. Bannwarth, S. Ehlert and S. Grimme., J. Chem. Theory Comput., 2019,
     15, 1652-1671. DOI: 10.1021/acs.jctc.8b01176
   for GFN1-xTB:
   * S. Grimme, C. Bannwarth, P. Shushkov, J. Chem. Theory Comput., 2017,
     13, 1989-2009. DOI: 10.1021/acs.jctc.7b00118
   for GFN0-xTB:
   * P. Pracht, E. Caldeweyher, S. Ehlert, S. Grimme, ChemRxiv, 2019, preprint.
     DOI: 10.26434/chemrxiv.8326202.v1
   for GFN-FF:
   * S. Spicher and S. Grimme, Angew. Chem. Int. Ed., 2020, 59, 15665-15673.
     DOI: 10.1002/anie.202004239
   
   for ALPB and GBSA implicit solvation:
   * S. Ehlert, M. Stahn, S. Spicher, S. Grimme, J. Chem. Theory Comput.,
     2021, 17, 4250-4261. DOI: 10.1021/acs.jctc.1c00471
   
   for DFT-D4:
   * E. Caldeweyher, C. Bannwarth and S. Grimme, J. Chem. Phys., 2017,
     147, 034112. DOI: 10.1063/1.4993215
   * E. Caldeweyher, S. Ehlert, A. Hansen, H. Neugebauer, S. Spicher,
     C. Bannwarth and S. Grimme, J. Chem. Phys., 2019, 150, 154122.
     DOI: 10.1063/1.5090222
   * E. Caldeweyher, J.-M. Mewes, S. Ehlert and S. Grimme, Phys. Chem. Chem. Phys.
     2020, 22, 8499-8512. DOI: 10.1039/D0CP00502A
   
   for sTDA-xTB:
   * S. Grimme and C. Bannwarth, J. Chem. Phys., 2016, 145, 054103.
     DOI: 10.1063/1.4959605
   
   in the mass-spec context:
   * V. Asgeirsson, C. Bauer and S. Grimme, Chem. Sci., 2017, 8, 4879.
     DOI: 10.1039/c7sc00601b
   * J. Koopman and S. Grimme, ACS Omega 2019, 4, 12, 15120-15133.
     DOI: 10.1021/acsomega.9b02011
   
   for metadynamics refer to:
   * S. Grimme, J. Chem. Theory Comput., 2019, 155, 2847-2862
     DOI: 10.1021/acs.jctc.9b00143
   
   for SPH calculations refer to:
   * S. Spicher and S. Grimme, J. Chem. Theory Comput., 2021, 17, 1701-1714
     DOI: 10.1021/acs.jctc.0c01306
   
   with help from (in alphabetical order)
   P. Atkinson, C. Bannwarth, F. Bohle, G. Brandenburg, E. Caldeweyher
   M. Checinski, S. Dohm, S. Ehlert, S. Ehrlich, I. Gerasimov, C. Hölzer
   A. Katbashev, J. Koopman, C. Lavigne, S. Lehtola, F. März, M. Müller,
   F. Musil, H. Neugebauer, J. Pisarek, C. Plett, P. Pracht, F. Pultar,
   J. Seibert, P. Shushkov, S. Spicher, M. Stahn, M. Steiner, T. Strunk,
   J. Stückrath, T. Rose, and J. Unsleber
   
 * started run on 2023/06/20 at 15:28:13.225     

           -------------------------------------------------
          |                Calculation Setup                |
           -------------------------------------------------

          program call               : /lustre/hpc/kemi/ree/PhD/git/ReactivityQM/dep/xtb-6.5.1/bin/xtb --gfn 1 /lustre/hpc/kemi/ree/PhD/git/ReactivityQM/calculations/R03/reac02prodE09/conf09/R03_reac02prodE09_conf09_gfn1.xyz --opt --vfukui --chrg -1 --uhf 0 --alpb DMSO
          hostname                   : node068
          coordinate file            : /lustre/hpc/kemi/ree/PhD/git/ReactivityQM/calculations/R03/reac02prodE09/conf09/R03_reac02prodE09_conf09_gfn1.xyz
          omp threads                :                     1

   ID    Z sym.   atoms
    1    6 C      1, 3, 5, 7-10, 12, 14, 16, 17, 20, 22, 23, 25
    2    8 O      2, 4, 13, 15, 24, 26
    3    7 N      6, 11, 18, 19, 21
    4    1 H      27-46

           -------------------------------------------------
          |                 G F N 1 - x T B                 |
           -------------------------------------------------

        Reference                      10.1021/acs.jctc.7b00118
      * Hamiltonian:
        H0-scaling (s, p, d)           1.850000    2.250000    2.000000
        zeta-weighting                 0.000000
      * Dispersion:
        s8                             2.400000
        a1                             0.630000
        a2                             5.000000
        s9                             0.000000
      * Repulsion:
        kExp                           1.500000
        rExp                           1.000000
      * Coulomb:
        alpha                          2.000000
        third order                    atomic
        anisotropic                    false
      * Halogen bond correction:
        rad-scale                      1.300000
        damping                        0.440000

      * Solvation model:               ALPB
        Solvent                        DMSO
        Parameter file                 internal GFN1-xTB/ALPB
        Dielectric constant                4.6680E+01
        Reference state                gsolv [1 M gas/solution]
        Free energy shift                  7.6243E-03 Eh       4.7843E+00 kcal/mol
        Temperature                        2.9815E+02 K
        Density                            1.1000E+00 kg/L
        Solvent mass                       7.8130E+01 g/mol
        Interaction kernel             P16
        Born radius scaling (c1)           1.7672E+00
        Born radii integrator          GBOBC
        Born offset                        0.0000E+00 a0       0.0000E+00 AA
        H-bond correction              true
        Ion screening                  false
        Surface tension                    1.0000E-05 Eh       1.5569E+01 dyn/cm
        Grid points                               230 per atom

          ...................................................
          :                      SETUP                      :
          :.................................................:
          :  # basis functions                 144          :
          :  # atomic orbitals                 144          :
          :  # shells                           92          :
          :  # electrons                       142          :
          :  # halogen bonds                     0          :
          :  max. iterations                   250          :
          :  Hamiltonian                  GFN1-xTB          :
          :  restarted?                      false          :
          :  GBSA solvation                   true          :
          :  PC potential                    false          :
          :  electronic temp.          300.0000000     K    :
          :  accuracy                    1.0000000          :
          :  -> integral cutoff          0.2500000E+02      :
          :  -> integral neglect         0.1000000E-07      :
          :  -> SCF convergence          0.1000000E-05 Eh   :
          :  -> wf. convergence          0.2000000E-04 e    :
          :  Broyden damping             0.4000000          :
          ...................................................

 iter      E             dE          RMSdq      gap      omega  full diag
   1    -87.5033072 -0.875033E+02  0.854E+00    0.18       0.0  T
   2    -87.4902041  0.131031E-01  0.533E+00    1.18       1.0  T
   3    -87.4405106  0.496935E-01  0.281E+00    0.22       1.0  T
   4    -87.7047773 -0.264267E+00  0.112E+00    1.65       1.0  T
   5    -87.7527794 -0.480022E-01  0.674E-01    0.94       1.0  T
   6    -87.5319086  0.220871E+00  0.134E+00    0.63       1.0  T
   7    -87.7553930 -0.223484E+00  0.598E-01    0.72       1.0  T
   8    -87.7634266 -0.803364E-02  0.493E-01    0.26       1.0  T
   9    -87.6666318  0.967948E-01  0.894E-01    0.08       1.0  T
  10    -87.7607743 -0.941425E-01  0.516E-01    0.33       1.0  T
  11    -87.7668443 -0.606995E-02  0.459E-01    0.20       1.0  T
  12    -87.7963531 -0.295088E-01  0.141E-01    0.07       1.0  T
  13    -87.7948601  0.149302E-02  0.170E-01    0.03       1.0  T
  14    -87.7956353 -0.775242E-03  0.156E-01    0.08       1.0  T
  15    -87.7983711 -0.273583E-02  0.864E-02    0.04       1.0  T
  16    -87.7990079 -0.636771E-03  0.599E-02    0.06       1.0  T
  17    -87.7995335 -0.525594E-03  0.189E-02    0.05       1.0  T
  18    -87.7995750 -0.414737E-04  0.101E-02    0.05       1.5  T
  19    -87.7995912 -0.162301E-04  0.167E-03    0.05       8.8  T
  20    -87.7995914 -0.238018E-06  0.115E-03    0.05      12.8  T
  21    -87.7995917 -0.216146E-06  0.304E-05    0.05     485.7  T
  22    -87.7995917  0.276501E-09  0.512E-05    0.05     288.0  T

   *** convergence criteria satisfied after 22 iterations ***

         #    Occupation            Energy/Eh            Energy/eV
      -------------------------------------------------------------
         1        2.0000           -0.8158458             -22.2003
       ...           ...                  ...                  ...
        65        2.0000           -0.4197881             -11.4230
        66        2.0000           -0.4135329             -11.2528
        67        2.0000           -0.4068813             -11.0718
        68        2.0000           -0.4027408             -10.9591
        69        2.0000           -0.3906969             -10.6314
        70        2.0000           -0.3859475             -10.5022
        71        1.4437           -0.2881104              -7.8399 (HOMO)
        72        0.5563           -0.2862984              -7.7906 (LUMO)
        73                         -0.2475039              -6.7349
        74                         -0.2414214              -6.5694
        75                         -0.2012624              -5.4766
        76                         -0.1484804              -4.0404
       ...                                ...                  ...
       144                          0.7279815              19.8094
      -------------------------------------------------------------
                  HL-Gap            0.0018120 Eh            0.0493 eV
             Fermi-level           -0.2872044 Eh           -7.8152 eV

 SCC (total)                   0 d,  0 h,  0 min,  0.233 sec
 SCC setup                      ...        0 min,  0.002 sec (  0.880%)
 Dispersion                     ...        0 min,  0.000 sec (  0.141%)
 classical contributions        ...        0 min,  0.000 sec (  0.047%)
 integral evaluation            ...        0 min,  0.029 sec ( 12.373%)
 iterations                     ...        0 min,  0.134 sec ( 57.679%)
 molecular gradient             ...        0 min,  0.066 sec ( 28.251%)
 printout                       ...        0 min,  0.001 sec (  0.621%)

         :::::::::::::::::::::::::::::::::::::::::::::::::::::
         ::                     SUMMARY                     ::
         :::::::::::::::::::::::::::::::::::::::::::::::::::::
         :: total energy             -87.009934644241 Eh    ::
         :: total w/o Gsasa/hb       -86.986962737668 Eh    ::
         :: gradient norm              0.120253811352 Eh/a0 ::
         :: HOMO-LUMO gap              0.049307660591 eV    ::
         ::.................................................::
         :: SCC energy               -87.799591652984 Eh    ::
         :: -> electrostatic           0.441890998007 Eh    ::
         :: -> Gsolv                  -0.106923590502 Eh    ::
         ::    -> Gelec               -0.083951683929 Eh    ::
         ::    -> Gsasa               -0.025766234063 Eh    ::
         ::    -> Ghb                 -0.004829951514 Eh    ::
         ::    -> Gshift               0.007624279005 Eh    ::
         :: repulsion energy           0.818221066480 Eh    ::
         :: dispersion energy         -0.028564057737 Eh    ::
         :: halogen bond corr.         0.000000000000 Eh    ::
         :: add. restraining           0.000000000000 Eh    ::
         :: total charge              -1.000000000000 e     ::
         :::::::::::::::::::::::::::::::::::::::::::::::::::::

      ----------------------------------------------------------- 
     |                   =====================                   |
     |                        A N C O P T                        |
     |                   =====================                   |
     |               Approximate Normal Coordinate               |
     |                Rational Function Optimizer                |
      ----------------------------------------------------------- 

          ...................................................
          :                      SETUP                      :
          :.................................................:
          :   optimization level            normal          :
          :   max. optcycles                   200          :
          :   ANC micro-cycles                  20          :
          :   degrees of freedom               132          :
          :.................................................:
          :   RF solver                   davidson          :
          :   write xtbopt.log                true          :
          :   linear?                        false          :
          :   energy convergence         0.5000000E-05 Eh   :
          :   grad. convergence          0.1000000E-02 Eh/α :
          :   maximium RF displ.         1.0000000          :
          :   Hlow (freq-cutoff)         0.1000000E-01      :
          :   Hmax (freq-cutoff)         5.0000000          :
          :   S6 in model hess.         20.0000000          :
          ...................................................

generating ANC from model Hessian ...
Using Lindh-Hessian (1995)
 Shifting diagonal of input Hessian by   9.830105778950823E-003
 Lowest  eigenvalues of input Hessian
    0.000000    0.000000    0.000000    0.000000    0.000000    0.000000
    0.010000    0.010172    0.010282    0.010779    0.011871    0.012114
    0.012739    0.014034    0.014679    0.015171    0.015965    0.016179
 Highest eigenvalues
    1.963110    2.052055    2.154153    2.254825    2.257118    2.351531
 

........................................................................
.............................. CYCLE    1 ..............................
........................................................................
   1    -87.7995917 -0.877996E+02  0.583E-06    0.05       0.0  T
   2    -87.7995917  0.191233E-08  0.109E-04    0.05     135.8  T
   3    -87.7995917 -0.191743E-08  0.175E-06    0.05    8435.6  T
     SCC iter.                  ...        0 min,  0.019 sec
     gradient                   ...        0 min,  0.066 sec
 * total energy  :   -87.0099346 Eh     change       -0.4237961E-09 Eh
   gradient norm :     0.1202555 Eh/α   predicted     0.0000000E+00 (-100.00%)
   displ. norm   :     0.3015944 α      lambda       -0.1604453E-01
   maximum displ.:     0.1468297 α      in ANC's #33, #25, #7, ...

........................................................................
.............................. CYCLE    2 ..............................
........................................................................
   1    -87.7915053 -0.877915E+02  0.330E-01    0.12       0.0  T
   2    -87.5301440  0.261361E+00  0.139E+00    0.81       1.0  T
   3    -87.7208673 -0.190723E+00  0.726E-01    0.05       1.0  T
   4    -87.7778312 -0.569639E-01  0.440E-01    0.20       1.0  T
   5    -87.7956408 -0.178096E-01  0.277E-01    0.11       1.0  T
   6    -87.8080439 -0.124031E-01  0.310E-02    0.05       1.0  T
   7    -87.8081854 -0.141494E-03  0.897E-03    0.05       1.6  T
   8    -87.8081977 -0.123252E-04  0.149E-03    0.05       9.9  T
   9    -87.8081956  0.212912E-05  0.387E-03    0.05       3.8  T
  10    -87.8081975 -0.190189E-05  0.182E-03    0.05       8.1  T
  11    -87.8081980 -0.469970E-06  0.695E-04    0.05      21.2  T
  12    -87.8081980 -0.788128E-07  0.249E-05    0.05     591.7  T
  13    -87.8081980 -0.262617E-10  0.219E-05    0.05     674.1  T
     SCC iter.                  ...        0 min,  0.080 sec
     gradient                   ...        0 min,  0.066 sec
 * total energy  :   -87.0215157 Eh     change       -0.1158109E-01 Eh
   gradient norm :     0.0554825 Eh/α   predicted    -0.8760975E-02 ( -24.35%)
   displ. norm   :     0.3251906 α      lambda       -0.6882329E-02
   maximum displ.:     0.1350193 α      in ANC's #33, #25, #7, ...

........................................................................
.............................. CYCLE    3 ..............................
........................................................................
   1    -87.8003998 -0.878004E+02  0.327E-01    0.13       0.0  T
   2    -87.5341762  0.266224E+00  0.140E+00    0.81       1.0  T
   3    -87.7270903 -0.192914E+00  0.738E-01    0.05       1.0  T
   4    -87.7919387 -0.648484E-01  0.397E-01    0.18       1.0  T
   5    -87.8114054 -0.194667E-01  0.188E-01    0.09       1.0  T
   6    -87.8164124 -0.500703E-02  0.727E-02    0.04       1.0  T
   7    -87.8172714 -0.858992E-03  0.331E-03    0.05       4.5  T
   8    -87.8172666  0.475854E-05  0.618E-03    0.05       2.4  T
   9    -87.8172696 -0.294497E-05  0.450E-03    0.05       3.3  T
  10    -87.8172729 -0.332047E-05  0.284E-04    0.05      51.9  T
  11    -87.8172729 -0.410320E-08  0.247E-04    0.05      59.7  T
  12    -87.8172729 -0.961363E-08  0.282E-05    0.05     523.4  T
  13    -87.8172729 -0.525660E-10  0.224E-05    0.05     658.6  T
     SCC iter.                  ...        0 min,  0.085 sec
     gradient                   ...        0 min,  0.067 sec
 * total energy  :   -87.0256332 Eh     change       -0.4117465E-02 Eh
   gradient norm :     0.0159137 Eh/α   predicted    -0.3806412E-02 (  -7.55%)
   displ. norm   :     0.2332778 α      lambda       -0.1178060E-02
   maximum displ.:     0.0915520 α      in ANC's #5, #7, #9, ...

........................................................................
.............................. CYCLE    4 ..............................
........................................................................
   1    -87.8154729 -0.878155E+02  0.160E-01    0.09       0.0  T
   2    -87.5556060  0.259867E+00  0.130E+00    0.39       1.0  T
   3    -87.8144749 -0.258869E+00  0.179E-01    0.03       1.0  T
   4    -87.8181387 -0.366380E-02  0.960E-02    0.07       1.0  T
   5    -87.8189741 -0.835405E-03  0.665E-02    0.05       1.0  T
   6    -87.8196691 -0.694972E-03  0.114E-02    0.05       1.3  T
   7    -87.8196876 -0.184495E-04  0.301E-03    0.05       4.9  T
   8    -87.8196885 -0.886497E-06  0.184E-03    0.06       8.0  T
   9    -87.8196890 -0.564088E-06  0.543E-05    0.06     271.4  T
  10    -87.8196890  0.111439E-08  0.943E-05    0.06     156.3  T
     SCC iter.                  ...        0 min,  0.062 sec
     gradient                   ...        0 min,  0.065 sec
 * total energy  :   -87.0265241 Eh     change       -0.8909159E-03 Eh
   gradient norm :     0.0134216 Eh/α   predicted    -0.6210878E-03 ( -30.29%)
   displ. norm   :     0.3327510 α      lambda       -0.1062001E-02
   maximum displ.:     0.1586590 α      in ANC's #5, #9, #7, ...

........................................................................
.............................. CYCLE    5 ..............................
........................................................................
   1    -87.8158257 -0.878158E+02  0.173E-01    0.09       0.0  T
   2    -87.5508410  0.264985E+00  0.132E+00    0.43       1.0  T
   3    -87.8118459 -0.261005E+00  0.236E-01    0.02       1.0  T
   4    -87.8182826 -0.643667E-02  0.124E-01    0.08       1.0  T
   5    -87.8194217 -0.113915E-02  0.944E-02    0.04       1.0  T
   6    -87.8207837 -0.136196E-02  0.221E-02    0.05       1.0  T
   7    -87.8208578 -0.741370E-04  0.381E-03    0.06       3.9  T
   8    -87.8208593 -0.149400E-05  0.229E-03    0.06       6.4  T
   9    -87.8208602 -0.852999E-06  0.264E-04    0.06      55.8  T
  10    -87.8208602 -0.943501E-08  0.120E-04    0.06     123.3  T
  11    -87.8208602 -0.209702E-08  0.285E-05    0.06     518.2  T
     SCC iter.                  ...        0 min,  0.068 sec
     gradient                   ...        0 min,  0.065 sec
 * total energy  :   -87.0272583 Eh     change       -0.7342117E-03 Eh
   gradient norm :     0.0114497 Eh/α   predicted    -0.5897964E-03 ( -19.67%)
   displ. norm   :     0.2919009 α      lambda       -0.5671663E-03
   maximum displ.:     0.1624593 α      in ANC's #5, #9, #4, ...

........................................................................
.............................. CYCLE    6 ..............................
........................................................................
   1    -87.8168839 -0.878169E+02  0.159E-01    0.09       0.0  T
   2    -87.5494938  0.267390E+00  0.132E+00    0.39       1.0  T
   3    -87.8154156 -0.265922E+00  0.188E-01    0.03       1.0  T
   4    -87.8200314 -0.461584E-02  0.815E-02    0.07       1.0  T
   5    -87.8205972 -0.565778E-03  0.593E-02    0.05       1.0  T
   6    -87.8211355 -0.538240E-03  0.124E-02    0.06       1.2  T
   7    -87.8211570 -0.215148E-04  0.321E-03    0.06       4.6  T
   8    -87.8211582 -0.126743E-05  0.156E-03    0.06       9.4  T
   9    -87.8211586 -0.393660E-06  0.240E-04    0.06      61.4  T
  10    -87.8211586 -0.911233E-08  0.532E-05    0.06     277.0  T
  11    -87.8211586 -0.429267E-09  0.321E-06    0.06    4599.8  T
     SCC iter.                  ...        0 min,  0.071 sec
     gradient                   ...        0 min,  0.069 sec
 * total energy  :   -87.0277036 Eh     change       -0.4453184E-03 Eh
   gradient norm :     0.0107224 Eh/α   predicted    -0.3077647E-03 ( -30.89%)
   displ. norm   :     0.4468877 α      lambda       -0.8072041E-03
   maximum displ.:     0.2570287 α      in ANC's #5, #9, #4, ...

........................................................................
.............................. CYCLE    7 ..............................
........................................................................
   1    -87.8079104 -0.878079E+02  0.274E-01    0.13       0.0  T
   2    -87.5246723  0.283238E+00  0.142E+00    0.69       1.0  T
   3    -87.7609466 -0.236274E+00  0.603E-01    0.02       1.0  T
   4    -87.8160528 -0.551062E-01  0.160E-01    0.09       1.0  T
   5    -87.8199178 -0.386492E-02  0.608E-02    0.05       1.0  T
   6    -87.8201244 -0.206626E-03  0.471E-02    0.05       1.0  T
   7    -87.8204682 -0.343793E-03  0.396E-03    0.06       3.7  T
   8    -87.8204703 -0.212188E-05  0.660E-04    0.06      22.3  T
   9    -87.8204696  0.746644E-06  0.223E-03    0.06       6.6  T
  10    -87.8204703 -0.780550E-06  0.450E-04    0.06      32.7  T
  11    -87.8204704 -0.323732E-07  0.899E-05    0.06     163.9  T
  12    -87.8204704 -0.110779E-08  0.404E-05    0.06     365.1  T
     SCC iter.                  ...        0 min,  0.075 sec
     gradient                   ...        0 min,  0.066 sec
 * total energy  :   -87.0283880 Eh     change       -0.6843748E-03 Eh
   gradient norm :     0.0137664 Eh/α   predicted    -0.4842057E-03 ( -29.25%)
   displ. norm   :     0.6385772 α      lambda       -0.1327265E-02
   maximum displ.:     0.3518961 α      in ANC's #5, #9, #11, ...

........................................................................
.............................. CYCLE    8 ..............................
........................................................................
   1    -87.7954549 -0.877955E+02  0.364E-01    0.23       0.0  T
   2    -87.4909683  0.304487E+00  0.152E+00    0.87       1.0  T
   3    -87.7519089 -0.260941E+00  0.638E-01    0.02       1.0  T
   4    -87.8032054 -0.512965E-01  0.284E-01    0.16       1.0  T
   5    -87.8169219 -0.137166E-01  0.246E-02    0.07       1.0  T
   6    -87.8133233  0.359867E-02  0.150E-01    0.04       1.0  T
   7    -87.8166462 -0.332291E-02  0.423E-02    0.08       1.0  T
   8    -87.8169450 -0.298831E-03  0.325E-03    0.07       4.5  T
   9    -87.8169398  0.522526E-05  0.653E-03    0.07       2.3  T
  10    -87.8169467 -0.689997E-05  0.476E-04    0.07      31.0  T
  11    -87.8169466  0.471845E-07  0.697E-04    0.07      21.1  T
  12    -87.8169467 -0.802585E-07  0.401E-05    0.07     368.1  T
  13    -87.8169467 -0.220879E-09  0.175E-05    0.07     844.9  T
     SCC iter.                  ...        0 min,  0.067 sec
     gradient                   ...        0 min,  0.040 sec
 * total energy  :   -87.0293920 Eh     change       -0.1004002E-02 Eh
   gradient norm :     0.0242191 Eh/α   predicted    -0.9342533E-03 (  -6.95%)
   displ. norm   :     0.3848342 α      lambda       -0.1332849E-02
   maximum displ.:     0.1654364 α      in ANC's #5, #29, #11, ...

........................................................................
.............................. CYCLE    9 ..............................
........................................................................
   1    -87.8012332 -0.878012E+02  0.332E-01    0.23       0.0  T
   2    -87.4798032  0.321430E+00  0.153E+00    0.77       1.0  T
   3    -87.7974385 -0.317635E+00  0.373E-01    0.02       1.0  T
   4    -87.8115221 -0.140836E-01  0.208E-01    0.13       1.0  T
   5    -87.8176123 -0.609020E-02  0.954E-02    0.06       1.0  T
   6    -87.8188963 -0.128407E-02  0.148E-02    0.07       1.0  T
   7    -87.8189199 -0.235457E-04  0.483E-03    0.07       3.1  T
   8    -87.8189236 -0.371383E-05  0.137E-03    0.07      10.8  T
   9    -87.8189229  0.674736E-06  0.244E-03    0.07       6.0  T
  10    -87.8189235 -0.615720E-06  0.144E-03    0.07      10.2  T
  11    -87.8189239 -0.342049E-06  0.211E-05    0.07     698.5  T
  12    -87.8189239  0.160469E-09  0.362E-05    0.07     406.8  T
     SCC iter.                  ...        0 min,  0.044 sec
     gradient                   ...        0 min,  0.039 sec
 * total energy  :   -87.0303651 Eh     change       -0.9730975E-03 Eh
   gradient norm :     0.0281088 Eh/α   predicted    -0.7652336E-03 ( -21.36%)
   displ. norm   :     0.3400378 α      lambda       -0.1790952E-02
   maximum displ.:     0.1365638 α      in ANC's #7, #8, #10, ...

........................................................................
.............................. CYCLE   10 ..............................
........................................................................
   1    -87.8118355 -0.878118E+02  0.290E-01    0.20       0.0  T
   2    -87.4781659  0.333670E+00  0.153E+00    0.66       1.0  T
   3    -87.8189594 -0.340793E+00  0.203E-01    0.05       1.0  T
   4    -87.8236192 -0.465979E-02  0.934E-02    0.10       1.0  T
   5    -87.8226892  0.929919E-03  0.125E-01    0.06       1.0  T
   6    -87.8249422 -0.225296E-02  0.338E-02    0.09       1.0  T
   7    -87.8251367 -0.194563E-03  0.129E-03    0.08      11.4  T
   8    -87.8251355  0.122445E-05  0.293E-03    0.08       5.0  T
   9    -87.8251367 -0.117486E-05  0.114E-03    0.08      12.9  T
  10    -87.8251369 -0.197343E-06  0.261E-04    0.08      56.5  T
  11    -87.8251369 -0.111589E-07  0.352E-05    0.08     418.9  T
  12    -87.8251369  0.301142E-09  0.555E-05    0.08     265.7  T
     SCC iter.                  ...        0 min,  0.043 sec
     gradient                   ...        0 min,  0.038 sec
 * total energy  :   -87.0315650 Eh     change       -0.1199900E-02 Eh
   gradient norm :     0.0201649 Eh/α   predicted    -0.9990217E-03 ( -16.74%)
   displ. norm   :     0.4320133 α      lambda       -0.1354655E-02
   maximum displ.:     0.1856767 α      in ANC's #11, #29, #5, ...

........................................................................
.............................. CYCLE   11 ..............................
........................................................................
   1    -87.8084470 -0.878084E+02  0.279E-01    0.23       0.0  T
   2    -87.4582639  0.350183E+00  0.156E+00    0.60       1.0  T
   3    -87.8203559 -0.362092E+00  0.457E-02    0.08       1.0  T
   4    -87.8194285  0.927366E-03  0.868E-02    0.07       1.0  T
   5    -87.8191411  0.287410E-03  0.889E-02    0.11       1.0  T
   6    -87.8200963 -0.955207E-03  0.483E-02    0.08       1.0  T
   7    -87.8204470 -0.350643E-03  0.925E-03    0.09       1.6  T
   8    -87.8204603 -0.133078E-04  0.201E-03    0.09       7.3  T
   9    -87.8204609 -0.637449E-06  0.151E-04    0.09      97.9  T
  10    -87.8204609  0.312509E-08  0.194E-04    0.09      76.0  T
     SCC iter.                  ...        0 min,  0.036 sec
     gradient                   ...        0 min,  0.039 sec
 * total energy  :   -87.0323499 Eh     change       -0.7848945E-03 Eh
   gradient norm :     0.0192993 Eh/α   predicted    -0.8037421E-03 (   2.40%)
   displ. norm   :     0.3907371 α      lambda       -0.1718764E-02
   maximum displ.:     0.2085482 α      in ANC's #9, #7, #11, ...

........................................................................
.............................. CYCLE   12 ..............................
........................................................................
   1    -87.8023033 -0.878023E+02  0.397E-01    0.02       0.0  T
   2    -87.7984101  0.389312E-02  0.588E-01    1.23       1.0  T
   3    -87.8115391 -0.131290E-01  0.393E-01    0.58       1.0  T
   4    -87.8142256 -0.268646E-02  0.340E-01    0.33       1.0  T
   5    -87.8215299 -0.730429E-02  0.238E-01    0.16       1.0  T
   6    -87.5592744  0.262255E+00  0.128E+00    0.13       1.0  T
   7    -87.8292682 -0.269994E+00  0.648E-02    0.07       1.0  T
   8    -87.8294218 -0.153596E-03  0.602E-02    0.10       1.0  T
   9    -87.8299615 -0.539738E-03  0.129E-02    0.08       1.1  T
  10    -87.8299199  0.416799E-04  0.208E-02    0.09       1.0  T
  11    -87.8299703 -0.503990E-04  0.109E-02    0.08       1.3  T
  12    -87.8299841 -0.138407E-04  0.579E-03    0.08       2.5  T
  13    -87.8299892 -0.511259E-05  0.125E-03    0.08      11.8  T
  14    -87.8299895 -0.250931E-06  0.150E-04    0.08      98.5  T
  15    -87.8299895  0.310284E-08  0.204E-04    0.08      72.3  T
  16    -87.8299895 -0.672784E-08  0.170E-05    0.08     865.9  T
     SCC iter.                  ...        0 min,  0.057 sec
     gradient                   ...        0 min,  0.038 sec
 * total energy  :   -87.0328631 Eh     change       -0.5131570E-03 Eh
   gradient norm :     0.0209979 Eh/α   predicted    -0.9906031E-03 (  93.04%)
   displ. norm   :     0.1940557 α      lambda       -0.7848157E-03
   maximum displ.:     0.0797909 α      in ANC's #11, #5, #15, ...

........................................................................
.............................. CYCLE   13 ..............................
........................................................................
   1    -87.8222610 -0.878223E+02  0.173E-01    0.14       0.0  T
   2    -87.4808987  0.341362E+00  0.150E+00    0.39       1.0  T
   3    -87.8254181 -0.344519E+00  0.115E-01    0.06       1.0  T
   4    -87.8272155 -0.179740E-02  0.257E-02    0.08       1.0  T
   5    -87.8271741  0.414770E-04  0.279E-02    0.08       1.0  T
   6    -87.8272822 -0.108092E-03  0.339E-03    0.08       4.4  T
   7    -87.8272840 -0.185651E-05  0.261E-04    0.08      56.5  T
   8    -87.8272840 -0.338272E-08  0.157E-04    0.08      93.8  T
   9    -87.8272840 -0.303255E-08  0.314E-05    0.08     469.4  T
     SCC iter.                  ...        0 min,  0.033 sec
     gradient                   ...        0 min,  0.039 sec
 * total energy  :   -87.0333978 Eh     change       -0.5347677E-03 Eh
   gradient norm :     0.0133038 Eh/α   predicted    -0.4071858E-03 ( -23.86%)
   displ. norm   :     0.1975502 α      lambda       -0.4634067E-03
   maximum displ.:     0.0837260 α      in ANC's #11, #3, #15, ...

........................................................................
.............................. CYCLE   14 ..............................
........................................................................
   1    -87.8260994 -0.878261E+02  0.513E-02    0.10       0.0  T
   2    -87.6793345  0.146765E+00  0.954E-01    0.05       1.0  T
   3    -87.8265037 -0.147169E+00  0.123E-02    0.08       1.2  T
   4    -87.8263811  0.122510E-03  0.299E-02    0.08       1.0  T
   5    -87.8264214 -0.402525E-04  0.239E-02    0.08       1.0  T
   6    -87.8265007 -0.792485E-04  0.657E-03    0.08       2.2  T
   7    -87.8265063 -0.561437E-05  0.266E-03    0.08       5.5  T
   8    -87.8265073 -0.103991E-05  0.698E-04    0.08      21.1  T
   9    -87.8265074 -0.703589E-07  0.160E-04    0.08      92.4  T
  10    -87.8265074 -0.289420E-08  0.796E-05    0.08     185.3  T
     SCC iter.                  ...        0 min,  0.037 sec
     gradient                   ...        0 min,  0.040 sec
 * total energy  :   -87.0337205 Eh     change       -0.3227103E-03 Eh
   gradient norm :     0.0095797 Eh/α   predicted    -0.2407470E-03 ( -25.40%)
   displ. norm   :     0.2145550 α      lambda       -0.3363664E-03
   maximum displ.:     0.0984078 α      in ANC's #3, #11, #1, ...

........................................................................
.............................. CYCLE   15 ..............................
........................................................................
   1    -87.8274159 -0.878274E+02  0.180E-02    0.08       0.0  T
   2    -87.8250687  0.234719E-02  0.122E-01    0.12       1.0  T
   3    -87.8274360 -0.236725E-02  0.135E-02    0.08       1.1  T
   4    -87.8274496 -0.136244E-04  0.598E-03    0.08       2.5  T
   5    -87.8274527 -0.312942E-05  0.126E-03    0.08      11.7  T
   6    -87.8274527  0.332210E-08  0.300E-04    0.08      49.2  T
   7    -87.8274527 -0.105055E-07  0.107E-04    0.08     138.4  T
   8    -87.8274527 -0.403261E-09  0.693E-05    0.08     212.9  T
     SCC iter.                  ...        0 min,  0.030 sec
     gradient                   ...        0 min,  0.040 sec
 * total energy  :   -87.0339549 Eh     change       -0.2343879E-03 Eh
   gradient norm :     0.0083078 Eh/α   predicted    -0.1759268E-03 ( -24.94%)
   displ. norm   :     0.2240243 α      lambda       -0.2481528E-03
   maximum displ.:     0.1157663 α      in ANC's #3, #1, #11, ...

........................................................................
.............................. CYCLE   16 ..............................
........................................................................
   1    -87.8280735 -0.878281E+02  0.185E-02    0.09       0.0  T
   2    -87.8231692  0.490431E-02  0.177E-01    0.05       1.0  T
   3    -87.8279543 -0.478508E-02  0.307E-02    0.09       1.0  T
   4    -87.8281043 -0.150033E-03  0.341E-03    0.08       4.3  T
   5    -87.8281051 -0.730528E-06  0.139E-03    0.08      10.6  T
   6    -87.8281052 -0.149985E-06  0.303E-04    0.08      48.7  T
   7    -87.8281052 -0.980275E-08  0.905E-05    0.08     163.0  T
   8    -87.8281052  0.145363E-09  0.613E-05    0.08     240.3  T
     SCC iter.                  ...        0 min,  0.029 sec
     gradient                   ...        0 min,  0.038 sec
 * total energy  :   -87.0341227 Eh     change       -0.1677359E-03 Eh
   gradient norm :     0.0074767 Eh/α   predicted    -0.1303036E-03 ( -22.32%)
   displ. norm   :     0.2375707 α      lambda       -0.1854785E-03
   maximum displ.:     0.1288114 α      in ANC's #3, #1, #15, ...

........................................................................
.............................. CYCLE   17 ..............................
........................................................................
   1    -87.8267627 -0.878268E+02  0.116E-01    0.12       0.0  T
   2    -87.4970574  0.329705E+00  0.145E+00    0.23       1.0  T
   3    -87.8288580 -0.331801E+00  0.107E-02    0.09       1.4  T
   4    -87.8288123  0.457328E-04  0.209E-02    0.08       1.0  T
   5    -87.8288709 -0.585938E-04  0.667E-03    0.08       2.2  T
   6    -87.8288757 -0.486358E-05  0.260E-03    0.09       5.7  T
   7    -87.8288766 -0.829596E-06  0.879E-04    0.09      16.8  T
   8    -87.8288767 -0.110449E-06  0.159E-04    0.09      92.8  T
   9    -87.8288767 -0.240563E-08  0.808E-05    0.09     182.4  T
     SCC iter.                  ...        0 min,  0.033 sec
     gradient                   ...        0 min,  0.037 sec
 * total energy  :   -87.0342411 Eh     change       -0.1184373E-03 Eh
   gradient norm :     0.0062621 Eh/α   predicted    -0.9797863E-04 ( -17.27%)
   displ. norm   :     0.2389680 α      lambda        0.3431642E-04
   maximum displ.:     0.1296329 α      in ANC's #3, #1, #15, ...

........................................................................
.............................. CYCLE   18 ..............................
........................................................................
   1    -87.8265753 -0.878266E+02  0.120E-01    0.12       0.0  T
   2    -87.4910837  0.335492E+00  0.146E+00    0.23       1.0  T
   3    -87.8288282 -0.337744E+00  0.925E-03    0.09       1.6  T
   4    -87.8287632  0.649484E-04  0.230E-02    0.08       1.0  T
   5    -87.8288345 -0.712680E-04  0.709E-03    0.09       2.1  T
   6    -87.8288398 -0.531142E-05  0.284E-03    0.09       5.2  T
   7    -87.8288408 -0.101618E-05  0.893E-04    0.09      16.5  T
   8    -87.8288409 -0.113094E-06  0.162E-04    0.09      90.9  T
   9    -87.8288409 -0.234326E-08  0.877E-05    0.09     168.2  T
     SCC iter.                  ...        0 min,  0.032 sec
     gradient                   ...        0 min,  0.039 sec
 * total energy  :   -87.0342233 Eh     change        0.1779208E-04 Eh
   gradient norm :     0.0085635 Eh/α   predicted     0.1813620E-04 (   1.93%)
   displ. norm   :     0.1025671 α      lambda       -0.1933167E-03
   maximum displ.:     0.0509996 α      in ANC's #11, #7, #12, ...

........................................................................
.............................. CYCLE   19 ..............................
........................................................................
   1    -87.8298492 -0.878298E+02  0.897E-02    0.07       0.0  T
   2    -87.8166576  0.131916E-01  0.330E-01    0.34       1.0  T
   3    -87.8273812 -0.107237E-01  0.157E-01    0.13       1.0  T
   4    -87.8309446 -0.356335E-02  0.392E-02    0.10       1.0  T
   5    -87.8310915 -0.146932E-03  0.211E-02    0.08       1.0  T
   6    -87.8311636 -0.720732E-04  0.221E-03    0.09       6.7  T
   7    -87.8311641 -0.472651E-06  0.113E-03    0.09      13.1  T
   8    -87.8311642 -0.171546E-06  0.407E-04    0.09      36.2  T
   9    -87.8311643 -0.160170E-07  0.256E-04    0.09      57.5  T
  10    -87.8311643 -0.941645E-08  0.775E-05    0.09     190.3  T
  11    -87.8311643 -0.848175E-09  0.266E-05    0.09     553.9  T
     SCC iter.                  ...        0 min,  0.041 sec
     gradient                   ...        0 min,  0.040 sec
 * total energy  :   -87.0343187 Eh     change       -0.9538036E-04 Eh
   gradient norm :     0.0066743 Eh/α   predicted    -0.9767892E-04 (   2.41%)
   displ. norm   :     0.0782780 α      lambda       -0.1193381E-03
   maximum displ.:     0.0340886 α      in ANC's #2, #16, #5, ...

........................................................................
.............................. CYCLE   20 ..............................
........................................................................
   1    -87.8286039 -0.878286E+02  0.754E-02    0.11       0.0  T
   2    -87.5572262  0.271378E+00  0.130E+00    0.12       1.0  T
   3    -87.8295360 -0.272310E+00  0.580E-03    0.09       2.5  T
   4    -87.8295228  0.131464E-04  0.110E-02    0.09       1.3  T
   5    -87.8295262 -0.332219E-05  0.929E-03    0.09       1.6  T
   6    -87.8295369 -0.107902E-04  0.375E-03    0.09       3.9  T
   7    -87.8295390 -0.208543E-05  0.793E-04    0.09      18.6  T
   8    -87.8295391 -0.854656E-07  0.253E-04    0.09      58.3  T
   9    -87.8295391 -0.874532E-08  0.697E-05    0.09     211.4  T
  10    -87.8295391 -0.707914E-09  0.117E-05    0.09    1259.0  T
     SCC iter.                  ...        0 min,  0.037 sec
     gradient                   ...        0 min,  0.040 sec
 * total energy  :   -87.0343718 Eh     change       -0.5305556E-04 Eh
   gradient norm :     0.0055051 Eh/α   predicted    -0.6003780E-04 (  13.16%)
   displ. norm   :     0.0891437 α      lambda       -0.7921905E-04
   maximum displ.:     0.0550933 α      in ANC's #3, #2, #11, ...
 * RMSD in coord.:     0.5156105 α      energy gain  -0.2443711E-01 Eh

generating ANC from model Hessian ...
Using Lindh-Hessian (1995)
 Shifting diagonal of input Hessian by   9.818035606796952E-003
 Lowest  eigenvalues of input Hessian
    0.000000    0.000000    0.000000    0.000000    0.000000    0.000000
    0.010000    0.010145    0.010226    0.010843    0.011799    0.012017
    0.012347    0.013846    0.014409    0.014685    0.015326    0.016439
 Highest eigenvalues
    1.969032    2.111870    2.185308    2.220170    2.295026    2.371900
 

........................................................................
.............................. CYCLE   21 ..............................
........................................................................
   1    -87.8295639 -0.878296E+02  0.314E-02    0.10       0.0  T
   2    -87.7759677  0.535962E-01  0.578E-01    0.01       1.0  T
   3    -87.8297255 -0.537578E-01  0.426E-03    0.09       3.5  T
   4    -87.8297253  0.146759E-06  0.253E-03    0.09       5.8  T
   5    -87.8297250  0.329356E-06  0.245E-03    0.09       6.0  T
   6    -87.8297254 -0.412901E-06  0.158E-03    0.09       9.3  T
   7    -87.8297258 -0.359327E-06  0.489E-04    0.09      30.2  T
   8    -87.8297258 -0.371571E-07  0.209E-05    0.09     704.1  T
   9    -87.8297258  0.358824E-10  0.228E-05    0.09     645.9  T
     SCC iter.                  ...        0 min,  0.034 sec
     gradient                   ...        0 min,  0.040 sec
 * total energy  :   -87.0344333 Eh     change       -0.6158527E-04 Eh
   gradient norm :     0.0032354 Eh/α   predicted     0.0000000E+00 (-100.00%)
   displ. norm   :     0.0487359 α      lambda       -0.4141235E-04
   maximum displ.:     0.0333857 α      in ANC's #3, #2, #1, ...

........................................................................
.............................. CYCLE   22 ..............................
........................................................................
   1    -87.8294849 -0.878295E+02  0.981E-03    0.09       0.0  T
   2    -87.8262511  0.323379E-02  0.143E-01    0.06       1.0  T
   3    -87.8294977 -0.324654E-02  0.498E-03    0.09       3.0  T
   4    -87.8294989 -0.118310E-05  0.393E-03    0.09       3.8  T
   5    -87.8295003 -0.148575E-05  0.212E-03    0.09       7.0  T
   6    -87.8295010 -0.656212E-06  0.248E-04    0.09      59.4  T
   7    -87.8295010 -0.940294E-08  0.648E-06    0.09    2274.8  T
   8    -87.8295010  0.322586E-11  0.595E-06    0.09    2478.5  T
     SCC iter.                  ...        0 min,  0.030 sec
     gradient                   ...        0 min,  0.040 sec
 * total energy  :   -87.0344681 Eh     change       -0.3475330E-04 Eh
   gradient norm :     0.0010577 Eh/α   predicted    -0.2078018E-04 ( -40.21%)
   displ. norm   :     0.1855297 α      lambda       -0.6899966E-04
   maximum displ.:     0.1214633 α      in ANC's #3, #2, #1, ...

........................................................................
.............................. CYCLE   23 ..............................
........................................................................
   1    -87.8287377 -0.878287E+02  0.251E-02    0.09       0.0  T
   2    -87.7966193  0.321183E-01  0.449E-01    0.02       1.0  T
   3    -87.8288328 -0.322135E-01  0.968E-03    0.09       1.5  T
   4    -87.8288229  0.987867E-05  0.122E-02    0.09       1.2  T
   5    -87.8288307 -0.775225E-05  0.953E-03    0.09       1.5  T
   6    -87.8288433 -0.126429E-04  0.257E-03    0.09       5.7  T
   7    -87.8288444 -0.101966E-05  0.345E-04    0.09      42.7  T
   8    -87.8288444 -0.175477E-07  0.717E-05    0.09     205.6  T
   9    -87.8288444 -0.633335E-09  0.259E-05    0.09     569.6  T
     SCC iter.                  ...        0 min,  0.033 sec
     gradient                   ...        0 min,  0.053 sec
 * total energy  :   -87.0345400 Eh     change       -0.7194349E-04 Eh
   gradient norm :     0.0042631 Eh/α   predicted    -0.3502913E-04 ( -51.31%)
   displ. norm   :     0.1198340 α      lambda       -0.5162401E-04
   maximum displ.:     0.0777672 α      in ANC's #3, #2, #1, ...

........................................................................
.............................. CYCLE   24 ..............................
........................................................................
   1    -87.8287791 -0.878288E+02  0.388E-03    0.09       0.0  T
   2    -87.8283851  0.393978E-03  0.501E-02    0.08       1.0  T
   3    -87.8287804 -0.395238E-03  0.294E-03    0.09       5.0  T
   4    -87.8287814 -0.101055E-05  0.132E-03    0.09      11.2  T
   5    -87.8287815 -0.162697E-06  0.601E-04    0.09      24.5  T
   6    -87.8287816 -0.510701E-07  0.960E-05    0.09     153.5  T
   7    -87.8287816 -0.133532E-08  0.121E-05    0.09    1217.0  T
     SCC iter.                  ...        0 min,  0.050 sec
     gradient                   ...        0 min,  0.076 sec
 * total energy  :   -87.0345883 Eh     change       -0.4827827E-04 Eh
   gradient norm :     0.0044211 Eh/α   predicted    -0.2618378E-04 ( -45.76%)
   displ. norm   :     0.2343266 α      lambda       -0.1074720E-03
   maximum displ.:     0.1482073 α      in ANC's #3, #2, #1, ...

........................................................................
.............................. CYCLE   25 ..............................
........................................................................
   1    -87.8288812 -0.878289E+02  0.461E-03    0.09       0.0  T
   2    -87.8286588  0.222328E-03  0.382E-02    0.10       1.0  T
   3    -87.8288822 -0.223331E-03  0.281E-03    0.09       5.2  T
   4    -87.8288813  0.829154E-06  0.369E-03    0.09       4.0  T
   5    -87.8288832 -0.188386E-05  0.516E-04    0.09      28.6  T
   6    -87.8288833 -0.416449E-07  0.593E-05    0.09     248.8  T
   7    -87.8288833  0.162132E-09  0.551E-05    0.09     267.4  T
     SCC iter.                  ...        0 min,  0.049 sec
     gradient                   ...        0 min,  0.076 sec
 * total energy  :   -87.0346816 Eh     change       -0.9327227E-04 Eh
   gradient norm :     0.0030776 Eh/α   predicted    -0.5668975E-04 ( -39.22%)
   displ. norm   :     0.3415787 α      lambda       -0.1264631E-03
   maximum displ.:     0.2157522 α      in ANC's #3, #2, #1, ...

........................................................................
.............................. CYCLE   26 ..............................
........................................................................
   1    -87.8289053 -0.878289E+02  0.794E-03    0.09       0.0  T
   2    -87.8282303  0.675042E-03  0.668E-02    0.11       1.0  T
   3    -87.8289109 -0.680555E-03  0.344E-03    0.09       4.3  T
   4    -87.8289040  0.682725E-05  0.770E-03    0.09       1.9  T
   5    -87.8289121 -0.810265E-05  0.135E-03    0.09      10.9  T
   6    -87.8289124 -0.269514E-06  0.408E-04    0.09      36.1  T
   7    -87.8289124 -0.244589E-07  0.643E-05    0.09     229.3  T
   8    -87.8289124 -0.385796E-09  0.229E-05    0.09     644.0  T
     SCC iter.                  ...        0 min,  0.056 sec
     gradient                   ...        0 min,  0.075 sec
 * total energy  :   -87.0347823 Eh     change       -0.1006856E-03 Eh
   gradient norm :     0.0019447 Eh/α   predicted    -0.7061337E-04 ( -29.87%)
   displ. norm   :     0.4846700 α      lambda       -0.8325255E-04
   maximum displ.:     0.3066105 α      in ANC's #3, #2, #1, ...

........................................................................
.............................. CYCLE   27 ..............................
........................................................................
   1    -87.8289193 -0.878289E+02  0.800E-03    0.09       0.0  T
   2    -87.8286857  0.233646E-03  0.403E-02    0.10       1.0  T
   3    -87.8288910 -0.205393E-03  0.137E-02    0.09       1.1  T
   4    -87.8289078 -0.167808E-04  0.108E-02    0.09       1.4  T
   5    -87.8289240 -0.162040E-04  0.822E-04    0.09      17.9  T
   6    -87.8289241 -0.609532E-07  0.238E-04    0.09      62.0  T
   7    -87.8289241 -0.324390E-08  0.162E-04    0.09      90.8  T
   8    -87.8289241 -0.361162E-08  0.183E-05    0.09     804.2  T
     SCC iter.                  ...        0 min,  0.056 sec
     gradient                   ...        0 min,  0.075 sec
 * total energy  :   -87.0348658 Eh     change       -0.8354458E-04 Eh
   gradient norm :     0.0023218 Eh/α   predicted    -0.4597773E-04 ( -44.97%)
   displ. norm   :     0.2160513 α      lambda       -0.4508228E-04
   maximum displ.:     0.1360335 α      in ANC's #3, #2, #1, ...

........................................................................
.............................. CYCLE   28 ..............................
........................................................................
   1    -87.8296133 -0.878296E+02  0.365E-03    0.09       0.0  T
   2    -87.8294872  0.126126E-03  0.290E-02    0.10       1.0  T
   3    -87.8296142 -0.127058E-03  0.180E-03    0.09       8.2  T
   4    -87.8296116  0.259716E-05  0.465E-03    0.09       3.2  T
   5    -87.8296146 -0.297128E-05  0.760E-04    0.09      19.4  T
   6    -87.8296147 -0.727365E-07  0.131E-04    0.09     112.4  T
   7    -87.8296147 -0.185433E-08  0.531E-05    0.09     277.5  T
     SCC iter.                  ...        0 min,  0.050 sec
     gradient                   ...        0 min,  0.075 sec
 * total energy  :   -87.0349071 Eh     change       -0.4131973E-04 Eh
   gradient norm :     0.0018490 Eh/α   predicted    -0.2359769E-04 ( -42.89%)
   displ. norm   :     0.6803850 α      lambda       -0.9083554E-04
   maximum displ.:     0.4255029 α      in ANC's #3, #2, #1, ...

........................................................................
.............................. CYCLE   29 ..............................
........................................................................
   1    -87.8294783 -0.878295E+02  0.260E-02    0.10       0.0  T
   2    -87.7979607  0.315176E-01  0.443E-01    0.02       1.0  T
   3    -87.8295868 -0.316261E-01  0.380E-03    0.09       3.9  T
   4    -87.8295818  0.498201E-05  0.617E-03    0.09       2.4  T
   5    -87.8295862 -0.435675E-05  0.284E-03    0.09       5.2  T
   6    -87.8295872 -0.100738E-05  0.828E-04    0.09      17.8  T
   7    -87.8295873 -0.877273E-07  0.303E-04    0.09      48.7  T
   8    -87.8295873 -0.133623E-07  0.666E-05    0.09     221.4  T
   9    -87.8295873 -0.575739E-09  0.195E-05    0.09     755.6  T
     SCC iter.                  ...        0 min,  0.065 sec
     gradient                   ...        0 min,  0.076 sec
 * total energy  :   -87.0350079 Eh     change       -0.1007701E-03 Eh
   gradient norm :     0.0020762 Eh/α   predicted    -0.5476601E-04 ( -45.65%)
   displ. norm   :     0.2885347 α      lambda       -0.4893007E-04
   maximum displ.:     0.1739856 α      in ANC's #3, #2, #1, ...

........................................................................
.............................. CYCLE   30 ..............................
........................................................................
   1    -87.8298416 -0.878298E+02  0.256E-02    0.10       0.0  T
   2    -87.7985533  0.312883E-01  0.442E-01    0.02       1.0  T
   3    -87.8299458 -0.313925E-01  0.394E-03    0.09       3.7  T
   4    -87.8299482 -0.238073E-05  0.941E-04    0.09      15.7  T
   5    -87.8299480  0.167078E-06  0.130E-03    0.09      11.3  T
   6    -87.8299482 -0.135637E-06  0.798E-04    0.09      18.5  T
   7    -87.8299483 -0.974395E-07  0.116E-04    0.09     126.8  T
   8    -87.8299483 -0.191687E-08  0.271E-05    0.09     544.6  T
     SCC iter.                  ...        0 min,  0.057 sec
     gradient                   ...        0 min,  0.076 sec
 * total energy  :   -87.0350444 Eh     change       -0.3652899E-04 Eh
   gradient norm :     0.0020832 Eh/α   predicted    -0.2650553E-04 ( -27.44%)
   displ. norm   :     0.2218328 α      lambda       -0.4333524E-04
   maximum displ.:     0.1215399 α      in ANC's #3, #1, #2, ...

........................................................................
.............................. CYCLE   31 ..............................
........................................................................
   1    -87.8304775 -0.878305E+02  0.337E-02    0.10       0.0  T
   2    -87.7696767  0.608008E-01  0.615E-01    0.02       1.0  T
   3    -87.8306482 -0.609714E-01  0.832E-03    0.09       1.8  T
   4    -87.8306594 -0.112245E-04  0.227E-03    0.09       6.5  T
   5    -87.8306589  0.492798E-06  0.283E-03    0.09       5.2  T
   6    -87.8306593 -0.436388E-06  0.213E-03    0.09       6.9  T
   7    -87.8306600 -0.642703E-06  0.637E-04    0.09      23.1  T
   8    -87.8306600 -0.584751E-07  0.173E-04    0.09      85.5  T
   9    -87.8306600 -0.385810E-08  0.604E-05    0.09     244.0  T
     SCC iter.                  ...        0 min,  0.064 sec
     gradient                   ...        0 min,  0.075 sec
 * total energy  :   -87.0350772 Eh     change       -0.3276760E-04 Eh
   gradient norm :     0.0020289 Eh/α   predicted    -0.2274082E-04 ( -30.60%)
   displ. norm   :     0.2422106 α      lambda       -0.3867076E-04
   maximum displ.:     0.1314400 α      in ANC's #1, #3, #2, ...

........................................................................
.............................. CYCLE   32 ..............................
........................................................................
   1    -87.8298877 -0.878299E+02  0.511E-02    0.10       0.0  T
   2    -87.6757947  0.154093E+00  0.978E-01    0.05       1.0  T
   3    -87.8302827 -0.154488E+00  0.128E-02    0.09       1.2  T
   4    -87.8303076 -0.249415E-04  0.525E-03    0.09       2.8  T
   5    -87.8303068  0.858461E-06  0.565E-03    0.09       2.6  T
   6    -87.8303083 -0.158202E-05  0.439E-03    0.09       3.4  T
   7    -87.8303111 -0.276460E-05  0.125E-03    0.09      11.8  T
   8    -87.8303113 -0.223225E-06  0.367E-04    0.09      40.2  T
   9    -87.8303113 -0.175659E-07  0.129E-04    0.09     113.9  T
  10    -87.8303114 -0.218854E-08  0.498E-05    0.09     296.3  T
     SCC iter.                  ...        0 min,  0.069 sec
     gradient                   ...        0 min,  0.075 sec
 * total energy  :   -87.0351079 Eh     change       -0.3068768E-04 Eh
   gradient norm :     0.0015365 Eh/α   predicted    -0.2047232E-04 ( -33.29%)
   displ. norm   :     0.3746474 α      lambda       -0.3565811E-04
   maximum displ.:     0.2042776 α      in ANC's #1, #2, #3, ...

........................................................................
.............................. CYCLE   33 ..............................
........................................................................
   1    -87.8286654 -0.878287E+02  0.869E-02    0.12       0.0  T
   2    -87.5273532  0.301312E+00  0.137E+00    0.14       1.0  T
   3    -87.8298017 -0.302448E+00  0.206E-02    0.10       1.0  T
   4    -87.8298585 -0.568390E-04  0.110E-02    0.09       1.3  T
   5    -87.8298647 -0.622130E-05  0.872E-03    0.09       1.7  T
   6    -87.8298722 -0.747866E-05  0.461E-03    0.09       3.2  T
   7    -87.8298751 -0.288625E-05  0.150E-03    0.09       9.8  T
   8    -87.8298754 -0.323456E-06  0.374E-04    0.09      39.4  T
   9    -87.8298754 -0.179765E-07  0.123E-04    0.09     119.5  T
  10    -87.8298754 -0.198055E-08  0.443E-05    0.09     332.7  T
     SCC iter.                  ...        0 min,  0.069 sec
     gradient                   ...        0 min,  0.073 sec
 * total energy  :   -87.0351306 Eh     change       -0.2266258E-04 Eh
   gradient norm :     0.0023439 Eh/α   predicted    -0.1895288E-04 ( -16.37%)
   displ. norm   :     0.0238140 α      lambda       -0.1114661E-04
   maximum displ.:     0.0117967 α      in ANC's #3, #9, #2, ...

........................................................................
.............................. CYCLE   34 ..............................
........................................................................
   1    -87.8300373 -0.878300E+02  0.275E-03    0.09       0.0  T
   2    -87.8299284  0.108986E-03  0.263E-02    0.09       1.0  T
   3    -87.8300382 -0.109854E-03  0.856E-04    0.09      17.2  T
   4    -87.8300382  0.117359E-07  0.605E-04    0.09      24.4  T
   5    -87.8300382 -0.289672E-07  0.792E-05    0.09     186.1  T
   6    -87.8300382  0.297447E-09  0.513E-05    0.09     287.6  T
     SCC iter.                  ...        0 min,  0.042 sec
     gradient                   ...        0 min,  0.074 sec
 * total energy  :   -87.0351394 Eh     change       -0.8841733E-05 Eh
   gradient norm :     0.0014031 Eh/α   predicted    -0.5583250E-05 ( -36.85%)
   displ. norm   :     0.1040380 α      lambda       -0.1976375E-04
   maximum displ.:     0.0541707 α      in ANC's #3, #2, #5, ...

........................................................................
.............................. CYCLE   35 ..............................
........................................................................
   1    -87.8309270 -0.878309E+02  0.843E-03    0.09       0.0  T
   2    -87.8294560  0.147094E-02  0.963E-02    0.07       1.0  T
   3    -87.8309361 -0.148004E-02  0.267E-03    0.09       5.5  T
   4    -87.8309345  0.155073E-05  0.371E-03    0.09       4.0  T
   5    -87.8309363 -0.174489E-05  0.106E-03    0.09      14.0  T
   6    -87.8309364 -0.149526E-06  0.635E-05    0.09     232.1  T
   7    -87.8309364  0.353353E-09  0.572E-05    0.09     257.9  T
     SCC iter.                  ...        0 min,  0.049 sec
     gradient                   ...        0 min,  0.074 sec
 * total energy  :   -87.0351548 Eh     change       -0.1542126E-04 Eh
   gradient norm :     0.0021130 Eh/α   predicted    -0.9931627E-05 ( -35.60%)
   displ. norm   :     0.0518309 α      lambda       -0.9597833E-05
   maximum displ.:     0.0267884 α      in ANC's #1, #5, #16, ...

........................................................................
.............................. CYCLE   36 ..............................
........................................................................
   1    -87.8304665 -0.878305E+02  0.903E-03    0.10       0.0  T
   2    -87.8281153  0.235118E-02  0.122E-01    0.07       1.0  T
   3    -87.8304796 -0.236431E-02  0.152E-03    0.09       9.7  T
   4    -87.8304798 -0.164598E-06  0.987E-04    0.09      14.9  T
   5    -87.8304799 -0.595729E-07  0.663E-04    0.09      22.3  T
   6    -87.8304799 -0.630102E-07  0.816E-05    0.09     180.7  T
   7    -87.8304799 -0.918590E-09  0.114E-05    0.09    1289.1  T
     SCC iter.                  ...        0 min,  0.049 sec
     gradient                   ...        0 min,  0.074 sec
 * total energy  :   -87.0351633 Eh     change       -0.8499040E-05 Eh
   gradient norm :     0.0019338 Eh/α   predicted    -0.4814030E-05 ( -43.36%)
   displ. norm   :     0.3092970 α      lambda       -0.3511442E-04
   maximum displ.:     0.1177474 α      in ANC's #16, #1, #5, ...

........................................................................
.............................. CYCLE   37 ..............................
........................................................................
   1    -87.8285322 -0.878285E+02  0.195E-02    0.10       0.0  T
   2    -87.8149100  0.136222E-01  0.293E-01    0.04       1.0  T
   3    -87.8285905 -0.136805E-01  0.294E-03    0.09       5.0  T
   4    -87.8285904  0.907971E-07  0.178E-03    0.09       8.3  T
   5    -87.8285904  0.471306E-07  0.128E-03    0.09      11.5  T
   6    -87.8285906 -0.224403E-06  0.289E-04    0.09      51.0  T
   7    -87.8285906 -0.110020E-07  0.294E-05    0.09     501.3  T
   8    -87.8285906 -0.108287E-10  0.697E-06    0.09    2115.5  T
     SCC iter.                  ...        0 min,  0.056 sec
     gradient                   ...        0 min,  0.075 sec
 * total energy  :   -87.0351661 Eh     change       -0.2756192E-05 Eh
   gradient norm :     0.0041381 Eh/α   predicted    -0.1830452E-04 ( 564.12%)
   displ. norm   :     0.0960357 α      lambda       -0.3441719E-04
   maximum displ.:     0.0362239 α      in ANC's #16, #1, #5, ...

........................................................................
.............................. CYCLE   38 ..............................
........................................................................
   1    -87.8294945 -0.878295E+02  0.184E-02    0.09       0.0  T
   2    -87.8259893  0.350519E-02  0.152E-01    0.14       1.0  T
   3    -87.8295340 -0.354465E-02  0.972E-03    0.10       1.5  T
   4    -87.8295429 -0.887792E-05  0.586E-03    0.09       2.5  T
   5    -87.8295470 -0.411795E-05  0.294E-03    0.09       5.0  T
   6    -87.8295483 -0.134425E-05  0.374E-04    0.09      39.4  T
   7    -87.8295484 -0.211854E-07  0.245E-05    0.09     603.0  T
   8    -87.8295484  0.584336E-09  0.610E-05    0.09     241.6  T
     SCC iter.                  ...        0 min,  0.055 sec
     gradient                   ...        0 min,  0.074 sec
 * total energy  :   -87.0351860 Eh     change       -0.1989269E-04 Eh
   gradient norm :     0.0018050 Eh/α   predicted    -0.1736955E-04 ( -12.68%)
   displ. norm   :     0.0252765 α      lambda       -0.7287249E-05
   maximum displ.:     0.0113997 α      in ANC's #11, #7, #20, ...

........................................................................
.............................. CYCLE   39 ..............................
........................................................................
   1    -87.8300147 -0.878300E+02  0.167E-02    0.09       0.0  T
   2    -87.8268794  0.313531E-02  0.144E-01    0.14       1.0  T
   3    -87.8300489 -0.316958E-02  0.837E-03    0.09       1.8  T
   4    -87.8300588 -0.987452E-05  0.263E-03    0.09       5.6  T
   5    -87.8300595 -0.698878E-06  0.158E-03    0.09       9.4  T
   6    -87.8300599 -0.382033E-06  0.187E-04    0.09      78.9  T
   7    -87.8300599 -0.507841E-08  0.412E-05    0.09     357.9  T
     SCC iter.                  ...        0 min,  0.048 sec
     gradient                   ...        0 min,  0.074 sec
 * total energy  :   -87.0351934 Eh     change       -0.7428467E-05 Eh
   gradient norm :     0.0008849 Eh/α   predicted    -0.3648406E-05 ( -50.89%)
   displ. norm   :     0.0681904 α      lambda       -0.7132255E-05
   maximum displ.:     0.0355348 α      in ANC's #1, #15, #16, ...

........................................................................
.............................. CYCLE   40 ..............................
........................................................................
   1    -87.8302786 -0.878303E+02  0.256E-02    0.09       0.0  T
   2    -87.8248622  0.541638E-02  0.191E-01    0.16       1.0  T
   3    -87.8303338 -0.547156E-02  0.182E-02    0.10       1.0  T
   4    -87.8303785 -0.447338E-04  0.654E-03    0.09       2.3  T
   5    -87.8303848 -0.628234E-05  0.219E-03    0.09       6.7  T
   6    -87.8303854 -0.606399E-06  0.822E-04    0.09      17.9  T
   7    -87.8303855 -0.103054E-06  0.798E-05    0.09     184.8  T
   8    -87.8303855 -0.805173E-09  0.318E-05    0.09     463.4  T
     SCC iter.                  ...        0 min,  0.057 sec
     gradient                   ...        0 min,  0.075 sec
 * total energy  :   -87.0352014 Eh     change       -0.8003937E-05 Eh
   gradient norm :     0.0008434 Eh/α   predicted    -0.3575601E-05 ( -55.33%)
   displ. norm   :     0.1565665 α      lambda       -0.1081520E-04
   maximum displ.:     0.0632952 α      in ANC's #15, #3, #1, ...

........................................................................
.............................. CYCLE   41 ..............................
........................................................................
   1    -87.8300487 -0.878300E+02  0.512E-02    0.08       0.0  T
   2    -87.8204606  0.958805E-02  0.263E-01    0.23       1.0  T
   3    -87.8298921 -0.943145E-02  0.610E-02    0.11       1.0  T
   4    -87.8304660 -0.573899E-03  0.679E-03    0.09       2.2  T
   5    -87.8304737 -0.776730E-05  0.708E-04    0.09      20.8  T
   6    -87.8304732  0.536769E-06  0.192E-03    0.09       7.7  T
   7    -87.8304737 -0.522983E-06  0.381E-04    0.09      38.7  T
   8    -87.8304737 -0.185364E-07  0.162E-04    0.09      91.0  T
   9    -87.8304737 -0.401815E-08  0.305E-05    0.09     483.9  T
     SCC iter.                  ...        0 min,  0.062 sec
     gradient                   ...        0 min,  0.061 sec
 * total energy  :   -87.0352088 Eh     change       -0.7426129E-05 Eh
   gradient norm :     0.0013224 Eh/α   predicted    -0.5469212E-05 ( -26.35%)
   displ. norm   :     0.0393744 α      lambda       -0.3204622E-05
   maximum displ.:     0.0273549 α      in ANC's #1, #5, #15, ...

........................................................................
.............................. CYCLE   42 ..............................
........................................................................
   1    -87.8303903 -0.878304E+02  0.264E-03    0.09       0.0  T
   2    -87.8302629  0.127342E-03  0.286E-02    0.10       1.0  T
   3    -87.8303911 -0.128190E-03  0.135E-03    0.09      11.0  T
   4    -87.8303913 -0.211587E-06  0.543E-04    0.09      27.2  T
   5    -87.8303913 -0.196018E-07  0.273E-04    0.09      54.1  T
   6    -87.8303913 -0.104347E-07  0.277E-05    0.09     532.4  T
   7    -87.8303913 -0.950138E-10  0.482E-06    0.09    3057.5  T
     SCC iter.                  ...        0 min,  0.042 sec
     gradient                   ...        0 min,  0.064 sec
 * total energy  :   -87.0352126 Eh     change       -0.3742164E-05 Eh
   gradient norm :     0.0007664 Eh/α   predicted    -0.1605927E-05 ( -57.09%)
   displ. norm   :     0.0649434 α      lambda       -0.5036640E-05
   maximum displ.:     0.0423422 α      in ANC's #1, #2, #8, ...

   *** GEOMETRY OPTIMIZATION CONVERGED AFTER 42 ITERATIONS ***

------------------------------------------------------------------------
 total energy gain   :        -0.0252779 Eh      -15.8621 kcal/mol
 total RMSD          :         0.8084804 a0        0.4278 Å
 total power (kW/mol):        -1.5801707 (step)  -11.2300 (real)
------------------------------------------------------------------------

 ANCopt (total)                0 d,  0 h,  0 min,  5.910 sec
 optimizer setup                ...        0 min,  0.001 sec (  0.016%)
 model hessian                  ...        0 min,  0.040 sec (  0.677%)
 ANC generation                 ...        0 min,  0.005 sec (  0.091%)
 coordinate transformation      ...        0 min,  0.001 sec (  0.017%)
 single point calculation       ...        0 min,  5.847 sec ( 98.931%)
 optimization log               ...        0 min,  0.009 sec (  0.151%)
 hessian update                 ...        0 min,  0.001 sec (  0.015%)
 rational function              ...        0 min,  0.004 sec (  0.071%)

================
 final structure:
================
46
 xtb: 6.5.1 (579679a)
C           -5.20288426965368       -4.22946730471886        0.12150695527697
O           -4.72889593609650       -2.91515475640319        0.42187075991666
C           -3.56123519461044       -2.56665079087627       -0.18307721603677
O           -2.97647200833829       -3.33692789905218       -0.92403875525097
C           -3.10560714887330       -1.21304322674096        0.14655082708701
N           -1.92331118182264       -0.87348218664341       -0.45970956982231
C           -1.36367941556077        0.27725355380824       -0.27359241616700
C           -0.09219964857898        0.54843992388595       -1.07925416025806
C           -0.42098362604375        1.60774840731751       -2.14538501619097
C            0.34061127566627       -0.75404199452220       -1.77638485434402
N            0.95175377321068        1.00872569581994       -0.15898169077301
C            2.28830005855841        1.17964871060130       -0.67721995157812
O            2.49356281433342        1.49367530296035       -1.88441196268303
C            3.27608128944574        0.96147000052527        0.25256944450126
O            3.05271877566825        0.68103482102720        1.61526689824812
C            4.27421522853095        0.72514588809093        2.17332114004464
C            4.40180667616829        0.44079738007780        3.62733831560488
N            5.24405644441628        1.01327184068997        1.39186092353749
N            4.67908841300499        1.26167479882898        0.10801420054719
C            5.37898956915094        0.47570878877501       -0.91511021003971
N           -1.92828271322047        1.21909376536799        0.55262295494613
C           -1.35736788086971        2.53660614476025        0.83702817482899
C           -3.16055685395803        1.00535864203754        1.18404196589260
O           -3.65677137484872        1.90000714075563        1.87386845358401
C           -3.74866371053677       -0.29277254493181        0.95923409420549
O           -4.93441375750135       -0.49339787916331        1.58417715136177
H           -6.12198686632691       -4.37239899645831        0.68480540034198
H           -5.40057175260655       -4.32399676357582       -0.94960690975016
H           -4.46085959612347       -4.97575996160265        0.41769075239362
H           -0.59660395102201        2.58099637036492       -1.69239355654649
H           -1.31719515788862        1.30663285941673       -2.68783324919292
H            0.40242590084784        1.69861127011060       -2.85156261739644
H            1.23932424893441       -0.57339881450021       -2.36389835976317
H           -0.44985264003648       -1.10515892541997       -2.43819463718004
H            0.54548515601444       -1.52647505382515       -1.03624070813646
H            0.97468095051310        0.42414245223258        0.67045877964773
H            5.44659397659050        0.49858442181847        3.92248394985429
H            3.82145892308794        1.16175304416275        4.20279207239291
H            4.01662597248490       -0.55466274255534        3.84655707874070
H            5.29488339165760       -0.59721556994225       -0.71827864741051
H            6.42810176041684        0.76739639616371       -0.91617539800127
H            4.92675267850360        0.71197628950997       -1.87784232199439
H           -1.93006547027745        3.30207177507434        0.31048073026293
H           -1.43380649118108        2.71928833130250        1.91005246785742
H           -0.31360808464167        2.57498374634390        0.53908740521939
H           -5.29164254660912       -1.37809135089512        1.40524231224957
 
 Bond Distances (Angstroems)
 ---------------------------
C1-O2=1.4291         C1-H27=1.0874        C1-H28=1.0933        C1-H29=1.0933        O2-C1=1.4291         O2-C3=1.3605         
C3-O2=1.3605         C3-O4=1.2183         C3-C5=1.4658         O4-C3=1.2183         C5-C3=1.4658         C5-N6=1.3714         
C5-C25=1.3860        N6-C5=1.3714         N6-C7=1.2931         C7-N6=1.2931         C7-C8=1.5295         C7-N21=1.3742        
C8-C7=1.5295         C8-C9=1.5385         C8-C10=1.5394        C8-N11=1.4658        C9-C8=1.5385         C9-H30=1.0878        
C9-H31=1.0900        C9-H32=1.0886        C10-C8=1.5394        C10-H33=1.0888       C10-H34=1.0891       C10-H35=1.0892       
N11-C8=1.4658        N11-C12=1.4437       N11-H36=1.0150       C12-N11=1.4437       C12-O13=1.2641       C12-C14=1.3740       
O13-C12=1.2641       C14-C12=1.3740       C14-O15=1.4091       C14-N19=1.4420       O15-C14=1.4091       O15-C16=1.3437       
C16-O15=1.3437       C16-C17=1.4870       C16-N18=1.2784       C17-C16=1.4870       C17-H37=1.0872       C17-H38=1.0898       
C17-H39=1.0897       N18-C16=1.2784       N18-N19=1.4245       N19-C14=1.4420       N19-N18=1.4245       N19-C20=1.4678       
C20-N19=1.4678       C20-H40=1.0941       C20-H41=1.0889       C20-H42=1.0896       N21-C7=1.3742        N21-C22=1.4638       
N21-C23=1.4010       C22-N21=1.4638       C22-H43=1.0914       C22-H44=1.0911       C22-H45=1.0861       C23-N21=1.4010       
C23-O24=1.2339       C23-C25=1.4428       O24-C23=1.2339       C25-C5=1.3860        C25-C23=1.4428       C25-O26=1.3553       
O26-C25=1.3553       O26-H46=0.9707       H27-C1=1.0874        H28-C1=1.0933        H29-C1=1.0933        H30-C9=1.0878        
H31-C9=1.0900        H32-C9=1.0886        H33-C10=1.0888       H34-C10=1.0891       H35-C10=1.0892       H36-N11=1.0150       
H37-C17=1.0872       H38-C17=1.0898       H39-C17=1.0897       H40-C20=1.0941       H41-C20=1.0889       H42-C20=1.0896       
H43-C22=1.0914       H44-C22=1.0911       H45-C22=1.0861       H46-O26=0.9707       
 C  H  Rav=1.0897 sigma=0.0021  Rmin=1.0861  Rmax=1.0941    18
 C  C  Rav=1.4704 sigma=0.0616  Rmin=1.3740  Rmax=1.5394     8
 N  H  Rav=1.0150 sigma=0.0000  Rmin=1.0150  Rmax=1.0150     1
 N  C  Rav=1.4001 sigma=0.0666  Rmin=1.2784  Rmax=1.4678    10
 N  N  Rav=1.4245 sigma=0.0000  Rmin=1.4245  Rmax=1.4245     1
 O  H  Rav=0.9707 sigma=0.0000  Rmin=0.9707  Rmax=0.9707     1
 O  C  Rav=1.3267 sigma=0.0740  Rmin=1.2183  Rmax=1.4291     8
 
 selected bond angles (degree)
 --------------------
H27-C1-O2=107.00               H28-C1-O2=110.21               H28-C1-H27=110.08              H29-C1-O2=110.23               
H29-C1-H27=110.10              H29-C1-H28=109.22              C3-O2-C1=115.26                O4-C3-O2=121.36                
C5-C3-O2=113.79                C5-C3-O4=124.85                N6-C5-C3=113.40                C25-C5-C3=126.93               
C25-C5-N6=119.66               C7-N6-C5=121.99                C8-C7-N6=116.22                N21-C7-N6=121.24               
N21-C7-C8=122.46               C9-C8-C7=108.03                C10-C8-C7=108.80               C10-C8-C9=109.20               
N11-C8-C7=108.48               N11-C8-C9=111.78               N11-C8-C10=110.47              H30-C9-C8=111.22               
H31-C9-C8=109.29               H31-C9-H30=108.76              H32-C9-C8=110.20               H32-C9-H30=108.52              
H32-C9-H31=108.79              H33-C10-C8=109.64              H34-C10-C8=110.11              H34-C10-H33=108.95             
H35-C10-C8=110.19              H35-C10-H33=109.21             H35-C10-H34=108.71             
 
 selected dihedral angles (degree)
 ---------------------------------
C3-O2-C1-H27=178.89           C3-O2-C1-H28=298.56           C3-O2-C1-H29= 59.18           O4-C3-O2-C1=359.92            
C5-C3-O2-C1=179.96            N6-C5-C3-O2=179.56            N6-C5-C3-O4=359.60            C25-C5-C3-O2=358.50           
C25-C5-C3-O4=178.54           C7-N6-C5-C3=180.70            C7-N6-C5-C25=  1.67           C8-C7-N6-C5=183.54            
N21-C7-N6-C5=  0.35           C9-C8-C7-N6=109.43            C9-C8-C7-N21=292.66           C10-C8-C7-N6=351.00           
C10-C8-C7-N21=174.23          N11-C8-C7-N6=230.78           N11-C8-C7-N21= 54.01          H30-C9-C8-C7= 69.74           
H30-C9-C8-C10=187.91          H30-C9-C8-N11=310.46          H31-C9-C8-C7=309.64           H31-C9-C8-C10= 67.82          
H31-C9-C8-N11=190.36          H32-C9-C8-C7=190.13           H32-C9-C8-C10=308.31          H32-C9-C8-N11= 70.85          
H33-C10-C8-C7=179.35          H33-C10-C8-C9= 61.66          H33-C10-C8-N11=298.33         H34-C10-C8-C7= 59.49          
H34-C10-C8-C9=301.80          H34-C10-C8-N11=178.48         H35-C10-C8-C7=299.58          H35-C10-C8-C9=181.89          
H35-C10-C8-N11= 58.56         
           -------------------------------------------------
          |                Final Singlepoint                |
           -------------------------------------------------

          ...................................................
          :                      SETUP                      :
          :.................................................:
          :  # basis functions                 144          :
          :  # atomic orbitals                 144          :
          :  # shells                           92          :
          :  # electrons                       142          :
          :  # halogen bonds                     0          :
          :  max. iterations                   250          :
          :  Hamiltonian                  GFN1-xTB          :
          :  restarted?                      false          :
          :  GBSA solvation                   true          :
          :  PC potential                    false          :
          :  electronic temp.          300.0000000     K    :
          :  accuracy                    1.0000000          :
          :  -> integral cutoff          0.2500000E+02      :
          :  -> integral neglect         0.1000000E-07      :
          :  -> SCF convergence          0.1000000E-05 Eh   :
          :  -> wf. convergence          0.2000000E-04 e    :
          :  Broyden damping             0.4000000          :
          ...................................................

 iter      E             dE          RMSdq      gap      omega  full diag
   1    -87.8303913 -0.878304E+02  0.422E-06    0.09       0.0  T
   2    -87.8303913  0.347057E-09  0.470E-05    0.09     313.4  T
   3    -87.8303913 -0.349772E-09  0.554E-07    0.09   26637.8  T

   *** convergence criteria satisfied after 3 iterations ***

         #    Occupation            Energy/Eh            Energy/eV
      -------------------------------------------------------------
         1        2.0000           -0.8194379             -22.2980
       ...           ...                  ...                  ...
        65        2.0000           -0.4314868             -11.7414
        66        2.0000           -0.4185573             -11.3895
        67        2.0000           -0.4066856             -11.0665
        68        2.0000           -0.4012195             -10.9177
        69        2.0000           -0.4006005             -10.9009
        70        2.0000           -0.3826424             -10.4122
        71        1.7126           -0.3060114              -8.3270 (HOMO)
        72        0.2874           -0.3026202              -8.2347 (LUMO)
        73                         -0.2537219              -6.9041
        74                         -0.2253012              -6.1308
        75                         -0.2154396              -5.8624
        76                         -0.1499673              -4.0808
       ...                                ...                  ...
       144                          0.7172852              19.5183
      -------------------------------------------------------------
                  HL-Gap            0.0033912 Eh            0.0923 eV
             Fermi-level           -0.3043158 Eh           -8.2809 eV

 SCC (total)                   0 d,  0 h,  0 min,  0.113 sec
 SCC setup                      ...        0 min,  0.002 sec (  1.598%)
 Dispersion                     ...        0 min,  0.000 sec (  0.242%)
 classical contributions        ...        0 min,  0.000 sec (  0.086%)
 integral evaluation            ...        0 min,  0.027 sec ( 24.008%)
 iterations                     ...        0 min,  0.018 sec ( 16.363%)
 molecular gradient             ...        0 min,  0.064 sec ( 56.550%)
 printout                       ...        0 min,  0.001 sec (  1.140%)

         :::::::::::::::::::::::::::::::::::::::::::::::::::::
         ::                     SUMMARY                     ::
         :::::::::::::::::::::::::::::::::::::::::::::::::::::
         :: total energy             -87.035212564126 Eh    ::
         :: total w/o Gsasa/hb       -87.012217361663 Eh    ::
         :: gradient norm              0.000766582564 Eh/a0 ::
         :: HOMO-LUMO gap              0.092279888173 eV    ::
         ::.................................................::
         :: SCC energy               -87.830391347465 Eh    ::
         :: -> electrostatic           0.448584165505 Eh    ::
         :: -> Gsolv                  -0.109084320216 Eh    ::
         ::    -> Gelec               -0.086089117753 Eh    ::
         ::    -> Gsasa               -0.025588432823 Eh    ::
         ::    -> Ghb                 -0.005031048644 Eh    ::
         ::    -> Gshift               0.007624279005 Eh    ::
         :: repulsion energy           0.823953631019 Eh    ::
         :: dispersion energy         -0.028774847680 Eh    ::
         :: halogen bond corr.         0.000000000000 Eh    ::
         :: add. restraining           0.000000000000 Eh    ::
         :: total charge              -1.000000000000 e     ::
         :::::::::::::::::::::::::::::::::::::::::::::::::::::

           -------------------------------------------------
          |                Property Printout                |
           -------------------------------------------------

    * Orbital Energies and Occupations

         #    Occupation            Energy/Eh            Energy/eV
      -------------------------------------------------------------
         1        2.0000           -0.8194379             -22.2980
       ...           ...                  ...                  ...
        59        2.0000           -0.4754111             -12.9366
        60        2.0000           -0.4668698             -12.7042
        61        2.0000           -0.4592165             -12.4959
        62        2.0000           -0.4460734             -12.1383
        63        2.0000           -0.4435440             -12.0694
        64        2.0000           -0.4346632             -11.8278
        65        2.0000           -0.4314868             -11.7414
        66        2.0000           -0.4185573             -11.3895
        67        2.0000           -0.4066856             -11.0665
        68        2.0000           -0.4012195             -10.9177
        69        2.0000           -0.4006005             -10.9009
        70        2.0000           -0.3826424             -10.4122
        71        1.7126           -0.3060114              -8.3270 (HOMO)
        72        0.2874           -0.3026202              -8.2347 (LUMO)
        73                         -0.2537219              -6.9041
        74                         -0.2253012              -6.1308
        75                         -0.2154396              -5.8624
        76                         -0.1499673              -4.0808
        77                         -0.1310391              -3.5658
        78                         -0.1287963              -3.5047
        79                         -0.1275652              -3.4712
        80                         -0.1216516              -3.3103
        81                         -0.1023824              -2.7860
        82                         -0.1015441              -2.7632
       ...                                ...                  ...
       144                          0.7172852              19.5183
      -------------------------------------------------------------
                  HL-Gap            0.0033912 Eh            0.0923 eV
             Fermi-level           -0.3043158 Eh           -8.2809 eV

  Mulliken/CM5 charges         n(s)   n(p)   n(d)
     1C     0.16886  0.04811   0.977  2.854  0.000
     2O    -0.44612 -0.54387   1.696  4.750  0.000
     3C     0.54823  0.61212   0.971  2.480  0.000
     4O    -0.58639 -0.63068   1.730  4.857  0.000
     5C     0.04510  0.12106   1.041  2.914  0.000
     6N    -0.38343 -0.57165   1.524  3.859  0.000
     7C     0.26209  0.41353   1.027  2.711  0.000
     8C     0.16057  0.19972   1.063  2.777  0.000
     9C    -0.09336 -0.23351   1.015  3.079  0.000
    10C    -0.09387 -0.23181   1.015  3.079  0.000
    11N    -0.42006 -0.76279   1.471  3.949  0.000
    12C     0.36706  0.45531   0.972  2.661  0.000
    13O    -0.70254 -0.75021   1.747  4.956  0.000
    14C     0.16414  0.25620   0.995  2.841  0.000
    15O    -0.41867 -0.47387   1.705  4.713  0.000
    16C     0.39208  0.50358   0.991  2.617  0.000
    17C    -0.11174 -0.24872   1.010  3.102  0.000
    18N    -0.34530 -0.46749   1.581  3.765  0.000
    19N    -0.18468 -0.35330   1.504  3.681  0.000
    20C     0.05293 -0.02934   0.989  2.958  0.000
    21N    -0.22602 -0.47192   1.455  3.771  0.000
    22C     0.05586 -0.03114   0.988  2.956  0.000
    23C     0.42279  0.52322   0.984  2.593  0.000
    24O    -0.61845 -0.66048   1.734  4.885  0.000
    25C     0.19638  0.22973   1.023  2.780  0.000
    26O    -0.52760 -0.72007   1.693  4.834  0.000
    27H     0.04660  0.10694   0.953  0.000  0.000
    28H     0.04576  0.10750   0.954  0.000  0.000
    29H     0.04643  0.10842   0.954  0.000  0.000
    30H     0.02746  0.08588   0.973  0.000  0.000
    31H     0.02072  0.07592   0.979  0.000  0.000
    32H     0.05156  0.11250   0.948  0.000  0.000
    33H     0.04234  0.10260   0.958  0.000  0.000
    34H     0.02585  0.08459   0.974  0.000  0.000
    35H     0.02755  0.08663   0.972  0.000  0.000
    36H     0.20837  0.41223   0.792  0.000  0.000
    37H     0.05091  0.10708   0.949  0.000  0.000
    38H     0.05935  0.11391   0.941  0.000  0.000
    39H     0.06088  0.11554   0.939  0.000  0.000
    40H     0.01782  0.08158   0.982  0.000  0.000
    41H     0.02042  0.08506   0.980  0.000  0.000
    42H     0.03281  0.09921   0.967  0.000  0.000
    43H     0.04629  0.11024   0.954  0.000  0.000
    44H     0.05610  0.12382   0.944  0.000  0.000
    45H     0.04763  0.12329   0.952  0.000  0.000
    46H     0.38730  0.57535   0.613  0.000  0.000

Wiberg/Mayer (AO) data.
largest (>0.10) Wiberg bond orders for each atom

 ---------------------------------------------------------------------------
     #   Z sym  total        # sym  WBO       # sym  WBO       # sym  WBO
 ---------------------------------------------------------------------------
     1   6 C    3.878 --    27 H    0.987    28 H    0.981    29 H    0.980
                             2 O    0.902
     2   8 O    2.156 --     3 C    1.037     1 C    0.902     4 O    0.113
     3   6 C    3.777 --     4 O    1.610     5 C    1.063     2 O    1.037
     4   8 O    1.846 --     3 C    1.610     2 O    0.113
     5   6 C    3.886 --    25 C    1.403     6 N    1.174     3 C    1.063
     6   7 N    3.018 --     7 C    1.576     5 C    1.174
     7   6 C    3.905 --     6 N    1.576    21 N    1.159     8 C    0.972
     8   6 C    3.958 --    10 C    0.990     9 C    0.983     7 C    0.972
                            11 N    0.956
     9   6 C    3.992 --    31 H    0.988     8 C    0.983    30 H    0.983
                            32 H    0.976
    10   6 C    3.994 --     8 C    0.990    35 H    0.986    34 H    0.986
                            33 H    0.982
    11   7 N    3.102 --    12 C    0.976     8 C    0.956    36 H    0.932
    12   6 C    3.877 --    14 C    1.421    13 O    1.367    11 N    0.976
    13   8 O    1.683 --    12 C    1.367    14 C    0.126
    14   6 C    3.563 --    12 C    1.421    19 N    0.980    15 O    0.910
                            13 O    0.126
    15   8 O    2.180 --    16 C    1.068    14 C    0.910    18 N    0.114
    16   6 C    3.896 --    18 N    1.709    15 O    1.068    17 C    1.020
    17   6 C    3.993 --    16 C    1.020    37 H    0.986    39 H    0.970
                            38 H    0.970
    18   7 N    2.934 --    16 C    1.709    19 N    1.004    15 O    0.114
    19   7 N    3.076 --    18 N    1.004    14 C    0.980    20 C    0.951
    20   6 C    3.955 --    41 H    0.989    42 H    0.985    40 H    0.983
                            19 N    0.951
    21   7 N    3.436 --     7 C    1.159    23 C    1.085    22 C    0.937
                            24 O    0.121
    22   6 C    3.931 --    43 H    0.979    44 H    0.978    45 H    0.971
                            21 N    0.937
    23   6 C    3.874 --    24 O    1.525    25 C    1.131    21 N    1.085
    24   8 O    1.818 --    23 C    1.525    21 N    0.121
    25   6 C    3.813 --     5 C    1.403    23 C    1.131    26 O    1.064
    26   8 O    2.027 --    25 C    1.064    46 H    0.815
    27   1 H    1.012 --     1 C    0.987
    28   1 H    1.009 --     1 C    0.981
    29   1 H    1.010 --     1 C    0.980
    30   1 H    1.007 --     9 C    0.983
    31   1 H    1.006 --     9 C    0.988
    32   1 H    1.026 --     9 C    0.976
    33   1 H    1.015 --    10 C    0.982
    34   1 H    1.016 --    10 C    0.986
    35   1 H    1.011 --    10 C    0.986
    36   1 H    0.971 --    11 N    0.932
    37   1 H    1.003 --    17 C    0.986
    38   1 H    1.002 --    17 C    0.970
    39   1 H    1.002 --    17 C    0.970
    40   1 H    1.010 --    20 C    0.983
    41   1 H    1.019 --    20 C    0.989
    42   1 H    1.030 --    20 C    0.985
    43   1 H    1.006 --    22 C    0.979
    44   1 H    1.011 --    22 C    0.978
    45   1 H    1.027 --    22 C    0.971
    46   1 H    0.867 --    26 O    0.815
 ---------------------------------------------------------------------------

Topologies differ in total number of bonds
Writing topology from bond orders to xtbtopo.mol

 dipole moment from electron density (au)
     X       Y       Z   
  -1.4562  -2.7918   1.6339  total (Debye):    9.017

           -------------------------------------------------
          |                Geometry Summary                 |
           -------------------------------------------------

      molecular mass/u    :      366.3497991
   center of mass at/Å    :       -0.2523782       0.0405725       0.2470116
  moments of inertia/u·Å² :        0.1423562E+04   0.5332367E+04   0.5496275E+04
rotational constants/cm⁻¹ :        0.1184187E-01   0.3161379E-02   0.3067101E-02

 * 39 selected distances

     #   Z          #   Z                                           value/Å
     1   6 C        2   8 O                                       1.4290910
     2   8 O        3   6 C                                       1.3604591
     3   6 C        4   8 O                                       1.2183181
     5   6 C        6   7 N                                       1.3713779
     6   7 N        7   6 C                                       1.2930663
     8   6 C        9   6 C                                       1.5384631
     8   6 C       10   6 C                                       1.5394077 (max)
     8   6 C       11   7 N                                       1.4658116
    12   6 C       14   6 C                                       1.3739805
    15   8 O       16   6 C                                       1.3436608
    16   6 C       17   6 C                                       1.4870441
    16   6 C       18   7 N                                       1.2783931
    19   7 N       20   6 C                                       1.4677834
     7   6 C       21   7 N                                       1.3742169
    21   7 N       22   6 C                                       1.4637860
    21   7 N       23   6 C                                       1.4010256
    23   6 C       24   8 O                                       1.2338905
     5   6 C       25   6 C                                       1.3859561
    25   6 C       26   8 O                                       1.3552888
     1   6 C       27   1 H                                       1.0874210
     1   6 C       28   1 H                                       1.0932984
     1   6 C       29   1 H                                       1.0932879
     9   6 C       30   1 H                                       1.0877755
     9   6 C       31   1 H                                       1.0900073
     9   6 C       32   1 H                                       1.0885524
    10   6 C       33   1 H                                       1.0888018
    10   6 C       34   1 H                                       1.0890862
    10   6 C       35   1 H                                       1.0892381
    11   7 N       36   1 H                                       1.0150049
    17   6 C       37   1 H                                       1.0872125
    17   6 C       38   1 H                                       1.0898293
    17   6 C       39   1 H                                       1.0896615
    20   6 C       40   1 H                                       1.0940674
    20   6 C       41   1 H                                       1.0889074
    20   6 C       42   1 H                                       1.0895843
    22   6 C       43   1 H                                       1.0914085
    22   6 C       44   1 H                                       1.0911448
    22   6 C       45   1 H                                       1.0861290
    26   8 O       46   1 H                                       0.9707280 (min)

 * 6 distinct bonds (by element types)

   Z      Z             #   av. dist./Å        max./Å        min./Å
   1 H    6 C          18     1.0897452     1.0940674     1.0861290
   6 C    6 C           5     1.4649703     1.5394077     1.3739805
   1 H    7 N           1     1.0150049     1.0150049     1.0150049
   6 C    7 N           8     1.3894326     1.4677834     1.2783931
   1 H    8 O           1     0.9707280     0.9707280     0.9707280
   6 C    8 O           6     1.3234514     1.4290910     1.2183181


optimized geometry written to: xtbopt.xyz


           -------------------------------------------------
          | TOTAL ENERGY              -87.035212564126 Eh   |
          | GRADIENT NORM               0.000766582564 Eh/α |
          | HOMO-LUMO GAP               0.092279888173 eV   |
           -------------------------------------------------

------------------------------------------------------------------------
 * finished run on 2023/06/20 at 15:28:19.548     
------------------------------------------------------------------------
 total:
 * wall-time:     0 d,  0 h,  0 min,  6.324 sec
 *  cpu-time:     0 d,  0 h,  0 min,  6.295 sec
 * ratio c/w:     0.995 speedup
 SCF:
 * wall-time:     0 d,  0 h,  0 min,  0.233 sec
 *  cpu-time:     0 d,  0 h,  0 min,  0.233 sec
 * ratio c/w:     0.999 speedup
 ANC optimizer:
 * wall-time:     0 d,  0 h,  0 min,  6.029 sec
 *  cpu-time:     0 d,  0 h,  0 min,  6.021 sec
 * ratio c/w:     0.999 speedup

