47
 energy: -80.164072951588 gnorm: 0.000483839844 xtb: 6.5.1 (579679a)
C           -4.04316849644038       -1.47654274443110       -1.23075790158124
N           -2.67920689305938       -1.06674674910521       -0.91205596373117
C           -1.73567446377694       -1.48508086259703       -1.82906631367827
O           -2.04796067601021       -2.24376457826660       -2.80199926886288
C           -0.46712683520734       -0.86155744463632       -1.68901337776269
O            0.32127661590903       -0.87268586700958       -2.82109437202254
C           -0.14504214961980       -0.14949003872849       -0.53604381576089
C            0.89591908511340        0.81911753598907       -0.33242630001553
O            1.00989368387807        1.51167769155805        0.69752044547755
N            1.79508898707435        0.99839847091719       -1.38436395499047
C            3.05684508160632        1.66818847716022       -1.09691646740257
C            4.02413876389363        0.72263679355501       -0.41469676877235
C            3.99958472881925        0.56533050764128        0.97035771208648
C            4.85416308535909       -0.33012239747562        1.59740398192149
C            5.72507548965649       -1.06433025874004        0.81310305512569
F            6.55663249752352       -1.93815417014935        1.41367951540495
C            5.77921835354851       -0.93591737536729       -0.56224329370642
C            4.91769962061514       -0.03305896982399       -1.17121414751462
N           -0.97357765308656       -0.45334649366200        0.61878641413072
C           -0.64712376864394       -1.77446684822785        1.19924301179355
C           -2.35670450983413       -0.37007662476403        0.23252549944151
C           -3.13911101477850        0.84797116238080        0.70137945548504
C           -3.77836377170360        1.62774988522447       -0.46775826165954
C           -2.21200338197623        1.79940897628797        1.47538115794812
N           -4.18999497434375        0.43402392858673        1.65688127013119
H           -4.71837914135366       -1.22353360286038       -0.41922352895616
H           -4.37594076761749       -0.99804994066930       -2.15408418068898
H           -4.05486069615342       -2.55903600889174       -1.38371906971673
H           -0.14471890433370       -1.43146947342402       -3.47038160880159
H            1.88487606993285        0.23307436043036       -2.03905415447822
H            2.85290168356769        2.53360243746654       -0.45751425044200
H            3.47880058597666        2.02029675952877       -2.04273692846700
H            3.30419912302006        1.14871090574601        1.56477554176648
H            4.84844910362418       -0.45927384978348        2.67207915988482
H            6.47906476042529       -1.52530278497755       -1.13955150190366
H            4.94971703108308        0.08583842002211       -2.24815859593417
H           -1.30357773557611       -1.94460958319124        2.05395661406635
H           -0.78017885097315       -2.59018079675920        0.47638671460848
H            0.39112577033055       -1.76472251393800        1.53506774898242
H           -3.02531513106224        1.85755310400005       -1.22248007706899
H           -4.20422332523758        2.56187857618644       -0.10139012008340
H           -4.57819503589336        1.05518092615041       -0.93131630017745
H           -1.75405589949096        1.27631084499080        2.31533507703071
H           -1.42060947670521        2.18086166215496        0.83060006262205
H           -2.78900126973242        2.64115224287363        1.85974773994250
H           -4.78244788652123       -0.26847988764490        1.23460388655887
H           -4.77810441182658        1.23103619626976        1.86128445978534
