42
 energy: -83.597716127085 gnorm: 0.000648702846 xtb: 6.5.1 (579679a)
C           -5.17415437261376        3.15203152372467        0.73696376642909
O           -4.64199879722420        1.84691234481907        0.95964821910324
C           -3.46920819053773        1.57698500067600        0.32874532840914
O           -2.93094927917686        2.41556459736434       -0.36690566707453
C           -2.95076849060959        0.21741555265983        0.57119558538871
N           -1.75077354273879       -0.01620293881498       -0.04029242977237
C           -1.21359849663406       -1.21286160423805        0.09590970740737
C            0.13402488093807       -1.44522926370069       -0.58336156596025
C            0.20071310917552       -0.64080297010751       -1.89234684472824
C            0.32452330141779       -2.93924163348313       -0.86776861804854
N            1.17953177488903       -0.99378867160237        0.37070014585559
C            2.53104471679053       -1.07824424201101       -0.15513123818384
O            3.18263295881524       -2.30786225760486        0.09459022724204
C            3.84028348097992       -2.40343314518527        1.34976297274887
C            3.29218415553425        0.05366408150783       -0.32636719126880
N            4.63012960706069        0.14126739974693       -0.52521915477460
N            4.89035935628836        1.47824347683963       -0.76404176052809
C            3.77634653297588        2.11674996243370       -0.71166442522955
C            3.56300192346969        3.57820078535388       -0.89269257800678
O            2.69953166929502        1.30398045949333       -0.44502609629015
N           -1.72235443289940       -2.22942479103701        0.78894487318824
C           -2.90621015563561       -2.08661154109262        1.43769832616263
O           -3.41343691355795       -3.01454116424069        2.09938023986418
C           -3.55853671547077       -0.77332837969727        1.31192735058596
O           -4.75160722298761       -0.65606447001762        1.95817295093401
H           -6.06640414018557        3.24189039618369        1.35181390631227
H           -4.44446959208901        3.91436874427107        1.02255590560573
H           -5.43296239656338        3.28093482627706       -0.31728158251791
H            0.05206626598637        0.41938063708076       -1.68619429743754
H            1.17373802899462       -0.77704803241987       -2.36649741703319
H           -0.57775236038839       -0.97492676472469       -2.57870338743333
H            1.25910873969346       -3.11186261991224       -1.40144651649470
H            0.34677669045807       -3.49639161794417        0.06985894913036
H           -0.50078961712413       -3.31215778009601       -1.47502751895335
H            0.98450584806597       -0.01457454909715        0.58622813929786
H            3.14612692776611       -2.23157694330645        2.18531035728155
H            4.25151419087929       -3.41305776379013        1.43373640764916
H            4.66423801245271       -1.67784849551495        1.42159332493738
H            3.02811999416986        3.99692888681968       -0.03879928290080
H            2.97693441118590        3.78240634611548       -1.79084472741177
H            4.52844666970801        4.07217430652997       -0.98419037144800
H           -5.14990553054605        0.21798131174882        1.84031298796779
