42
 energy: -82.974677146345 gnorm: 0.000328325122 xtb: 6.5.1 (579679a)
C            7.00584963384701       -0.96375991877389        1.11571327356279
O            5.83835277409099       -0.23671238077746        0.73799496915397
C            4.73591144325909       -0.96215892418069        0.50155336006789
O            4.72912082384059       -2.17404689954692        0.58827964373597
C            3.55146750250261       -0.14349381629650        0.14995536353204
N            2.38980664897668       -0.86468548924707        0.00656551089836
C            1.29948092213913       -0.19819881907148       -0.26206925348495
C            0.01885267272531       -1.01671511366616       -0.40755876575848
C           -0.15783276287974       -1.95151970732129        0.79003768471312
C            0.04375564297995       -1.79295431744220       -1.72877057822785
N           -1.05001073148950       -0.01495683082472       -0.44992317242925
C           -2.33345458797831       -0.18279992689114       -0.48719293600763
O           -2.81842443695487       -1.39515805840969       -0.50289323770735
C           -4.22386414286009       -1.68080804932177       -0.52492309876384
C           -3.12865770049988        1.02942816063806       -0.50175538162697
N           -2.62627709978829        2.23203707572185       -0.49087779810576
N           -3.66566989614220        3.09113672259172       -0.50059179261598
C           -4.75213347541282        2.37293184871741       -0.51560015777634
C           -6.14987411734485        2.84518268225386       -0.52399589098800
O           -4.47482157962500        1.06046555151885       -0.51798135840130
N            1.15884207796517        1.11827160231607       -0.43190773585010
C            2.26428155049951        1.90104497893140       -0.33196109483705
O            2.26561929756303        3.13385923845878       -0.47959004929868
C            3.52444204819822        1.21539173836805       -0.01842127483850
O            4.59540146996722        2.02792382514589        0.08216852361337
H            7.32563953180279       -1.61996387783313        0.30179622648136
H            6.80532922968376       -1.56808496283689        2.00467259117023
H            7.77931913254265       -0.22832043665639        1.32979226618664
H           -0.99673964505010       -2.62697226956806        0.64122304248494
H           -0.32309622719475       -1.37239966462685        1.69710838625030
H            0.75697350394167       -2.53373459279289        0.90204689896793
H           -0.86274681560156       -2.38312799452785       -1.84350526787557
H            0.90752511373918       -2.45655970985687       -1.72602245932190
H            0.12658395562188       -1.10131422338859       -2.56596301561365
H           -0.63683931186925        0.94417282424612       -0.47018735529320
H           -4.67983923660154       -1.26313665903607       -1.42274012842893
H           -4.29842774500566       -2.76669195287627       -0.53216733671813
H           -4.70559296381615       -1.27326034567484        0.36411751007674
H           -6.66368992523860        2.49193528860687        0.37016002471630
H           -6.17126878859414        3.93196937865079       -0.55371148033293
H           -6.67191526076549        2.44110227829116       -1.39099424341399
H            4.26862047482172        2.93468274698251       -0.09754341189027
