42
 energy: -83.586418814888 gnorm: 0.000768919106 xtb: 6.5.1 (579679a)
C           -5.07955533435074       -1.68269823435483       -1.10849785299771
O           -3.86984221231513       -1.09115671046343       -0.67544101526788
C           -3.72926101644074       -1.00391132637903        0.71933100938129
O           -4.67911561443536       -1.44061892889901        1.43661504407536
C           -2.54730898575382       -0.44205923125590        1.21032693480702
C           -2.38125540695881       -0.17463520398015        2.60464855467100
O           -3.30729993276805       -0.67275802273496        3.49553809948570
C           -1.32823208182636        0.61845597528434        3.09809856824251
O           -1.10105775708371        0.87544042892162        4.31385491876686
N           -0.49314599314855        1.20293663944004        2.11244685084279
C           -0.55138078182238        0.87013166311342        0.87068098470231
C            0.41605472117802        1.60897862789388       -0.07026769405924
C            1.08844608129478        2.75021128042934        0.71552197818828
C           -0.36485969970416        2.20303964002095       -1.25383734387015
N            1.43828872373732        0.65902016737184       -0.53002852322947
C            2.48883188839376        1.09944302530771       -1.36100668993551
O            2.40862975806583        2.13551601057194       -2.06342139151413
C            3.60894291526926        0.22270920757685       -1.37618213758734
N            4.75036391439625        0.35598553422216       -2.06888563472684
N            5.53240544692466       -0.71477517513009       -1.73499157029057
C            4.87353638174649       -1.43394317194883       -0.88709434863604
C            5.32015967158377       -2.69872174871470       -0.25069799457020
O            3.64833782510017       -0.92531143652762       -0.59471997060711
N           -1.47542859218674       -0.00711853412057        0.35797861149862
C           -1.19844157644838       -0.81105926784749       -0.83067845608040
H           -5.18223645178048       -2.70575463234966       -0.72641594712037
H           -5.05653163108661       -1.70676199856350       -2.19913439293538
H           -5.94849575116558       -1.09994892545707       -0.77808110199005
H           -4.02375035757586       -1.09164417769557        2.94412780550890
H            1.65352698402249        2.34840111568584        1.55631596637509
H            1.76411257504459        3.30399913560872        0.06512069595424
H            0.32975133243754        3.43107086302656        1.10061728189470
H            0.20012875989804        3.00846927845570       -1.72036965545441
H           -1.31404797220983        2.60595534620293       -0.89957213309394
H           -0.56446021723017        1.44919032847591       -2.01227577587786
H            1.75855942580724        0.04048959082878        0.20590001933485
H            4.66450381721175       -3.52270153626110       -0.53696259661939
H            5.29556130309258       -2.61038737624148        0.83628768025802
H            6.33538247211574       -2.92392182233182       -0.57020798592493
H           -0.13901229507694       -0.76334857716513       -1.08032877630889
H           -1.78069256189844       -0.46513189494877       -1.68713314817837
H           -1.46011577404798       -1.85116292506283       -0.62717886711139
