      -----------------------------------------------------------      
     |                   =====================                   |     
     |                           x T B                           |     
     |                   =====================                   |     
     |                         S. Grimme                         |     
     |          Mulliken Center for Theoretical Chemistry        |     
     |                    University of Bonn                     |     
      -----------------------------------------------------------      

   * xtb version 6.5.1 (579679a) compiled by 'ehlert@majestix' on 2022-07-11

   xtb is free software: you can redistribute it and/or modify it under
   the terms of the GNU Lesser General Public License as published by
   the Free Software Foundation, either version 3 of the License, or
   (at your option) any later version.
   
   xtb is distributed in the hope that it will be useful,
   but WITHOUT ANY WARRANTY; without even the implied warranty of
   MERCHANTABILITY or FITNESS FOR A PARTICULAR PURPOSE.  See the
   GNU Lesser General Public License for more details.
   
   Cite this work as:
   * C. Bannwarth, E. Caldeweyher, S. Ehlert, A. Hansen, P. Pracht,
     J. Seibert, S. Spicher, S. Grimme, WIREs Comput. Mol. Sci., 2020, 11,
     e01493. DOI: 10.1002/wcms.1493
   
   for GFN2-xTB:
   * C. Bannwarth, S. Ehlert and S. Grimme., J. Chem. Theory Comput., 2019,
     15, 1652-1671. DOI: 10.1021/acs.jctc.8b01176
   for GFN1-xTB:
   * S. Grimme, C. Bannwarth, P. Shushkov, J. Chem. Theory Comput., 2017,
     13, 1989-2009. DOI: 10.1021/acs.jctc.7b00118
   for GFN0-xTB:
   * P. Pracht, E. Caldeweyher, S. Ehlert, S. Grimme, ChemRxiv, 2019, preprint.
     DOI: 10.26434/chemrxiv.8326202.v1
   for GFN-FF:
   * S. Spicher and S. Grimme, Angew. Chem. Int. Ed., 2020, 59, 15665-15673.
     DOI: 10.1002/anie.202004239
   
   for ALPB and GBSA implicit solvation:
   * S. Ehlert, M. Stahn, S. Spicher, S. Grimme, J. Chem. Theory Comput.,
     2021, 17, 4250-4261. DOI: 10.1021/acs.jctc.1c00471
   
   for DFT-D4:
   * E. Caldeweyher, C. Bannwarth and S. Grimme, J. Chem. Phys., 2017,
     147, 034112. DOI: 10.1063/1.4993215
   * E. Caldeweyher, S. Ehlert, A. Hansen, H. Neugebauer, S. Spicher,
     C. Bannwarth and S. Grimme, J. Chem. Phys., 2019, 150, 154122.
     DOI: 10.1063/1.5090222
   * E. Caldeweyher, J.-M. Mewes, S. Ehlert and S. Grimme, Phys. Chem. Chem. Phys.
     2020, 22, 8499-8512. DOI: 10.1039/D0CP00502A
   
   for sTDA-xTB:
   * S. Grimme and C. Bannwarth, J. Chem. Phys., 2016, 145, 054103.
     DOI: 10.1063/1.4959605
   
   in the mass-spec context:
   * V. Asgeirsson, C. Bauer and S. Grimme, Chem. Sci., 2017, 8, 4879.
     DOI: 10.1039/c7sc00601b
   * J. Koopman and S. Grimme, ACS Omega 2019, 4, 12, 15120-15133.
     DOI: 10.1021/acsomega.9b02011
   
   for metadynamics refer to:
   * S. Grimme, J. Chem. Theory Comput., 2019, 155, 2847-2862
     DOI: 10.1021/acs.jctc.9b00143
   
   for SPH calculations refer to:
   * S. Spicher and S. Grimme, J. Chem. Theory Comput., 2021, 17, 1701-1714
     DOI: 10.1021/acs.jctc.0c01306
   
   with help from (in alphabetical order)
   P. Atkinson, C. Bannwarth, F. Bohle, G. Brandenburg, E. Caldeweyher
   M. Checinski, S. Dohm, S. Ehlert, S. Ehrlich, I. Gerasimov, C. Hölzer
   A. Katbashev, J. Koopman, C. Lavigne, S. Lehtola, F. März, M. Müller,
   F. Musil, H. Neugebauer, J. Pisarek, C. Plett, P. Pracht, F. Pultar,
   J. Seibert, P. Shushkov, S. Spicher, M. Stahn, M. Steiner, T. Strunk,
   J. Stückrath, T. Rose, and J. Unsleber
   
 * started run on 2023/06/21 at 17:43:52.665     

           -------------------------------------------------
          |                Calculation Setup                |
           -------------------------------------------------

          program call               : /lustre/hpc/kemi/ree/PhD/git/ReactivityQM/dep/xtb-6.5.1/bin/xtb --gfn 1 /lustre/hpc/kemi/ree/PhD/git/ReactivityQM/calculations/R02methylcation/reac01prodN11/conf16/R02methylcation_reac01prodN11_conf16_gfn1.xyz --opt --vfukui --chrg 0 --uhf 0 --alpb DMSO
          hostname                   : node317
          coordinate file            : /lustre/hpc/kemi/ree/PhD/git/ReactivityQM/calculations/R02methylcation/reac01prodN11/conf16/R02methylcation_reac01prodN11_conf16_gfn1.xyz
          omp threads                :                     1

   ID    Z sym.   atoms
    1    6 C      1, 3, 5, 7-10, 12, 13, 15, 18, 19, 22, 24
    2    8 O      2, 4, 14, 20, 23, 25
    3    7 N      6, 11, 16, 17, 21
    4    1 H      26-42

           -------------------------------------------------
          |                 G F N 1 - x T B                 |
           -------------------------------------------------

        Reference                      10.1021/acs.jctc.7b00118
      * Hamiltonian:
        H0-scaling (s, p, d)           1.850000    2.250000    2.000000
        zeta-weighting                 0.000000
      * Dispersion:
        s8                             2.400000
        a1                             0.630000
        a2                             5.000000
        s9                             0.000000
      * Repulsion:
        kExp                           1.500000
        rExp                           1.000000
      * Coulomb:
        alpha                          2.000000
        third order                    atomic
        anisotropic                    false
      * Halogen bond correction:
        rad-scale                      1.300000
        damping                        0.440000

      * Solvation model:               ALPB
        Solvent                        DMSO
        Parameter file                 internal GFN1-xTB/ALPB
        Dielectric constant                4.6680E+01
        Reference state                gsolv [1 M gas/solution]
        Free energy shift                  7.6243E-03 Eh       4.7843E+00 kcal/mol
        Temperature                        2.9815E+02 K
        Density                            1.1000E+00 kg/L
        Solvent mass                       7.8130E+01 g/mol
        Interaction kernel             P16
        Born radius scaling (c1)           1.7672E+00
        Born radii integrator          GBOBC
        Born offset                        0.0000E+00 a0       0.0000E+00 AA
        H-bond correction              true
        Ion screening                  false
        Surface tension                    1.0000E-05 Eh       1.5569E+01 dyn/cm
        Grid points                               230 per atom

          ...................................................
          :                      SETUP                      :
          :.................................................:
          :  # basis functions                 134          :
          :  # atomic orbitals                 134          :
          :  # shells                           84          :
          :  # electrons                       134          :
          :  # halogen bonds                     0          :
          :  max. iterations                   250          :
          :  Hamiltonian                  GFN1-xTB          :
          :  restarted?                      false          :
          :  GBSA solvation                   true          :
          :  PC potential                    false          :
          :  electronic temp.          300.0000000     K    :
          :  accuracy                    1.0000000          :
          :  -> integral cutoff          0.2500000E+02      :
          :  -> integral neglect         0.1000000E-07      :
          :  -> SCF convergence          0.1000000E-05 Eh   :
          :  -> wf. convergence          0.2000000E-04 e    :
          :  Broyden damping             0.4000000          :
          ...................................................

 iter      E             dE          RMSdq      gap      omega  full diag
   1    -83.0970659 -0.830971E+02  0.849E+00    0.15       0.0  T
   2    -83.4788509 -0.381785E+00  0.515E+00    0.10       1.0  T
   3    -83.3365885  0.142262E+00  0.293E+00    0.24       1.0  T
   4    -83.4509682 -0.114380E+00  0.131E+00    0.54       1.0  T
   5    -83.4780686 -0.271004E-01  0.107E+00    0.33       1.0  T
   6    -83.5746324 -0.965638E-01  0.586E-01    0.15       1.0  T
   7    -83.6042239 -0.295916E-01  0.187E-01    0.09       1.0  T
   8    -83.5660070  0.382169E-01  0.600E-01    0.10       1.0  T
   9    -83.5605122  0.549487E-02  0.625E-01    0.14       1.0  T
  10    -83.6029053 -0.423931E-01  0.225E-01    0.10       1.0  T
  11    -83.6075565 -0.465123E-02  0.187E-02    0.08       1.0  T
  12    -83.6074030  0.153517E-03  0.397E-02    0.08       1.0  T
  13    -83.6073969  0.609901E-05  0.402E-02    0.08       1.0  T
  14    -83.6075450 -0.148063E-03  0.201E-02    0.08       1.0  T
  15    -83.6075907 -0.457808E-04  0.373E-03    0.08       4.1  T
  16    -83.6075924 -0.168104E-05  0.789E-05    0.08     195.6  T
  17    -83.6075923  0.117882E-06  0.998E-04    0.08      15.5  T
  18    -83.6075924 -0.116778E-06  0.121E-04    0.08     127.9  T
  19    -83.6075924 -0.151975E-08  0.327E-05    0.08     471.8  T

   *** convergence criteria satisfied after 19 iterations ***

         #    Occupation            Energy/Eh            Energy/eV
      -------------------------------------------------------------
         1        2.0000           -0.8702255             -23.6800
       ...           ...                  ...                  ...
        61        2.0000           -0.4865776             -13.2404
        62        2.0000           -0.4640446             -12.6273
        63        2.0000           -0.4603355             -12.5264
        64        2.0000           -0.4513608             -12.2822
        65        2.0000           -0.4463282             -12.1452
        66        2.0000           -0.4418835             -12.0243
        67        1.6412           -0.4314489             -11.7403 (HOMO)
        68        0.3588           -0.4285598             -11.6617 (LUMO)
        69                         -0.3362859              -9.1508
        70                         -0.3099317              -8.4337
        71                         -0.2885068              -7.8507
        72                         -0.2609270              -7.1002
       ...                                ...                  ...
       134                          0.7459632              20.2987
      -------------------------------------------------------------
                  HL-Gap            0.0028891 Eh            0.0786 eV
             Fermi-level           -0.4300043 Eh          -11.7010 eV

 SCC (total)                   0 d,  0 h,  0 min,  0.209 sec
 SCC setup                      ...        0 min,  0.002 sec (  1.039%)
 Dispersion                     ...        0 min,  0.000 sec (  0.202%)
 classical contributions        ...        0 min,  0.000 sec (  0.064%)
 integral evaluation            ...        0 min,  0.050 sec ( 23.727%)
 iterations                     ...        0 min,  0.071 sec ( 34.169%)
 molecular gradient             ...        0 min,  0.084 sec ( 40.284%)
 printout                       ...        0 min,  0.001 sec (  0.486%)

         :::::::::::::::::::::::::::::::::::::::::::::::::::::
         ::                     SUMMARY                     ::
         :::::::::::::::::::::::::::::::::::::::::::::::::::::
         :: total energy             -82.863029666337 Eh    ::
         :: total w/o Gsasa/hb       -82.843667445569 Eh    ::
         :: gradient norm              0.122543959514 Eh/a0 ::
         :: HOMO-LUMO gap              0.078616799951 eV    ::
         ::.................................................::
         :: SCC energy               -83.607592419560 Eh    ::
         :: -> electrostatic           0.373950530995 Eh    ::
         :: -> Gsolv                  -0.056803627647 Eh    ::
         ::    -> Gelec               -0.037441406879 Eh    ::
         ::    -> Gsasa               -0.023633659075 Eh    ::
         ::    -> Ghb                 -0.003352840698 Eh    ::
         ::    -> Gshift               0.007624279005 Eh    ::
         :: repulsion energy           0.771680089721 Eh    ::
         :: dispersion energy         -0.027117336499 Eh    ::
         :: halogen bond corr.         0.000000000000 Eh    ::
         :: add. restraining           0.000000000000 Eh    ::
         :: total charge              -0.000000000000 e     ::
         :::::::::::::::::::::::::::::::::::::::::::::::::::::

      ----------------------------------------------------------- 
     |                   =====================                   |
     |                        A N C O P T                        |
     |                   =====================                   |
     |               Approximate Normal Coordinate               |
     |                Rational Function Optimizer                |
      ----------------------------------------------------------- 

          ...................................................
          :                      SETUP                      :
          :.................................................:
          :   optimization level            normal          :
          :   max. optcycles                   200          :
          :   ANC micro-cycles                  20          :
          :   degrees of freedom               120          :
          :.................................................:
          :   RF solver                   davidson          :
          :   write xtbopt.log                true          :
          :   linear?                        false          :
          :   energy convergence         0.5000000E-05 Eh   :
          :   grad. convergence          0.1000000E-02 Eh/α :
          :   maximium RF displ.         1.0000000          :
          :   Hlow (freq-cutoff)         0.1000000E-01      :
          :   Hmax (freq-cutoff)         5.0000000          :
          :   S6 in model hess.         20.0000000          :
          ...................................................

generating ANC from model Hessian ...
Using Lindh-Hessian (1995)
 Shifting diagonal of input Hessian by   9.792029471518800E-003
 Lowest  eigenvalues of input Hessian
    0.000000    0.000000    0.000000    0.000000    0.000000    0.000000
    0.010000    0.010214    0.010606    0.010984    0.012249    0.012454
    0.012624    0.013959    0.014415    0.015274    0.015845    0.017412
 Highest eigenvalues
    1.979997    2.085938    2.096780    2.256078    2.331316    2.459504
 

........................................................................
.............................. CYCLE    1 ..............................
........................................................................
   1    -83.6075924 -0.836076E+02  0.202E-06    0.08       0.0  T
   2    -83.6075924  0.992060E-10  0.284E-05    0.08     543.6  T
   3    -83.6075924 -0.983249E-10  0.380E-06    0.08    4057.0  T
     SCC iter.                  ...        0 min,  0.012 sec
     gradient                   ...        0 min,  0.083 sec
 * total energy  :   -82.8630297 Eh     change       -0.1254961E-09 Eh
   gradient norm :     0.1225443 Eh/α   predicted     0.0000000E+00 (-100.00%)
   displ. norm   :     0.3356064 α      lambda       -0.1820779E-01
   maximum displ.:     0.1667005 α      in ANC's #26, #23, #58, ...

........................................................................
.............................. CYCLE    2 ..............................
........................................................................
   1    -83.6210931 -0.836211E+02  0.157E-01    0.10       0.0  T
   2    -83.5246448  0.964483E-01  0.933E-01    0.33       1.0  T
   3    -83.6168288 -0.921840E-01  0.264E-01    0.09       1.0  T
   4    -83.6219733 -0.514454E-02  0.140E-01    0.09       1.0  T
   5    -83.6215612  0.412133E-03  0.143E-01    0.09       1.0  T
   6    -83.6213069  0.254294E-03  0.154E-01    0.10       1.0  T
   7    -83.6239969 -0.268998E-02  0.296E-02    0.09       1.0  T
   8    -83.6241004 -0.103485E-03  0.724E-03    0.09       2.1  T
   9    -83.6241056 -0.521894E-05  0.304E-03    0.09       5.1  T
  10    -83.6241067 -0.112599E-05  0.174E-04    0.09      88.5  T
  11    -83.6241067  0.201641E-07  0.417E-04    0.09      37.0  T
  12    -83.6241067 -0.211667E-07  0.413E-05    0.09     373.6  T
  13    -83.6241067  0.462720E-09  0.734E-05    0.09     210.2  T
     SCC iter.                  ...        0 min,  0.047 sec
     gradient                   ...        0 min,  0.084 sec
 * total energy  :   -82.8768021 Eh     change       -0.1377240E-01 Eh
   gradient norm :     0.0684754 Eh/α   predicted    -0.1014097E-01 ( -26.37%)
   displ. norm   :     0.3874923 α      lambda       -0.1107220E-01
   maximum displ.:     0.1772317 α      in ANC's #26, #23, #19, ...

........................................................................
.............................. CYCLE    3 ..............................
........................................................................
   1    -83.6220176 -0.836220E+02  0.355E-01    0.12       0.0  T
   2    -83.5121222  0.109895E+00  0.113E+00    0.52       1.0  T
   3    -83.5625081 -0.503859E-01  0.808E-01    0.24       1.0  T
   4    -83.5908493 -0.283413E-01  0.638E-01    0.16       1.0  T
   5    -83.6015817 -0.107324E-01  0.567E-01    0.12       1.0  T
   6    -83.5785716  0.230101E-01  0.703E-01    0.15       1.0  T
   7    -83.6236951 -0.451235E-01  0.353E-01    0.12       1.0  T
   8    -83.5931184  0.305767E-01  0.615E-01    0.17       1.0  T
   9    -83.6387424 -0.456240E-01  0.100E-01    0.11       1.0  T
  10    -83.6378157  0.926651E-03  0.120E-01    0.11       1.0  T
  11    -83.6393352 -0.151941E-02  0.370E-02    0.11       1.0  T
  12    -83.6393767 -0.415477E-04  0.241E-02    0.11       1.0  T
  13    -83.6394117 -0.350300E-04  0.753E-03    0.11       2.0  T
  14    -83.6394153 -0.356236E-05  0.149E-03    0.11      10.4  T
  15    -83.6394145  0.757191E-06  0.280E-03    0.11       5.5  T
  16    -83.6394154 -0.897283E-06  0.771E-04    0.11      20.0  T
  17    -83.6394155 -0.702483E-07  0.156E-04    0.11      99.0  T
  18    -83.6394155 -0.148557E-08  0.109E-04    0.11     141.1  T
     SCC iter.                  ...        0 min,  0.066 sec
     gradient                   ...        0 min,  0.084 sec
 * total energy  :   -82.8835542 Eh     change       -0.6752133E-02 Eh
   gradient norm :     0.0173281 Eh/α   predicted    -0.6369295E-02 (  -5.67%)
   displ. norm   :     0.2580482 α      lambda       -0.1701958E-02
   maximum displ.:     0.0935985 α      in ANC's #10, #19, #23, ...

........................................................................
.............................. CYCLE    4 ..............................
........................................................................
   1    -83.6393241 -0.836393E+02  0.149E-01    0.12       0.0  T
   2    -83.5437737  0.955504E-01  0.925E-01    0.37       1.0  T
   3    -83.6333062 -0.895325E-01  0.271E-01    0.12       1.0  T
   4    -83.6422146 -0.890836E-02  0.385E-02    0.11       1.0  T
   5    -83.6418634  0.351161E-03  0.575E-02    0.11       1.0  T
   6    -83.6422759 -0.412461E-03  0.120E-02    0.11       1.3  T
   7    -83.6422756  0.251807E-06  0.124E-02    0.11       1.2  T
   8    -83.6422946 -0.189549E-04  0.376E-04    0.11      41.1  T
   9    -83.6422940  0.581436E-06  0.218E-03    0.11       7.1  T
  10    -83.6422946 -0.568626E-06  0.401E-04    0.11      38.5  T
  11    -83.6422946 -0.167672E-07  0.164E-04    0.11      94.1  T
  12    -83.6422946 -0.217555E-08  0.102E-04    0.11     151.5  T
     SCC iter.                  ...        0 min,  0.048 sec
     gradient                   ...        0 min,  0.084 sec
 * total energy  :   -82.8847404 Eh     change       -0.1186247E-02 Eh
   gradient norm :     0.0110640 Eh/α   predicted    -0.9076773E-03 ( -23.48%)
   displ. norm   :     0.2740486 α      lambda       -0.9046694E-03
   maximum displ.:     0.1110846 α      in ANC's #4, #10, #18, ...

........................................................................
.............................. CYCLE    5 ..............................
........................................................................
   1    -83.6437720 -0.836438E+02  0.747E-02    0.12       0.0  T
   2    -83.5800352  0.637368E-01  0.729E-01    0.20       1.0  T
   3    -83.6441412 -0.641061E-01  0.610E-02    0.11       1.0  T
   4    -83.6441523 -0.110906E-04  0.529E-02    0.12       1.0  T
   5    -83.6444175 -0.265128E-03  0.236E-02    0.12       1.0  T
   6    -83.6444792 -0.617652E-04  0.783E-03    0.12       2.0  T
   7    -83.6444847 -0.545899E-05  0.315E-03    0.12       4.9  T
   8    -83.6444859 -0.120424E-05  0.608E-04    0.12      25.4  T
   9    -83.6444859 -0.446355E-07  0.875E-05    0.12     176.3  T
  10    -83.6444859  0.763890E-09  0.110E-04    0.12     139.8  T
     SCC iter.                  ...        0 min,  0.039 sec
     gradient                   ...        0 min,  0.084 sec
 * total energy  :   -82.8853752 Eh     change       -0.6347399E-03 Eh
   gradient norm :     0.0099074 Eh/α   predicted    -0.4863168E-03 ( -23.38%)
   displ. norm   :     0.2621584 α      lambda       -0.5030222E-03
   maximum displ.:     0.1297098 α      in ANC's #4, #3, #10, ...

........................................................................
.............................. CYCLE    6 ..............................
........................................................................
   1    -83.6460714 -0.836461E+02  0.380E-02    0.12       0.0  T
   2    -83.6243394  0.217320E-01  0.422E-01    0.14       1.0  T
   3    -83.6461169 -0.217775E-01  0.412E-02    0.12       1.0  T
   4    -83.6461940 -0.770148E-04  0.196E-02    0.12       1.0  T
   5    -83.6462346 -0.406519E-04  0.469E-03    0.12       3.3  T
   6    -83.6462351 -0.500212E-06  0.168E-03    0.12       9.2  T
   7    -83.6462353 -0.154311E-06  0.365E-04    0.12      42.3  T
   8    -83.6462353 -0.107077E-07  0.179E-04    0.12      86.1  T
   9    -83.6462353 -0.359627E-08  0.178E-05    0.12     865.5  T
     SCC iter.                  ...        0 min,  0.036 sec
     gradient                   ...        0 min,  0.083 sec
 * total energy  :   -82.8857358 Eh     change       -0.3606182E-03 Eh
   gradient norm :     0.0080114 Eh/α   predicted    -0.2688311E-03 ( -25.45%)
   displ. norm   :     0.2535286 α      lambda       -0.3309419E-03
   maximum displ.:     0.1343548 α      in ANC's #4, #3, #6, ...

........................................................................
.............................. CYCLE    7 ..............................
........................................................................
   1    -83.6473506 -0.836474E+02  0.371E-02    0.12       0.0  T
   2    -83.6245126  0.228380E-01  0.433E-01    0.14       1.0  T
   3    -83.6474444 -0.229318E-01  0.312E-02    0.12       1.0  T
   4    -83.6474919 -0.475485E-04  0.135E-02    0.12       1.1  T
   5    -83.6475100 -0.181286E-04  0.419E-03    0.12       3.7  T
   6    -83.6475106 -0.602272E-06  0.135E-03    0.12      11.5  T
   7    -83.6475107 -0.679296E-07  0.131E-04    0.12     118.1  T
   8    -83.6475107  0.395701E-09  0.966E-05    0.12     159.8  T
     SCC iter.                  ...        0 min,  0.031 sec
     gradient                   ...        0 min,  0.083 sec
 * total energy  :   -82.8859764 Eh     change       -0.2405660E-03 Eh
   gradient norm :     0.0058247 Eh/α   predicted    -0.1761357E-03 ( -26.78%)
   displ. norm   :     0.2412664 α      lambda       -0.2359958E-03
   maximum displ.:     0.1244651 α      in ANC's #4, #3, #2, ...

........................................................................
.............................. CYCLE    8 ..............................
........................................................................
   1    -83.6479714 -0.836480E+02  0.480E-02    0.12       0.0  T
   2    -83.6096851  0.382864E-01  0.562E-01    0.16       1.0  T
   3    -83.6482290 -0.385439E-01  0.212E-02    0.12       1.0  T
   4    -83.6482085  0.204985E-04  0.211E-02    0.12       1.0  T
   5    -83.6482595 -0.509978E-04  0.453E-03    0.12       3.4  T
   6    -83.6482598 -0.259711E-06  0.276E-03    0.12       5.6  T
   7    -83.6482605 -0.664392E-06  0.489E-04    0.12      31.5  T
   8    -83.6482605 -0.243160E-07  0.178E-04    0.12      86.8  T
   9    -83.6482605 -0.351805E-08  0.397E-05    0.12     388.3  T
     SCC iter.                  ...        0 min,  0.032 sec
     gradient                   ...        0 min,  0.083 sec
 * total energy  :   -82.8861494 Eh     change       -0.1730258E-03 Eh
   gradient norm :     0.0046533 Eh/α   predicted    -0.1248672E-03 ( -27.83%)
   displ. norm   :     0.2364117 α      lambda       -0.1777001E-03
   maximum displ.:     0.1124573 α      in ANC's #4, #2, #3, ...

........................................................................
.............................. CYCLE    9 ..............................
........................................................................
   1    -83.6478698 -0.836479E+02  0.606E-02    0.12       0.0  T
   2    -83.5952727  0.525971E-01  0.662E-01    0.19       1.0  T
   3    -83.6481984 -0.529257E-01  0.358E-02    0.12       1.0  T
   4    -83.6483072 -0.108866E-03  0.172E-02    0.12       1.0  T
   5    -83.6483408 -0.335246E-04  0.443E-03    0.12       3.5  T
   6    -83.6483396  0.117259E-05  0.452E-03    0.12       3.4  T
   7    -83.6483415 -0.188065E-05  0.111E-03    0.12      13.9  T
   8    -83.6483416 -0.133770E-06  0.300E-04    0.12      51.5  T
   9    -83.6483416 -0.104551E-07  0.614E-05    0.12     251.3  T
  10    -83.6483416 -0.102318E-09  0.458E-05    0.12     336.6  T
     SCC iter.                  ...        0 min,  0.036 sec
     gradient                   ...        0 min,  0.083 sec
 * total energy  :   -82.8862791 Eh     change       -0.1296742E-03 Eh
   gradient norm :     0.0046330 Eh/α   predicted    -0.9381654E-04 ( -27.65%)
   displ. norm   :     0.2119677 α      lambda       -0.1314672E-03
   maximum displ.:     0.1143353 α      in ANC's #2, #4, #3, ...

........................................................................
.............................. CYCLE   10 ..............................
........................................................................
   1    -83.6478970 -0.836479E+02  0.568E-02    0.12       0.0  T
   2    -83.5983902  0.495067E-01  0.642E-01    0.18       1.0  T
   3    -83.6481165 -0.497263E-01  0.418E-02    0.12       1.0  T
   4    -83.6483135 -0.196935E-03  0.796E-03    0.12       1.9  T
   5    -83.6483066  0.688118E-05  0.105E-02    0.12       1.5  T
   6    -83.6483177 -0.111056E-04  0.398E-03    0.12       3.9  T
   7    -83.6483189 -0.119004E-05  0.120E-03    0.12      12.8  T
   8    -83.6483190 -0.158677E-06  0.326E-04    0.12      47.4  T
   9    -83.6483191 -0.126218E-07  0.520E-05    0.12     296.7  T
  10    -83.6483191 -0.212736E-10  0.433E-05    0.12     356.2  T
     SCC iter.                  ...        0 min,  0.037 sec
     gradient                   ...        0 min,  0.083 sec
 * total energy  :   -82.8863764 Eh     change       -0.9737620E-04 Eh
   gradient norm :     0.0035578 Eh/α   predicted    -0.6868912E-04 ( -29.46%)
   displ. norm   :     0.2171801 α      lambda       -0.1113031E-03
   maximum displ.:     0.1309485 α      in ANC's #2, #3, #4, ...

........................................................................
.............................. CYCLE   11 ..............................
........................................................................
   1    -83.6472237 -0.836472E+02  0.614E-02    0.12       0.0  T
   2    -83.5941340  0.530898E-01  0.666E-01    0.18       1.0  T
   3    -83.6475938 -0.534599E-01  0.315E-02    0.12       1.0  T
   4    -83.6476523 -0.584313E-04  0.201E-02    0.12       1.0  T
   5    -83.6476991 -0.468554E-04  0.363E-03    0.12       4.2  T
   6    -83.6476984  0.679454E-06  0.365E-03    0.12       4.2  T
   7    -83.6476996 -0.116933E-05  0.108E-03    0.12      14.3  T
   8    -83.6476997 -0.130855E-06  0.276E-04    0.12      56.0  T
   9    -83.6476998 -0.928357E-08  0.225E-05    0.12     685.1  T
  10    -83.6476998  0.145192E-09  0.367E-05    0.12     420.5  T
     SCC iter.                  ...        0 min,  0.036 sec
     gradient                   ...        0 min,  0.083 sec
 * total energy  :   -82.8864573 Eh     change       -0.8086095E-04 Eh
   gradient norm :     0.0035703 Eh/α   predicted    -0.5827728E-04 ( -27.93%)
   displ. norm   :     0.2275314 α      lambda       -0.1230846E-03
   maximum displ.:     0.1500563 α      in ANC's #2, #3, #7, ...

........................................................................
.............................. CYCLE   12 ..............................
........................................................................
   1    -83.6481854 -0.836482E+02  0.282E-02    0.12       0.0  T
   2    -83.6304686  0.177168E-01  0.383E-01    0.14       1.0  T
   3    -83.6481925 -0.177239E-01  0.313E-02    0.12       1.0  T
   4    -83.6482060 -0.134744E-04  0.275E-02    0.12       1.0  T
   5    -83.6482843 -0.783850E-04  0.102E-02    0.12       1.5  T
   6    -83.6482929 -0.858033E-05  0.241E-03    0.12       6.4  T
   7    -83.6482934 -0.433395E-06  0.638E-04    0.12      24.2  T
   8    -83.6482934 -0.431590E-07  0.209E-04    0.12      74.0  T
   9    -83.6482934 -0.506466E-08  0.262E-05    0.12     587.9  T
  10    -83.6482934 -0.433005E-10  0.140E-05    0.12    1103.6  T
     SCC iter.                  ...        0 min,  0.035 sec
     gradient                   ...        0 min,  0.083 sec
 * total energy  :   -82.8865314 Eh     change       -0.7413601E-04 Eh
   gradient norm :     0.0048533 Eh/α   predicted    -0.6472988E-04 ( -12.69%)
   displ. norm   :     0.2336263 α      lambda       -0.1106761E-03
   maximum displ.:     0.1547175 α      in ANC's #2, #3, #7, ...

........................................................................
.............................. CYCLE   13 ..............................
........................................................................
   1    -83.6472328 -0.836472E+02  0.408E-02    0.12       0.0  T
   2    -83.6200267  0.272060E-01  0.475E-01    0.15       1.0  T
   3    -83.6473653 -0.273385E-01  0.268E-02    0.12       1.0  T
   4    -83.6474083 -0.430668E-04  0.107E-02    0.12       1.4  T
   5    -83.6474222 -0.138275E-04  0.139E-03    0.12      11.1  T
   6    -83.6474222 -0.546846E-08  0.880E-04    0.12      17.5  T
   7    -83.6474222 -0.426179E-07  0.284E-04    0.12      54.4  T
   8    -83.6474222 -0.768489E-08  0.123E-04    0.12     125.3  T
   9    -83.6474222 -0.174391E-08  0.102E-05    0.12    1505.9  T
     SCC iter.                  ...        0 min,  0.032 sec
     gradient                   ...        0 min,  0.079 sec
 * total energy  :   -82.8866144 Eh     change       -0.8292453E-04 Eh
   gradient norm :     0.0048971 Eh/α   predicted    -0.5836711E-04 ( -29.61%)
   displ. norm   :     0.2458754 α      lambda       -0.1186905E-03
   maximum displ.:     0.1687735 α      in ANC's #2, #3, #7, ...

........................................................................
.............................. CYCLE   14 ..............................
........................................................................
   1    -83.6476868 -0.836477E+02  0.129E-02    0.12       0.0  T
   2    -83.6475699  0.116913E-03  0.385E-02    0.12       1.0  T
   3    -83.6471525  0.417390E-03  0.666E-02    0.12       1.0  T
   4    -83.6476982 -0.545704E-03  0.383E-03    0.12       4.0  T
   5    -83.6476991 -0.825805E-06  0.159E-03    0.12       9.7  T
   6    -83.6476992 -0.103396E-06  0.365E-04    0.12      42.3  T
   7    -83.6476992 -0.371080E-08  0.921E-05    0.12     167.6  T
   8    -83.6476992 -0.305178E-09  0.374E-05    0.12     412.9  T
     SCC iter.                  ...        0 min,  0.029 sec
     gradient                   ...        0 min,  0.079 sec
 * total energy  :   -82.8867106 Eh     change       -0.9625744E-04 Eh
   gradient norm :     0.0051997 Eh/α   predicted    -0.6293807E-04 ( -34.61%)
   displ. norm   :     0.2768915 α      lambda       -0.1282294E-03
   maximum displ.:     0.1961597 α      in ANC's #2, #9, #3, ...

........................................................................
.............................. CYCLE   15 ..............................
........................................................................
   1    -83.6484499 -0.836484E+02  0.202E-02    0.12       0.0  T
   2    -83.6408302  0.761969E-02  0.249E-01    0.13       1.0  T
   3    -83.6484739 -0.764369E-02  0.185E-02    0.12       1.0  T
   4    -83.6484975 -0.236061E-04  0.208E-03    0.12       7.4  T
   5    -83.6484971  0.340247E-06  0.245E-03    0.12       6.3  T
   6    -83.6484975 -0.391882E-06  0.551E-04    0.12      28.0  T
   7    -83.6484975 -0.840240E-08  0.658E-05    0.12     234.6  T
   8    -83.6484975 -0.195257E-10  0.320E-05    0.12     482.5  T
     SCC iter.                  ...        0 min,  0.028 sec
     gradient                   ...        0 min,  0.079 sec
 * total energy  :   -82.8868075 Eh     change       -0.9688294E-04 Eh
   gradient norm :     0.0034924 Eh/α   predicted    -0.6903318E-04 ( -28.75%)
   displ. norm   :     0.2535346 α      lambda       -0.8020872E-04
   maximum displ.:     0.1871243 α      in ANC's #2, #3, #1, ...

........................................................................
.............................. CYCLE   16 ..............................
........................................................................
   1    -83.6485557 -0.836486E+02  0.106E-02    0.12       0.0  T
   2    -83.6469713  0.158435E-02  0.114E-01    0.12       1.0  T
   3    -83.6485449 -0.157360E-02  0.163E-02    0.12       1.0  T
   4    -83.6485674 -0.224288E-04  0.183E-03    0.12       8.4  T
   5    -83.6485672  0.132598E-06  0.173E-03    0.12       8.9  T
   6    -83.6485675 -0.248832E-06  0.317E-04    0.12      48.7  T
   7    -83.6485675 -0.251673E-08  0.930E-05    0.12     166.0  T
   8    -83.6485675 -0.642899E-09  0.261E-05    0.12     591.4  T
     SCC iter.                  ...        0 min,  0.028 sec
     gradient                   ...        0 min,  0.079 sec
 * total energy  :   -82.8868731 Eh     change       -0.6561821E-04 Eh
   gradient norm :     0.0028641 Eh/α   predicted    -0.4268458E-04 ( -34.95%)
   displ. norm   :     0.1905490 α      lambda       -0.6224395E-04
   maximum displ.:     0.1479782 α      in ANC's #2, #3, #1, ...

........................................................................
.............................. CYCLE   17 ..............................
........................................................................
   1    -83.6493692 -0.836494E+02  0.595E-03    0.12       0.0  T
   2    -83.6488248  0.544450E-03  0.665E-02    0.12       1.0  T
   3    -83.6493677 -0.542897E-03  0.736E-03    0.12       2.1  T
   4    -83.6493710 -0.336711E-05  0.379E-03    0.12       4.1  T
   5    -83.6493722 -0.115015E-05  0.174E-03    0.12       8.9  T
   6    -83.6493725 -0.314742E-06  0.192E-04    0.12      80.5  T
   7    -83.6493725 -0.208024E-08  0.845E-05    0.12     182.6  T
     SCC iter.                  ...        0 min,  0.025 sec
     gradient                   ...        0 min,  0.079 sec
 * total energy  :   -82.8869263 Eh     change       -0.5316757E-04 Eh
   gradient norm :     0.0022525 Eh/α   predicted    -0.3225296E-04 ( -39.34%)
   displ. norm   :     0.1899859 α      lambda       -0.5660935E-04
   maximum displ.:     0.1449049 α      in ANC's #2, #1, #3, ...

........................................................................
.............................. CYCLE   18 ..............................
........................................................................
   1    -83.6492605 -0.836493E+02  0.523E-03    0.12       0.0  T
   2    -83.6487021  0.558351E-03  0.681E-02    0.12       1.0  T
   3    -83.6492626 -0.560490E-03  0.357E-03    0.12       4.3  T
   4    -83.6492618  0.864625E-06  0.409E-03    0.12       3.8  T
   5    -83.6492635 -0.171221E-05  0.126E-03    0.12      12.3  T
   6    -83.6492636 -0.151218E-06  0.252E-04    0.12      61.3  T
   7    -83.6492636 -0.388752E-09  0.202E-04    0.12      76.3  T
   8    -83.6492636 -0.475646E-08  0.149E-05    0.12    1035.5  T
   9    -83.6492636 -0.131877E-10  0.413E-06    0.12    3737.5  T
     SCC iter.                  ...        0 min,  0.032 sec
     gradient                   ...        0 min,  0.079 sec
 * total energy  :   -82.8869760 Eh     change       -0.4966867E-04 Eh
   gradient norm :     0.0018897 Eh/α   predicted    -0.2932701E-04 ( -40.95%)
   displ. norm   :     0.2517795 α      lambda       -0.5016747E-04
   maximum displ.:     0.1986811 α      in ANC's #2, #1, #3, ...

........................................................................
.............................. CYCLE   19 ..............................
........................................................................
   1    -83.6500271 -0.836500E+02  0.498E-03    0.12       0.0  T
   2    -83.6495797  0.447395E-03  0.609E-02    0.12       1.0  T
   3    -83.6500259 -0.446207E-03  0.596E-03    0.12       2.6  T
   4    -83.6500289 -0.301172E-05  0.290E-03    0.12       5.3  T
   5    -83.6500293 -0.398883E-06  0.196E-03    0.12       7.9  T
   6    -83.6500297 -0.364459E-06  0.368E-04    0.12      41.9  T
   7    -83.6500297 -0.105577E-07  0.146E-04    0.12     105.6  T
   8    -83.6500297 -0.225855E-08  0.392E-05    0.12     394.1  T
     SCC iter.                  ...        0 min,  0.028 sec
     gradient                   ...        0 min,  0.080 sec
 * total energy  :   -82.8870362 Eh     change       -0.6024506E-04 Eh
   gradient norm :     0.0020935 Eh/α   predicted    -0.2579227E-04 ( -57.19%)
   displ. norm   :     0.1365914 α      lambda       -0.3411493E-04
   maximum displ.:     0.1043653 α      in ANC's #2, #1, #3, ...

........................................................................
.............................. CYCLE   20 ..............................
........................................................................
   1    -83.6494830 -0.836495E+02  0.726E-03    0.12       0.0  T
   2    -83.6483310  0.115203E-02  0.975E-02    0.12       1.0  T
   3    -83.6494890 -0.115802E-02  0.176E-03    0.12       8.8  T
   4    -83.6494890  0.962902E-08  0.175E-03    0.12       8.8  T
   5    -83.6494893 -0.244505E-06  0.354E-04    0.12      43.6  T
   6    -83.6494893 -0.166153E-09  0.188E-04    0.12      82.0  T
   7    -83.6494893 -0.182159E-08  0.951E-05    0.12     162.3  T
     SCC iter.                  ...        0 min,  0.034 sec
     gradient                   ...        0 min,  0.079 sec
 * total energy  :   -82.8870663 Eh     change       -0.3010641E-04 Eh
   gradient norm :     0.0015684 Eh/α   predicted    -0.1737772E-04 ( -42.28%)
   displ. norm   :     0.1582349 α      lambda       -0.2943700E-04
   maximum displ.:     0.1256734 α      in ANC's #2, #1, #3, ...
 * RMSD in coord.:     0.5572562 α      energy gain  -0.2403665E-01 Eh

generating ANC from model Hessian ...
Using Lindh-Hessian (1995)
 Shifting diagonal of input Hessian by   9.751826807967689E-003
 Lowest  eigenvalues of input Hessian
    0.000000    0.000000    0.000000    0.000000    0.000000    0.000000
    0.010000    0.010312    0.010733    0.011292    0.012004    0.012529
    0.012857    0.013974    0.014146    0.014734    0.015871    0.017120
 Highest eigenvalues
    2.043402    2.094535    2.135268    2.262856    2.369790    2.407128
 

........................................................................
.............................. CYCLE   21 ..............................
........................................................................
   1    -83.6497306 -0.836497E+02  0.342E-03    0.12       0.0  T
   2    -83.6495144  0.216246E-03  0.422E-02    0.12       1.0  T
   3    -83.6497315 -0.217115E-03  0.198E-03    0.12       7.8  T
   4    -83.6497317 -0.271798E-06  0.131E-03    0.12      11.8  T
   5    -83.6497318 -0.461195E-07  0.850E-04    0.12      18.1  T
   6    -83.6497319 -0.700038E-07  0.199E-04    0.12      77.5  T
   7    -83.6497319 -0.355661E-08  0.207E-05    0.12     744.3  T
     SCC iter.                  ...        0 min,  0.025 sec
     gradient                   ...        0 min,  0.079 sec
 * total energy  :   -82.8871062 Eh     change       -0.3990424E-04 Eh
   gradient norm :     0.0015247 Eh/α   predicted     0.0000000E+00 (-100.00%)
   displ. norm   :     0.0436953 α      lambda       -0.1207076E-04
   maximum displ.:     0.0359072 α      in ANC's #2, #3, #1, ...

........................................................................
.............................. CYCLE   22 ..............................
........................................................................
   1    -83.6495058 -0.836495E+02  0.337E-03    0.12       0.0  T
   2    -83.6492809  0.224949E-03  0.430E-02    0.12       1.0  T
   3    -83.6495071 -0.226209E-03  0.673E-04    0.12      22.9  T
   4    -83.6495071 -0.486828E-08  0.438E-04    0.12      35.3  T
   5    -83.6495071  0.147745E-07  0.474E-04    0.12      32.6  T
   6    -83.6495071 -0.208700E-07  0.156E-04    0.12      98.8  T
   7    -83.6495071 -0.225532E-08  0.305E-05    0.12     505.9  T
     SCC iter.                  ...        0 min,  0.025 sec
     gradient                   ...        0 min,  0.079 sec
 * total energy  :   -82.8871234 Eh     change       -0.1714854E-04 Eh
   gradient norm :     0.0007879 Eh/α   predicted    -0.6418676E-05 ( -62.57%)
   displ. norm   :     0.1131896 α      lambda       -0.2697880E-04
   maximum displ.:     0.0835727 α      in ANC's #2, #3, #1, ...

........................................................................
.............................. CYCLE   23 ..............................
........................................................................
   1    -83.6492377 -0.836492E+02  0.312E-03    0.12       0.0  T
   2    -83.6491642  0.735582E-04  0.246E-02    0.12       1.0  T
   3    -83.6492382 -0.740618E-04  0.219E-03    0.12       7.0  T
   4    -83.6492382 -0.136676E-07  0.193E-03    0.12       8.0  T
   5    -83.6492385 -0.271592E-06  0.701E-04    0.12      22.0  T
   6    -83.6492385 -0.145582E-07  0.281E-04    0.12      54.9  T
   7    -83.6492385 -0.517001E-08  0.358E-05    0.12     431.1  T
   8    -83.6492385 -0.555644E-10  0.172E-05    0.12     896.8  T
     SCC iter.                  ...        0 min,  0.028 sec
     gradient                   ...        0 min,  0.079 sec
 * total energy  :   -82.8871570 Eh     change       -0.3363923E-04 Eh
   gradient norm :     0.0011626 Eh/α   predicted    -0.1356712E-04 ( -59.67%)
   displ. norm   :     0.1649803 α      lambda       -0.2991133E-04
   maximum displ.:     0.1180657 α      in ANC's #2, #3, #1, ...

........................................................................
.............................. CYCLE   24 ..............................
........................................................................
   1    -83.6489638 -0.836490E+02  0.474E-03    0.12       0.0  T
   2    -83.6488519  0.111951E-03  0.308E-02    0.12       1.0  T
   3    -83.6489344 -0.825128E-04  0.160E-02    0.12       1.0  T
   4    -83.6489632 -0.288375E-04  0.432E-03    0.12       3.6  T
   5    -83.6489652 -0.197454E-05  0.104E-03    0.12      14.9  T
   6    -83.6489653 -0.613287E-07  0.387E-04    0.12      39.8  T
   7    -83.6489653 -0.121479E-07  0.486E-05    0.12     317.5  T
   8    -83.6489653 -0.145832E-09  0.159E-05    0.12     967.7  T
     SCC iter.                  ...        0 min,  0.028 sec
     gradient                   ...        0 min,  0.079 sec
 * total energy  :   -82.8871926 Eh     change       -0.3554353E-04 Eh
   gradient norm :     0.0019185 Eh/α   predicted    -0.1513669E-04 ( -57.41%)
   displ. norm   :     0.1812440 α      lambda       -0.2732318E-04
   maximum displ.:     0.1280798 α      in ANC's #2, #3, #1, ...

........................................................................
.............................. CYCLE   25 ..............................
........................................................................
   1    -83.6487131 -0.836487E+02  0.132E-02    0.12       0.0  T
   2    -83.6455362  0.317688E-02  0.162E-01    0.13       1.0  T
   3    -83.6487167 -0.318048E-02  0.118E-02    0.12       1.3  T
   4    -83.6487303 -0.136016E-04  0.346E-03    0.12       4.5  T
   5    -83.6487316 -0.132119E-05  0.965E-04    0.12      16.0  T
   6    -83.6487316 -0.153866E-07  0.357E-04    0.12      43.2  T
   7    -83.6487316 -0.601958E-08  0.502E-05    0.12     307.6  T
   8    -83.6487316 -0.283364E-10  0.294E-05    0.12     524.2  T
     SCC iter.                  ...        0 min,  0.028 sec
     gradient                   ...        0 min,  0.079 sec
 * total energy  :   -82.8872250 Eh     change       -0.3241856E-04 Eh
   gradient norm :     0.0021253 Eh/α   predicted    -0.1386185E-04 ( -57.24%)
   displ. norm   :     0.1225768 α      lambda       -0.2467506E-04
   maximum displ.:     0.0857459 α      in ANC's #2, #3, #1, ...

........................................................................
.............................. CYCLE   26 ..............................
........................................................................
   1    -83.6487284 -0.836487E+02  0.145E-02    0.12       0.0  T
   2    -83.6444519  0.427656E-02  0.188E-01    0.13       1.0  T
   3    -83.6487478 -0.429593E-02  0.729E-03    0.13       2.1  T
   4    -83.6487524 -0.462982E-05  0.134E-03    0.13      11.5  T
   5    -83.6487526 -0.147746E-06  0.773E-04    0.13      20.0  T
   6    -83.6487526 -0.144279E-07  0.261E-04    0.13      59.1  T
   7    -83.6487526 -0.135100E-08  0.744E-05    0.13     207.5  T
   8    -83.6487526 -0.522419E-09  0.254E-05    0.13     607.0  T
     SCC iter.                  ...        0 min,  0.028 sec
     gradient                   ...        0 min,  0.079 sec
 * total energy  :   -82.8872465 Eh     change       -0.2153453E-04 Eh
   gradient norm :     0.0016105 Eh/α   predicted    -0.1252737E-04 ( -41.83%)
   displ. norm   :     0.2422267 α      lambda       -0.2965335E-04
   maximum displ.:     0.1689664 α      in ANC's #2, #3, #1, ...

........................................................................
.............................. CYCLE   27 ..............................
........................................................................
   1    -83.6485684 -0.836486E+02  0.374E-02    0.13       0.0  T
   2    -83.6235981  0.249703E-01  0.453E-01    0.15       1.0  T
   3    -83.6487230 -0.251249E-01  0.147E-02    0.13       1.1  T
   4    -83.6487348 -0.118174E-04  0.227E-03    0.13       6.8  T
   5    -83.6487350 -0.162424E-06  0.179E-03    0.13       8.6  T
   6    -83.6487351 -0.117867E-06  0.556E-04    0.13      27.7  T
   7    -83.6487351 -0.125038E-08  0.247E-04    0.13      62.4  T
   8    -83.6487351 -0.660414E-08  0.550E-05    0.13     280.7  T
   9    -83.6487351  0.253806E-10  0.476E-05    0.13     323.9  T
     SCC iter.                  ...        0 min,  0.032 sec
     gradient                   ...        0 min,  0.079 sec
 * total energy  :   -82.8872774 Eh     change       -0.3088428E-04 Eh
   gradient norm :     0.0006650 Eh/α   predicted    -0.1521686E-04 ( -50.73%)
   displ. norm   :     0.1066456 α      lambda       -0.9356240E-05
   maximum displ.:     0.0771101 α      in ANC's #2, #3, #1, ...

........................................................................
.............................. CYCLE   28 ..............................
........................................................................
   1    -83.6487763 -0.836488E+02  0.192E-02    0.13       0.0  T
   2    -83.6409850  0.779128E-02  0.253E-01    0.13       1.0  T
   3    -83.6488201 -0.783507E-02  0.460E-03    0.13       3.4  T
   4    -83.6488208 -0.765232E-06  0.172E-03    0.13       9.0  T
   5    -83.6488211 -0.234130E-06  0.101E-03    0.13      15.2  T
   6    -83.6488211 -0.580958E-07  0.378E-04    0.13      40.8  T
   7    -83.6488211 -0.104765E-07  0.914E-05    0.13     168.9  T
   8    -83.6488211 -0.683031E-09  0.475E-05    0.13     325.0  T
     SCC iter.                  ...        0 min,  0.028 sec
     gradient                   ...        0 min,  0.078 sec
 * total energy  :   -82.8872884 Eh     change       -0.1100137E-04 Eh
   gradient norm :     0.0006381 Eh/α   predicted    -0.4703689E-05 ( -57.24%)
   displ. norm   :     0.0751020 α      lambda       -0.8675225E-05
   maximum displ.:     0.0527237 α      in ANC's #2, #11, #6, ...

........................................................................
.............................. CYCLE   29 ..............................
........................................................................
   1    -83.6488917 -0.836489E+02  0.121E-02    0.13       0.0  T
   2    -83.6456118  0.327992E-02  0.164E-01    0.13       1.0  T
   3    -83.6489095 -0.329776E-02  0.201E-03    0.13       7.7  T
   4    -83.6489099 -0.361878E-06  0.837E-04    0.13      18.4  T
   5    -83.6489099 -0.399643E-07  0.631E-04    0.13      24.5  T
   6    -83.6489100 -0.199378E-07  0.274E-04    0.13      56.4  T
   7    -83.6489100 -0.743135E-08  0.663E-05    0.13     232.7  T
   8    -83.6489100 -0.332761E-09  0.362E-05    0.13     426.7  T
     SCC iter.                  ...        0 min,  0.028 sec
     gradient                   ...        0 min,  0.078 sec
 * total energy  :   -82.8872994 Eh     change       -0.1100297E-04 Eh
   gradient norm :     0.0008826 Eh/α   predicted    -0.4348683E-05 ( -60.48%)
   displ. norm   :     0.1145918 α      lambda       -0.1381954E-04
   maximum displ.:     0.0745770 α      in ANC's #2, #11, #6, ...

........................................................................
.............................. CYCLE   30 ..............................
........................................................................
   1    -83.6487756 -0.836488E+02  0.106E-02    0.13       0.0  T
   2    -83.6463832  0.239235E-02  0.140E-01    0.13       1.0  T
   3    -83.6487878 -0.240460E-02  0.484E-03    0.13       3.2  T
   4    -83.6487888 -0.100144E-05  0.263E-03    0.13       5.9  T
   5    -83.6487895 -0.674235E-06  0.713E-04    0.13      21.7  T
   6    -83.6487895 -0.263509E-07  0.406E-04    0.13      38.0  T
   7    -83.6487896 -0.177643E-07  0.880E-05    0.13     175.4  T
   8    -83.6487896 -0.774449E-09  0.243E-05    0.13     634.2  T
     SCC iter.                  ...        0 min,  0.028 sec
     gradient                   ...        0 min,  0.079 sec
 * total energy  :   -82.8873156 Eh     change       -0.1616839E-04 Eh
   gradient norm :     0.0009395 Eh/α   predicted    -0.6951211E-05 ( -57.01%)
   displ. norm   :     0.1307382 α      lambda       -0.1310327E-04
   maximum displ.:     0.0852568 α      in ANC's #2, #11, #1, ...

........................................................................
.............................. CYCLE   31 ..............................
........................................................................
   1    -83.6486214 -0.836486E+02  0.619E-03    0.13       0.0  T
   2    -83.6481662  0.455130E-03  0.611E-02    0.13       1.0  T
   3    -83.6486197 -0.453441E-03  0.852E-03    0.13       1.8  T
   4    -83.6486248 -0.515743E-05  0.196E-03    0.13       7.9  T
   5    -83.6486252 -0.414491E-06  0.381E-04    0.13      40.5  T
   6    -83.6486252 -0.212431E-08  0.121E-04    0.13     127.1  T
   7    -83.6486252 -0.455060E-09  0.319E-05    0.13     484.4  T
     SCC iter.                  ...        0 min,  0.024 sec
     gradient                   ...        0 min,  0.070 sec
 * total energy  :   -82.8873304 Eh     change       -0.1488780E-04 Eh
   gradient norm :     0.0009119 Eh/α   predicted    -0.6601954E-05 ( -55.66%)
   displ. norm   :     0.1080135 α      lambda       -0.1068652E-04
   maximum displ.:     0.0728529 α      in ANC's #2, #11, #1, ...

........................................................................
.............................. CYCLE   32 ..............................
........................................................................
   1    -83.6486684 -0.836487E+02  0.746E-03    0.13       0.0  T
   2    -83.6478696  0.798805E-03  0.817E-02    0.13       1.0  T
   3    -83.6486651 -0.795483E-03  0.956E-03    0.13       1.6  T
   4    -83.6486740 -0.895303E-05  0.112E-03    0.13      13.7  T
   5    -83.6486741 -0.563806E-07  0.689E-04    0.13      22.4  T
   6    -83.6486741 -0.219949E-07  0.299E-04    0.13      51.6  T
   7    -83.6486741 -0.560389E-08  0.110E-04    0.13     140.6  T
   8    -83.6486741 -0.126903E-08  0.145E-05    0.13    1064.4  T
     SCC iter.                  ...        0 min,  0.020 sec
     gradient                   ...        0 min,  0.045 sec
 * total energy  :   -82.8873435 Eh     change       -0.1309483E-04 Eh
   gradient norm :     0.0007825 Eh/α   predicted    -0.5371779E-05 ( -58.98%)
   displ. norm   :     0.0971875 α      lambda       -0.1207349E-04
   maximum displ.:     0.0677128 α      in ANC's #2, #1, #11, ...

........................................................................
.............................. CYCLE   33 ..............................
........................................................................
   1    -83.6488579 -0.836489E+02  0.132E-02    0.13       0.0  T
   2    -83.6452933  0.356456E-02  0.172E-01    0.13       1.0  T
   3    -83.6488780 -0.358468E-02  0.490E-03    0.13       3.1  T
   4    -83.6488773  0.649831E-06  0.412E-03    0.13       3.7  T
   5    -83.6488789 -0.163192E-05  0.179E-03    0.13       8.6  T
   6    -83.6488792 -0.212659E-06  0.907E-04    0.13      17.0  T
   7    -83.6488792 -0.750501E-07  0.236E-04    0.13      65.3  T
   8    -83.6488792 -0.628177E-08  0.183E-05    0.13     843.3  T
   9    -83.6488792 -0.734701E-11  0.541E-06    0.13    2850.6  T
     SCC iter.                  ...        0 min,  0.023 sec
     gradient                   ...        0 min,  0.076 sec
 * total energy  :   -82.8873585 Eh     change       -0.1498736E-04 Eh
   gradient norm :     0.0006641 Eh/α   predicted    -0.6065201E-05 ( -59.53%)
   displ. norm   :     0.0982828 α      lambda       -0.1242303E-04
   maximum displ.:     0.0708650 α      in ANC's #2, #1, #3, ...

........................................................................
.............................. CYCLE   34 ..............................
........................................................................
   1    -83.6489537 -0.836490E+02  0.146E-02    0.13       0.0  T
   2    -83.6444535  0.450022E-02  0.193E-01    0.13       1.0  T
   3    -83.6489785 -0.452502E-02  0.479E-03    0.13       3.2  T
   4    -83.6489777  0.779002E-06  0.473E-03    0.13       3.3  T
   5    -83.6489799 -0.223281E-05  0.201E-03    0.13       7.7  T
   6    -83.6489802 -0.269055E-06  0.103E-03    0.13      15.0  T
   7    -83.6489803 -0.934626E-07  0.266E-04    0.13      58.0  T
   8    -83.6489803 -0.786088E-08  0.251E-05    0.13     614.6  T
   9    -83.6489803 -0.170672E-10  0.916E-06    0.13    1685.0  T
     SCC iter.                  ...        0 min,  0.034 sec
     gradient                   ...        0 min,  0.084 sec
 * total energy  :   -82.8873734 Eh     change       -0.1485817E-04 Eh
   gradient norm :     0.0007239 Eh/α   predicted    -0.6240200E-05 ( -58.00%)
   displ. norm   :     0.0884292 α      lambda       -0.9465905E-05
   maximum displ.:     0.0654058 α      in ANC's #2, #1, #6, ...

........................................................................
.............................. CYCLE   35 ..............................
........................................................................
   1    -83.6489898 -0.836490E+02  0.744E-03    0.13       0.0  T
   2    -83.6477905  0.119931E-02  0.996E-02    0.13       1.0  T
   3    -83.6489958 -0.120535E-02  0.311E-03    0.13       5.0  T
   4    -83.6489956  0.242891E-06  0.313E-03    0.13       4.9  T
   5    -83.6489964 -0.857114E-06  0.168E-03    0.13       9.2  T
   6    -83.6489966 -0.199993E-06  0.841E-04    0.13      18.4  T
   7    -83.6489967 -0.669504E-07  0.215E-04    0.13      71.6  T
   8    -83.6489967 -0.524982E-08  0.172E-05    0.13     899.1  T
   9    -83.6489967 -0.495959E-11  0.851E-06    0.13    1812.5  T
     SCC iter.                  ...        0 min,  0.034 sec
     gradient                   ...        0 min,  0.083 sec
 * total energy  :   -82.8873850 Eh     change       -0.1165564E-04 Eh
   gradient norm :     0.0006898 Eh/α   predicted    -0.4750908E-05 ( -59.24%)
   displ. norm   :     0.0837225 α      lambda       -0.8156244E-05
   maximum displ.:     0.0616762 α      in ANC's #2, #1, #6, ...

........................................................................
.............................. CYCLE   36 ..............................
........................................................................
   1    -83.6489985 -0.836490E+02  0.343E-03    0.13       0.0  T
   2    -83.6487796  0.218912E-03  0.426E-02    0.13       1.0  T
   3    -83.6489997 -0.220155E-03  0.103E-03    0.13      15.0  T
   4    -83.6489996  0.854512E-07  0.125E-03    0.13      12.4  T
   5    -83.6489998 -0.126062E-06  0.604E-04    0.13      25.5  T
   6    -83.6489998 -0.316267E-07  0.308E-04    0.13      50.0  T
   7    -83.6489998 -0.667306E-08  0.126E-04    0.13     122.2  T
   8    -83.6489998 -0.186049E-08  0.104E-05    0.13    1483.1  T
     SCC iter.                  ...        0 min,  0.031 sec
     gradient                   ...        0 min,  0.084 sec
 * total energy  :   -82.8873956 Eh     change       -0.1052730E-04 Eh
   gradient norm :     0.0005656 Eh/α   predicted    -0.4093597E-05 ( -61.11%)
   displ. norm   :     0.0994246 α      lambda       -0.9153021E-05
   maximum displ.:     0.0721461 α      in ANC's #2, #1, #6, ...

........................................................................
.............................. CYCLE   37 ..............................
........................................................................
   1    -83.6489475 -0.836489E+02  0.157E-03    0.13       0.0  T
   2    -83.6489476 -0.946528E-07  0.794E-04    0.13      19.4  T
   3    -83.6489476  0.454756E-07  0.829E-04    0.13      18.6  T
   4    -83.6489463  0.120311E-05  0.326E-03    0.13       4.7  T
   5    -83.6489476 -0.126603E-05  0.384E-04    0.13      40.2  T
   6    -83.6489476  0.580948E-08  0.332E-04    0.13      46.5  T
   7    -83.6489476 -0.116550E-07  0.645E-05    0.13     239.0  T
   8    -83.6489476 -0.431271E-09  0.191E-05    0.13     808.9  T
     SCC iter.                  ...        0 min,  0.031 sec
     gradient                   ...        0 min,  0.084 sec
 * total energy  :   -82.8874076 Eh     change       -0.1197971E-04 Eh
   gradient norm :     0.0004960 Eh/α   predicted    -0.4598236E-05 ( -61.62%)
   displ. norm   :     0.1367725 α      lambda       -0.1131855E-04
   maximum displ.:     0.0982044 α      in ANC's #2, #1, #6, ...

........................................................................
.............................. CYCLE   38 ..............................
........................................................................
   1    -83.6489177 -0.836489E+02  0.187E-03    0.13       0.0  T
   2    -83.6489129  0.473012E-05  0.638E-03    0.13       2.4  T
   3    -83.6489133 -0.336959E-06  0.615E-03    0.13       2.5  T
   4    -83.6489178 -0.456466E-05  0.436E-04    0.13      35.4  T
   5    -83.6489178  0.246801E-07  0.596E-04    0.13      25.9  T
   6    -83.6489178 -0.222137E-07  0.279E-04    0.13      55.3  T
   7    -83.6489178 -0.667947E-08  0.103E-04    0.13     149.4  T
   8    -83.6489179 -0.113721E-08  0.294E-05    0.13     524.5  T
     SCC iter.                  ...        0 min,  0.031 sec
     gradient                   ...        0 min,  0.083 sec
 * total energy  :   -82.8874217 Eh     change       -0.1418003E-04 Eh
   gradient norm :     0.0005484 Eh/α   predicted    -0.5707302E-05 ( -59.75%)
   displ. norm   :     0.1577834 α      lambda       -0.1055761E-04
   maximum displ.:     0.1137537 α      in ANC's #2, #1, #6, ...

........................................................................
.............................. CYCLE   39 ..............................
........................................................................
   1    -83.6488928 -0.836489E+02  0.190E-03    0.13       0.0  T
   2    -83.6488913  0.148079E-05  0.380E-03    0.13       4.1  T
   3    -83.6488820  0.929198E-05  0.948E-03    0.13       1.6  T
   4    -83.6488929 -0.108921E-04  0.917E-04    0.13      16.8  T
   5    -83.6488930 -0.301608E-07  0.382E-04    0.13      40.4  T
   6    -83.6488930 -0.555916E-08  0.180E-04    0.13      85.8  T
   7    -83.6488930 -0.260334E-08  0.513E-05    0.13     300.8  T
     SCC iter.                  ...        0 min,  0.027 sec
     gradient                   ...        0 min,  0.083 sec
 * total energy  :   -82.8874352 Eh     change       -0.1347057E-04 Eh
   gradient norm :     0.0006368 Eh/α   predicted    -0.5339784E-05 ( -60.36%)
   displ. norm   :     0.1776533 α      lambda       -0.1047275E-04
   maximum displ.:     0.1282285 α      in ANC's #2, #1, #5, ...

........................................................................
.............................. CYCLE   40 ..............................
........................................................................
   1    -83.6489592 -0.836490E+02  0.284E-03    0.13       0.0  T
   2    -83.6488676  0.916183E-04  0.275E-02    0.13       1.0  T
   3    -83.6489587 -0.911710E-04  0.308E-03    0.13       5.0  T
   4    -83.6489598 -0.106113E-05  0.758E-04    0.13      20.4  T
   5    -83.6489598 -0.973374E-08  0.502E-04    0.13      30.7  T
   6    -83.6489598 -0.167961E-07  0.219E-04    0.13      70.6  T
   7    -83.6489598 -0.434670E-08  0.654E-05    0.13     235.8  T
   8    -83.6489598 -0.300233E-09  0.366E-05    0.13     421.1  T
     SCC iter.                  ...        0 min,  0.031 sec
     gradient                   ...        0 min,  0.083 sec
 * total energy  :   -82.8874495 Eh     change       -0.1434299E-04 Eh
   gradient norm :     0.0006154 Eh/α   predicted    -0.5312155E-05 ( -62.96%)
   displ. norm   :     0.2319843 α      lambda       -0.1362437E-04
   maximum displ.:     0.1673329 α      in ANC's #2, #1, #5, ...

........................................................................
.............................. CYCLE   41 ..............................
........................................................................
   1    -83.6489645 -0.836490E+02  0.374E-03    0.13       0.0  T
   2    -83.6488007  0.163733E-03  0.368E-02    0.13       1.0  T
   3    -83.6489628 -0.162035E-03  0.492E-03    0.13       3.1  T
   4    -83.6489654 -0.265955E-05  0.158E-03    0.13       9.8  T
   5    -83.6489655 -0.112346E-06  0.735E-04    0.13      21.0  T
   6    -83.6489656 -0.502338E-07  0.131E-04    0.13     117.9  T
   7    -83.6489656 -0.112767E-08  0.365E-05    0.13     422.6  T
     SCC iter.                  ...        0 min,  0.027 sec
     gradient                   ...        0 min,  0.083 sec
 * total energy  :   -82.8874694 Eh     change       -0.1980787E-04 Eh
   gradient norm :     0.0006497 Eh/α   predicted    -0.6976487E-05 ( -64.78%)
   displ. norm   :     0.4329770 α      lambda       -0.2660891E-04
   maximum displ.:     0.3124989 α      in ANC's #2, #1, #5, ...

........................................................................
.............................. CYCLE   42 ..............................
........................................................................
   1    -83.6484748 -0.836485E+02  0.429E-03    0.13       0.0  T
   2    -83.6484595  0.153453E-04  0.116E-02    0.13       1.3  T
   3    -83.6484285  0.309305E-04  0.198E-02    0.13       1.0  T
   4    -83.6484747 -0.461881E-04  0.325E-03    0.13       4.7  T
   5    -83.6484752 -0.449687E-06  0.176E-03    0.13       8.8  T
   6    -83.6484755 -0.319149E-06  0.187E-04    0.13      82.5  T
   7    -83.6484755 -0.542954E-09  0.717E-05    0.13     215.3  T
     SCC iter.                  ...        0 min,  0.027 sec
     gradient                   ...        0 min,  0.082 sec
 * total energy  :   -82.8875056 Eh     change       -0.3626614E-04 Eh
   gradient norm :     0.0013948 Eh/α   predicted    -0.1441432E-04 ( -60.25%)
   displ. norm   :     0.4181685 α      lambda       -0.2714152E-04
   maximum displ.:     0.3034554 α      in ANC's #2, #1, #5, ...
 * RMSD in coord.:     0.4568759 α      energy gain  -0.4393040E-03 Eh

generating ANC from model Hessian ...
Using Lindh-Hessian (1995)
 Shifting diagonal of input Hessian by   9.756039909767920E-003
 Lowest  eigenvalues of input Hessian
    0.000000    0.000000    0.000000    0.000000    0.000000    0.000000
    0.010000    0.010294    0.010873    0.011381    0.011943    0.012763
    0.012858    0.014014    0.014153    0.014673    0.015845    0.017120
 Highest eigenvalues
    2.043469    2.091850    2.135004    2.262044    2.370514    2.407388
 

........................................................................
.............................. CYCLE   43 ..............................
........................................................................
   1    -83.6482639 -0.836483E+02  0.582E-03    0.14       0.0  T
   2    -83.6476771  0.586815E-03  0.697E-02    0.14       1.0  T
   3    -83.6482637 -0.586569E-03  0.605E-03    0.13       2.6  T
   4    -83.6482668 -0.310792E-05  0.321E-03    0.14       4.8  T
   5    -83.6482674 -0.566856E-06  0.185E-03    0.13       8.4  T
   6    -83.6482677 -0.361442E-06  0.260E-04    0.14      59.4  T
   7    -83.6482677 -0.370548E-08  0.933E-05    0.14     165.3  T
   8    -83.6482677  0.136225E-09  0.805E-05    0.14     191.6  T
     SCC iter.                  ...        0 min,  0.031 sec
     gradient                   ...        0 min,  0.083 sec
 * total energy  :   -82.8875390 Eh     change       -0.3338433E-04 Eh
   gradient norm :     0.0018986 Eh/α   predicted     0.0000000E+00 (-100.00%)
   displ. norm   :     0.0364595 α      lambda       -0.1513145E-04
   maximum displ.:     0.0224825 α      in ANC's #2, #7, #13, ...

........................................................................
.............................. CYCLE   44 ..............................
........................................................................
   1    -83.6498003 -0.836498E+02  0.297E-03    0.13       0.0  T
   2    -83.6497384  0.618764E-04  0.226E-02    0.13       1.0  T
   3    -83.6498003 -0.618733E-04  0.273E-03    0.13       5.7  T
   4    -83.6498004 -0.676397E-07  0.234E-03    0.13       6.6  T
   5    -83.6498008 -0.453639E-06  0.715E-04    0.13      21.6  T
   6    -83.6498009 -0.327442E-07  0.169E-04    0.13      91.4  T
   7    -83.6498009 -0.301490E-08  0.137E-05    0.13    1128.9  T
     SCC iter.                  ...        0 min,  0.027 sec
     gradient                   ...        0 min,  0.083 sec
 * total energy  :   -82.8875555 Eh     change       -0.1650907E-04 Eh
   gradient norm :     0.0007693 Eh/α   predicted    -0.7623945E-05 ( -53.82%)
   displ. norm   :     0.0740728 α      lambda       -0.1625785E-04
   maximum displ.:     0.0478987 α      in ANC's #2, #7, #13, ...

........................................................................
.............................. CYCLE   45 ..............................
........................................................................
   1    -83.6503629 -0.836504E+02  0.352E-03    0.13       0.0  T
   2    -83.6501222  0.240721E-03  0.446E-02    0.13       1.0  T
   3    -83.6503625 -0.240346E-03  0.405E-03    0.13       3.8  T
   4    -83.6503643 -0.178770E-05  0.111E-03    0.13      13.9  T
   5    -83.6503644 -0.824430E-07  0.669E-04    0.13      23.1  T
   6    -83.6503644 -0.225530E-07  0.328E-04    0.13      47.1  T
   7    -83.6503644 -0.122814E-07  0.485E-05    0.13     318.2  T
   8    -83.6503644 -0.223793E-09  0.574E-06    0.13    2685.9  T
     SCC iter.                  ...        0 min,  0.031 sec
     gradient                   ...        0 min,  0.083 sec
 * total energy  :   -82.8875736 Eh     change       -0.1808851E-04 Eh
   gradient norm :     0.0010905 Eh/α   predicted    -0.8152375E-05 ( -54.93%)
   displ. norm   :     0.0892956 α      lambda       -0.1301932E-04
   maximum displ.:     0.0608833 α      in ANC's #2, #7, #4, ...

........................................................................
.............................. CYCLE   46 ..............................
........................................................................
   1    -83.6500292 -0.836500E+02  0.475E-03    0.13       0.0  T
   2    -83.6496098  0.419475E-03  0.590E-02    0.13       1.0  T
   3    -83.6500316 -0.421862E-03  0.185E-03    0.13       8.3  T
   4    -83.6500313  0.321373E-06  0.224E-03    0.13       6.9  T
   5    -83.6500318 -0.522862E-06  0.584E-04    0.13      26.4  T
   6    -83.6500318 -0.283693E-07  0.218E-04    0.13      70.8  T
   7    -83.6500318 -0.446025E-08  0.389E-05    0.13     396.8  T
   8    -83.6500318 -0.772502E-10  0.154E-05    0.13    1005.1  T
     SCC iter.                  ...        0 min,  0.030 sec
     gradient                   ...        0 min,  0.083 sec
 * total energy  :   -82.8875877 Eh     change       -0.1408214E-04 Eh
   gradient norm :     0.0010232 Eh/α   predicted    -0.6534610E-05 ( -53.60%)
   displ. norm   :     0.0747044 α      lambda       -0.8259303E-05
   maximum displ.:     0.0547836 α      in ANC's #2, #4, #7, ...

........................................................................
.............................. CYCLE   47 ..............................
........................................................................
   1    -83.6495465 -0.836495E+02  0.306E-03    0.13       0.0  T
   2    -83.6494300  0.116505E-03  0.313E-02    0.13       1.0  T
   3    -83.6495468 -0.116734E-03  0.255E-03    0.13       6.0  T
   4    -83.6495472 -0.403833E-06  0.145E-03    0.13      10.6  T
   5    -83.6495474 -0.209007E-06  0.378E-04    0.13      40.8  T
   6    -83.6495474 -0.728592E-08  0.156E-04    0.13      98.9  T
   7    -83.6495474 -0.236297E-08  0.182E-05    0.13     847.7  T
     SCC iter.                  ...        0 min,  0.027 sec
     gradient                   ...        0 min,  0.083 sec
 * total energy  :   -82.8875972 Eh     change       -0.9476416E-05 Eh
   gradient norm :     0.0007933 Eh/α   predicted    -0.4140348E-05 ( -56.31%)
   displ. norm   :     0.0743746 α      lambda       -0.8101181E-05
   maximum displ.:     0.0556746 α      in ANC's #2, #4, #1, ...

........................................................................
.............................. CYCLE   48 ..............................
........................................................................
   1    -83.6491079 -0.836491E+02  0.719E-03    0.13       0.0  T
   2    -83.6481364  0.971482E-03  0.898E-02    0.13       1.0  T
   3    -83.6491132 -0.976775E-03  0.276E-03    0.13       5.6  T
   4    -83.6491135 -0.331597E-06  0.148E-03    0.13      10.4  T
   5    -83.6491138 -0.229702E-06  0.233E-04    0.13      66.1  T
   6    -83.6491138 -0.467537E-09  0.719E-05    0.13     214.7  T
   7    -83.6491138 -0.724185E-10  0.284E-05    0.13     542.7  T
     SCC iter.                  ...        0 min,  0.026 sec
     gradient                   ...        0 min,  0.083 sec
 * total energy  :   -82.8876070 Eh     change       -0.9840229E-05 Eh
   gradient norm :     0.0006745 Eh/α   predicted    -0.4062619E-05 ( -58.71%)
   displ. norm   :     0.0894862 α      lambda       -0.9530340E-05
   maximum displ.:     0.0674431 α      in ANC's #2, #4, #1, ...

........................................................................
.............................. CYCLE   49 ..............................
........................................................................
   1    -83.6489294 -0.836489E+02  0.717E-03    0.13       0.0  T
   2    -83.6479814  0.947960E-03  0.887E-02    0.13       1.0  T
   3    -83.6489343 -0.952892E-03  0.304E-03    0.13       5.1  T
   4    -83.6489350 -0.701744E-06  0.106E-03    0.13      14.6  T
   5    -83.6489351 -0.919213E-07  0.300E-04    0.13      51.4  T
   6    -83.6489351 -0.675142E-08  0.681E-05    0.13     226.5  T
   7    -83.6489351 -0.683258E-10  0.275E-05    0.13     561.0  T
     SCC iter.                  ...        0 min,  0.026 sec
     gradient                   ...        0 min,  0.083 sec
 * total energy  :   -82.8876187 Eh     change       -0.1166865E-04 Eh
   gradient norm :     0.0008573 Eh/α   predicted    -0.4785617E-05 ( -58.99%)
   displ. norm   :     0.1006872 α      lambda       -0.9346229E-05
   maximum displ.:     0.0762427 α      in ANC's #2, #1, #4, ...

........................................................................
.............................. CYCLE   50 ..............................
........................................................................
   1    -83.6490791 -0.836491E+02  0.733E-03    0.13       0.0  T
   2    -83.6480677  0.101137E-02  0.915E-02    0.13       1.0  T
   3    -83.6490846 -0.101685E-02  0.275E-03    0.13       5.6  T
   4    -83.6490852 -0.589372E-06  0.893E-04    0.13      17.3  T
   5    -83.6490852 -0.419334E-07  0.430E-04    0.13      35.9  T
   6    -83.6490852 -0.173188E-07  0.121E-04    0.13     128.0  T
   7    -83.6490852 -0.796945E-09  0.172E-05    0.13     898.8  T
     SCC iter.                  ...        0 min,  0.026 sec
     gradient                   ...        0 min,  0.084 sec
 * total energy  :   -82.8876303 Eh     change       -0.1164039E-04 Eh
   gradient norm :     0.0008309 Eh/α   predicted    -0.4695633E-05 ( -59.66%)
   displ. norm   :     0.1010354 α      lambda       -0.8506413E-05
   maximum displ.:     0.0770549 α      in ANC's #2, #1, #4, ...

........................................................................
.............................. CYCLE   51 ..............................
........................................................................
   1    -83.6493618 -0.836494E+02  0.597E-03    0.13       0.0  T
   2    -83.6486836  0.678144E-03  0.749E-02    0.14       1.0  T
   3    -83.6493655 -0.681853E-03  0.202E-03    0.13       7.6  T
   4    -83.6493658 -0.355416E-06  0.695E-04    0.13      22.2  T
   5    -83.6493658  0.180672E-07  0.611E-04    0.13      25.2  T
   6    -83.6493659 -0.347718E-07  0.205E-04    0.13      75.4  T
   7    -83.6493659 -0.366840E-08  0.195E-05    0.13     792.3  T
   8    -83.6493659 -0.207052E-10  0.614E-06    0.13    2512.0  T
     SCC iter.                  ...        0 min,  0.028 sec
     gradient                   ...        0 min,  0.083 sec
 * total energy  :   -82.8876412 Eh     change       -0.1089226E-04 Eh
   gradient norm :     0.0007092 Eh/α   predicted    -0.4273229E-05 ( -60.77%)
   displ. norm   :     0.0953365 α      lambda       -0.8236524E-05
   maximum displ.:     0.0724203 α      in ANC's #2, #1, #4, ...

........................................................................
.............................. CYCLE   52 ..............................
........................................................................
   1    -83.6496740 -0.836497E+02  0.246E-03    0.13       0.0  T
   2    -83.6495729  0.101193E-03  0.289E-02    0.13       1.0  T
   3    -83.6496745 -0.101664E-03  0.127E-03    0.13      12.1  T
   4    -83.6496747 -0.150141E-06  0.586E-04    0.13      26.4  T
   5    -83.6496747  0.650118E-08  0.453E-04    0.13      34.1  T
   6    -83.6496747 -0.185876E-07  0.124E-04    0.13     124.3  T
   7    -83.6496747 -0.119117E-08  0.116E-05    0.13    1324.6  T
     SCC iter.                  ...        0 min,  0.024 sec
     gradient                   ...        0 min,  0.064 sec
 * total energy  :   -82.8876524 Eh     change       -0.1120959E-04 Eh
   gradient norm :     0.0006059 Eh/α   predicted    -0.4137209E-05 ( -63.09%)
   displ. norm   :     0.1041281 α      lambda       -0.9753641E-05
   maximum displ.:     0.0776709 α      in ANC's #2, #1, #4, ...

........................................................................
.............................. CYCLE   53 ..............................
........................................................................
   1    -83.6498762 -0.836499E+02  0.259E-03    0.13       0.0  T
   2    -83.6497583  0.117857E-03  0.312E-02    0.14       1.0  T
   3    -83.6498768 -0.118511E-03  0.818E-04    0.13      18.9  T
   4    -83.6498769 -0.476463E-07  0.640E-04    0.13      24.1  T
   5    -83.6498769 -0.121284E-08  0.426E-04    0.13      36.2  T
   6    -83.6498769 -0.161331E-07  0.912E-05    0.13     169.1  T
   7    -83.6498769 -0.764402E-09  0.150E-05    0.13    1031.2  T
     SCC iter.                  ...        0 min,  0.024 sec
     gradient                   ...        0 min,  0.079 sec
 * total energy  :   -82.8876659 Eh     change       -0.1345982E-04 Eh
   gradient norm :     0.0006722 Eh/α   predicted    -0.4904406E-05 ( -63.56%)
   displ. norm   :     0.1357668 α      lambda       -0.1293346E-04
   maximum displ.:     0.0995368 α      in ANC's #2, #1, #4, ...

........................................................................
.............................. CYCLE   54 ..............................
........................................................................
   1    -83.6498757 -0.836499E+02  0.321E-03    0.13       0.0  T
   2    -83.6496939  0.181803E-03  0.387E-02    0.14       1.0  T
   3    -83.6498768 -0.182910E-03  0.531E-04    0.13      29.1  T
   4    -83.6498768 -0.857128E-08  0.501E-04    0.13      30.8  T
   5    -83.6498768 -0.830286E-08  0.216E-04    0.13      71.5  T
   6    -83.6498768 -0.216062E-08  0.120E-04    0.13     128.2  T
   7    -83.6498768 -0.462279E-09  0.326E-05    0.13     473.8  T
     SCC iter.                  ...        0 min,  0.018 sec
     gradient                   ...        0 min,  0.065 sec
 * total energy  :   -82.8876836 Eh     change       -0.1772375E-04 Eh
   gradient norm :     0.0007407 Eh/α   predicted    -0.6524288E-05 ( -63.19%)
   displ. norm   :     0.1699769 α      lambda       -0.1513243E-04
   maximum displ.:     0.1235696 α      in ANC's #2, #1, #4, ...

........................................................................
.............................. CYCLE   55 ..............................
........................................................................
   1    -83.6496898 -0.836497E+02  0.598E-03    0.13       0.0  T
   2    -83.6490040  0.685808E-03  0.753E-02    0.14       1.0  T
   3    -83.6496940 -0.689950E-03  0.764E-04    0.13      20.2  T
   4    -83.6496940 -0.227734E-07  0.335E-04    0.13      46.0  T
   5    -83.6496940 -0.341109E-08  0.159E-04    0.13      97.3  T
   6    -83.6496940  0.616552E-09  0.110E-04    0.13     140.6  T
     SCC iter.                  ...        0 min,  0.021 sec
     gradient                   ...        0 min,  0.083 sec
 * total energy  :   -82.8877038 Eh     change       -0.2021983E-04 Eh
   gradient norm :     0.0007211 Eh/α   predicted    -0.7666086E-05 ( -62.09%)
[...]
C24-C5-N6=122.10               C7-N6-C5=121.53                C8-C7-N6=119.24                N21-C7-N6=121.67               
N21-C7-C8=119.07               C9-C8-C7=109.44                C10-C8-C7=108.16               C10-C8-C9=110.35               
N11-C8-C7=105.78               N11-C8-C9=108.89               N11-C8-C10=114.04              H29-C9-C8=109.23               
H30-C9-C8=109.24               H30-C9-H29=109.86              H31-C9-C8=110.10               H31-C9-H29=109.29              
H31-C9-H30=109.11              H32-C10-C8=110.32              H33-C10-C8=108.43              H33-C10-H32=108.97             
H34-C10-C8=110.52              H34-C10-H32=109.35             H34-C10-H33=109.21             
 
 selected dihedral angles (degree)
 ---------------------------------
C3-O2-C1-H26=176.10           C3-O2-C1-H27=295.85           C3-O2-C1-H28= 56.28           O4-C3-O2-C1=359.95            
C5-C3-O2-C1=180.02            N6-C5-C3-O2=170.87            N6-C5-C3-O4=350.93            C24-C5-C3-O2=352.50           
C24-C5-C3-O4=172.57           C7-N6-C5-C3=179.30            C7-N6-C5-C24=357.70           C8-C7-N6-C5=187.77            
N21-C7-N6-C5=  8.95           C9-C8-C7-N6=338.13            C9-C8-C7-N21=156.98           C10-C8-C7-N6= 98.39           
C10-C8-C7-N21=277.24          N11-C8-C7-N6=220.96           N11-C8-C7-N21= 39.81          H29-C9-C8-C7=180.36           
H29-C9-C8-C10= 61.44          H29-C9-C8-N11=295.55          H30-C9-C8-C7= 60.17           H30-C9-C8-C10=301.26          
H30-C9-C8-N11=175.37          H31-C9-C8-C7=300.38           H31-C9-C8-C10=181.46          H31-C9-C8-N11= 55.57          
H32-C10-C8-C7=187.42          H32-C10-C8-C9=307.11          H32-C10-C8-N11= 70.05         H33-C10-C8-C7=306.69          
H33-C10-C8-C9= 66.38          H33-C10-C8-N11=189.31         H34-C10-C8-C7= 66.36          H34-C10-C8-C9=186.05          
H34-C10-C8-N11=308.99         
           -------------------------------------------------
          |                Final Singlepoint                |
           -------------------------------------------------

          ...................................................
          :                      SETUP                      :
          :.................................................:
          :  # basis functions                 134          :
          :  # atomic orbitals                 134          :
          :  # shells                           84          :
          :  # electrons                       134          :
          :  # halogen bonds                     0          :
          :  max. iterations                   250          :
          :  Hamiltonian                  GFN1-xTB          :
          :  restarted?                      false          :
          :  GBSA solvation                   true          :
          :  PC potential                    false          :
          :  electronic temp.          300.0000000     K    :
          :  accuracy                    1.0000000          :
          :  -> integral cutoff          0.2500000E+02      :
          :  -> integral neglect         0.1000000E-07      :
          :  -> SCF convergence          0.1000000E-05 Eh   :
          :  -> wf. convergence          0.2000000E-04 e    :
          :  Broyden damping             0.4000000          :
          ...................................................

 iter      E             dE          RMSdq      gap      omega  full diag
   1    -83.6499699 -0.836500E+02  0.498E-06    0.14       0.0  T
   2    -83.6499699  0.388127E-09  0.566E-05    0.14     272.4  T
   3    -83.6499699 -0.389662E-09  0.306E-06    0.14    5050.5  T

   *** convergence criteria satisfied after 3 iterations ***

         #    Occupation            Energy/Eh            Energy/eV
      -------------------------------------------------------------
         1        2.0000           -0.8708064             -23.6958
       ...           ...                  ...                  ...
        61        2.0000           -0.4807384             -13.0816
        62        2.0000           -0.4678068             -12.7297
        63        2.0000           -0.4617899             -12.5659
        64        2.0000           -0.4504690             -12.2579
        65        2.0000           -0.4467266             -12.1560
        66        2.0000           -0.4393586             -11.9556
        67        1.8801           -0.4232592             -11.5175 (HOMO)
        68        0.1199           -0.4180292             -11.3752 (LUMO)
        69                         -0.3245265              -8.8308
        70                         -0.3025819              -8.2337
        71                         -0.2768148              -7.5325
        72                         -0.2602810              -7.0826
       ...                                ...                  ...
       134                          0.7473671              20.3369
      -------------------------------------------------------------
                  HL-Gap            0.0052300 Eh            0.1423 eV
             Fermi-level           -0.4206442 Eh          -11.4463 eV

 SCC (total)                   0 d,  0 h,  0 min,  0.130 sec
 SCC setup                      ...        0 min,  0.002 sec (  1.463%)
 Dispersion                     ...        0 min,  0.000 sec (  0.277%)
 classical contributions        ...        0 min,  0.000 sec (  0.091%)
 integral evaluation            ...        0 min,  0.036 sec ( 27.569%)
 iterations                     ...        0 min,  0.012 sec (  9.500%)
 molecular gradient             ...        0 min,  0.078 sec ( 60.294%)
 printout                       ...        0 min,  0.001 sec (  0.752%)

         :::::::::::::::::::::::::::::::::::::::::::::::::::::
         ::                     SUMMARY                     ::
         :::::::::::::::::::::::::::::::::::::::::::::::::::::
         :: total energy             -82.887874315881 Eh    ::
         :: total w/o Gsasa/hb       -82.868145876895 Eh    ::
         :: gradient norm              0.000382688512 Eh/a0 ::
         :: HOMO-LUMO gap              0.142315916879 eV    ::
         ::.................................................::
         :: SCC energy               -83.649969854563 Eh    ::
         :: -> electrostatic           0.380625414063 Eh    ::
         :: -> Gsolv                  -0.061727980081 Eh    ::
         ::    -> Gelec               -0.041999541095 Eh    ::
         ::    -> Gsasa               -0.023810669610 Eh    ::
         ::    -> Ghb                 -0.003542048381 Eh    ::
         ::    -> Gshift               0.007624279005 Eh    ::
         :: repulsion energy           0.789009178368 Eh    ::
         :: dispersion energy         -0.026913639686 Eh    ::
         :: halogen bond corr.         0.000000000000 Eh    ::
         :: add. restraining           0.000000000000 Eh    ::
         :: total charge              -0.000000000000 e     ::
         :::::::::::::::::::::::::::::::::::::::::::::::::::::

           -------------------------------------------------
          |                Property Printout                |
           -------------------------------------------------

    * Orbital Energies and Occupations

         #    Occupation            Energy/Eh            Energy/eV
      -------------------------------------------------------------
         1        2.0000           -0.8708064             -23.6958
       ...           ...                  ...                  ...
        55        2.0000           -0.5126591             -13.9502
        56        2.0000           -0.5091479             -13.8546
        57        2.0000           -0.5048208             -13.7369
        58        2.0000           -0.5000966             -13.6083
        59        2.0000           -0.4904296             -13.3453
        60        2.0000           -0.4881221             -13.2825
        61        2.0000           -0.4807384             -13.0816
        62        2.0000           -0.4678068             -12.7297
        63        2.0000           -0.4617899             -12.5659
        64        2.0000           -0.4504690             -12.2579
        65        2.0000           -0.4467266             -12.1560
        66        2.0000           -0.4393586             -11.9556
        67        1.8801           -0.4232592             -11.5175 (HOMO)
        68        0.1199           -0.4180292             -11.3752 (LUMO)
        69                         -0.3245265              -8.8308
        70                         -0.3025819              -8.2337
        71                         -0.2768148              -7.5325
        72                         -0.2602810              -7.0826
        73                         -0.2494597              -6.7881
        74                         -0.1768960              -4.8136
        75                         -0.1440962              -3.9211
        76                         -0.1394515              -3.7947
        77                         -0.1362304              -3.7070
        78                         -0.1309562              -3.5635
       ...                                ...                  ...
       134                          0.7473671              20.3369
      -------------------------------------------------------------
                  HL-Gap            0.0052300 Eh            0.1423 eV
             Fermi-level           -0.4206442 Eh          -11.4463 eV

  Mulliken/CM5 charges         n(s)   n(p)   n(d)
     1C     0.16277  0.04197   0.981  2.856  0.000
     2O    -0.40075 -0.48488   1.683  4.718  0.000
     3C     0.57839  0.64629   0.963  2.458  0.000
     4O    -0.55542 -0.59946   1.724  4.831  0.000
     5C     0.10385  0.18895   1.076  2.820  0.000
     6N    -0.31938 -0.50694   1.522  3.798  0.000
     7C     0.29643  0.44663   1.032  2.671  0.000
     8C     0.16379  0.20675   1.062  2.774  0.000
     9C    -0.09394 -0.23279   1.024  3.070  0.000
    10C    -0.08717 -0.22660   1.018  3.069  0.000
    11N    -0.34025 -0.69325   1.467  3.874  0.000
    12C     0.41994  0.49626   0.994  2.586  0.000
    13C    -0.07574 -0.21392   1.043  3.033  0.000
    14O    -0.63192 -0.68051   1.745  4.887  0.000
    15C     0.36676  0.49199   1.027  2.607  0.000
    16N    -0.24747 -0.37937   1.556  3.691  0.000
    17N    -0.25264 -0.36277   1.564  3.689  0.000
    18C     0.38590  0.49465   1.006  2.608  0.000
    19C    -0.11041 -0.24780   1.012  3.098  0.000
    20O    -0.34271 -0.39907   1.693  4.650  0.000
    21N    -0.27661 -0.61172   1.444  3.832  0.000
    22C     0.45675  0.55999   1.008  2.535  0.000
    23O    -0.51723 -0.55592   1.725  4.792  0.000
    24C     0.33251  0.38017   1.045  2.623  0.000
    25O    -0.50392 -0.54391   1.734  4.770  0.000
    26H     0.05793  0.11830   0.942  0.000  0.000
    27H     0.05534  0.11670   0.945  0.000  0.000
    28H     0.05567  0.11782   0.944  0.000  0.000
    29H     0.06196  0.11788   0.938  0.000  0.000
    30H     0.05876  0.11713   0.941  0.000  0.000
    31H     0.05595  0.11402   0.944  0.000  0.000
    32H     0.07119  0.13138   0.929  0.000  0.000
    33H     0.04571  0.10119   0.954  0.000  0.000
    34H     0.05607  0.11694   0.944  0.000  0.000
    35H     0.25816  0.46133   0.742  0.000  0.000
    36H     0.07621  0.13531   0.924  0.000  0.000
    37H     0.07167  0.12940   0.928  0.000  0.000
    38H     0.05676  0.11499   0.943  0.000  0.000
    39H     0.08078  0.13523   0.919  0.000  0.000
    40H     0.07133  0.12710   0.929  0.000  0.000
    41H     0.08032  0.13484   0.920  0.000  0.000
    42H     0.27468  0.49568   0.725  0.000  0.000

Wiberg/Mayer (AO) data.
largest (>0.10) Wiberg bond orders for each atom

 ---------------------------------------------------------------------------
     #   Z sym  total        # sym  WBO       # sym  WBO       # sym  WBO
 ---------------------------------------------------------------------------
     1   6 C    3.866 --    26 H    0.986    28 H    0.978    27 H    0.978
                             2 O    0.893
     2   8 O    2.208 --     3 C    1.129     1 C    0.893     4 O    0.140
     3   6 C    3.847 --     4 O    1.653     2 O    1.129     5 C    0.993
     4   8 O    1.902 --     3 C    1.653     2 O    0.140
     5   6 C    3.786 --     6 N    1.399    24 C    1.107     3 C    0.993
     6   7 N    3.006 --     5 C    1.399     7 C    1.380
     7   6 C    3.883 --     6 N    1.380    21 N    1.253     8 C    0.974
     8   6 C    3.931 --     7 C    0.974    10 C    0.964    11 N    0.963
                             9 C    0.952
     9   6 C    3.974 --    31 H    0.984    29 H    0.983    30 H    0.979
                             8 C    0.952
    10   6 C    3.980 --    33 H    0.985    34 H    0.983    32 H    0.976
                             8 C    0.964
    11   7 N    3.273 --     8 C    0.963    12 C    0.912    35 H    0.904
                            14 O    0.164
    12   6 C    3.889 --    14 O    1.268    11 N    0.912    15 C    0.841
                            13 C    0.793
    13   6 C    3.843 --    38 H    0.987    37 H    0.982    36 H    0.978
                            12 C    0.793
    14   8 O    1.628 --    12 C    1.268    11 N    0.164
    15   6 C    3.800 --    16 N    1.635    20 O    1.086    12 C    0.841
    16   7 N    3.086 --    15 C    1.635    17 N    1.157
    17   7 N    2.982 --    18 C    1.637    16 N    1.157
    18   6 C    3.859 --    17 N    1.637    20 O    1.052    19 C    1.031
    19   6 C    3.984 --    18 C    1.031    40 H    0.982    41 H    0.964
                            39 H    0.962
    20   8 O    2.325 --    15 C    1.086    18 C    1.052
    21   7 N    3.475 --     7 C    1.253    22 C    1.102    42 H    0.811
                            23 O    0.105
    22   6 C    3.854 --    23 O    1.677    21 N    1.102    24 C    0.935
    23   8 O    1.918 --    22 C    1.677    21 N    0.105
    24   6 C    3.860 --    25 O    1.670     5 C    1.107    22 C    0.935
    25   8 O    1.833 --    24 C    1.670
    26   1 H    1.010 --     1 C    0.986
    27   1 H    1.005 --     1 C    0.978
    28   1 H    1.005 --     1 C    0.978
    29   1 H    0.999 --     9 C    0.983
    30   1 H    1.007 --     9 C    0.979
    31   1 H    1.000 --     9 C    0.984
    32   1 H    1.013 --    10 C    0.976
    33   1 H    1.001 --    10 C    0.985
    34   1 H    1.007 --    10 C    0.983
    35   1 H    0.937 --    11 N    0.904
    36   1 H    1.001 --    13 C    0.978
    37   1 H    0.996 --    13 C    0.982
    38   1 H    0.996 --    13 C    0.987
    39   1 H    0.997 --    19 C    0.962
    40   1 H    0.997 --    19 C    0.982
    41   1 H    0.996 --    19 C    0.964
    42   1 H    0.957 --    21 N    0.811
 ---------------------------------------------------------------------------

Topologies differ in total number of bonds
Writing topology from bond orders to xtbtopo.mol

 dipole moment from electron density (au)
     X       Y       Z   
  -3.1488  -2.8701  -1.0319  total (Debye):   11.142

           -------------------------------------------------
          |                Geometry Summary                 |
           -------------------------------------------------

      molecular mass/u    :      351.3152409
   center of mass at/Å    :        0.2376268       0.3622950      -0.0965212
  moments of inertia/u·Å² :        0.1136425E+04   0.4209606E+04   0.5083595E+04
rotational constants/cm⁻¹ :        0.1483392E-01   0.4004563E-02   0.3316085E-02

 * 36 selected distances

     #   Z          #   Z                                           value/Å
     1   6 C        2   8 O                                       1.4307722
     2   8 O        3   6 C                                       1.3261201
     3   6 C        4   8 O                                       1.2103988
     5   6 C        6   7 N                                       1.3299509
     6   7 N        7   6 C                                       1.3165790
     8   6 C        9   6 C                                       1.5385371 (max)
     8   6 C       10   6 C                                       1.5348642
     8   6 C       11   7 N                                       1.4411101
    11   7 N       12   6 C                                       1.4676966
    12   6 C       14   8 O                                       1.2769796
    15   6 C       16   7 N                                       1.2927086
    17   7 N       18   6 C                                       1.2936121
    18   6 C       19   6 C                                       1.4790649
    15   6 C       20   8 O                                       1.3376043
    18   6 C       20   8 O                                       1.3495095
     7   6 C       21   7 N                                       1.3452611
    21   7 N       22   6 C                                       1.3856654
    22   6 C       23   8 O                                       1.2109574
    24   6 C       25   8 O                                       1.2206840
     1   6 C       26   1 H                                       1.0879468
     1   6 C       27   1 H                                       1.0923154
     1   6 C       28   1 H                                       1.0922289
     9   6 C       29   1 H                                       1.0874006
     9   6 C       30   1 H                                       1.0887128
     9   6 C       31   1 H                                       1.0878763
    10   6 C       32   1 H                                       1.0872000
    10   6 C       33   1 H                                       1.0895225
    10   6 C       34   1 H                                       1.0882238
    11   7 N       35   1 H                                       1.0065445 (min)
    13   6 C       36   1 H                                       1.0861049
    13   6 C       37   1 H                                       1.0853951
    13   6 C       38   1 H                                       1.0845017
    19   6 C       39   1 H                                       1.0898737
    19   6 C       40   1 H                                       1.0875278
    19   6 C       41   1 H                                       1.0898383
    21   7 N       42   1 H                                       1.0348536

 * 5 distinct bonds (by element types)

   Z      Z             #   av. dist./Å        max./Å        min./Å
   1 H    6 C          15     1.0883112     1.0923154     1.0845017
   6 C    6 C           3     1.5174887     1.5385371     1.4790649
   1 H    7 N           2     1.0206990     1.0348536     1.0065445
   6 C    7 N           8     1.3590730     1.4676966     1.2927086
   6 C    8 O           8     1.2953782     1.4307722     1.2103988


optimized geometry written to: xtbopt.xyz


           -------------------------------------------------
          | TOTAL ENERGY              -82.887874315881 Eh   |
          | GRADIENT NORM               0.000382688512 Eh/α |
          | HOMO-LUMO GAP               0.142315916879 eV   |
           -------------------------------------------------

------------------------------------------------------------------------
 * finished run on 2023/06/21 at 17:44:03.369     
------------------------------------------------------------------------
 total:
 * wall-time:     0 d,  0 h,  0 min, 10.704 sec
 *  cpu-time:     0 d,  0 h,  0 min, 10.513 sec
 * ratio c/w:     0.982 speedup
 SCF:
 * wall-time:     0 d,  0 h,  0 min,  0.210 sec
 *  cpu-time:     0 d,  0 h,  0 min,  0.196 sec
 * ratio c/w:     0.934 speedup
 ANC optimizer:
 * wall-time:     0 d,  0 h,  0 min, 10.378 sec
 *  cpu-time:     0 d,  0 h,  0 min, 10.264 sec
 * ratio c/w:     0.989 speedup

