      -----------------------------------------------------------      
     |                   =====================                   |     
     |                           x T B                           |     
     |                   =====================                   |     
     |                         S. Grimme                         |     
     |          Mulliken Center for Theoretical Chemistry        |     
     |                    University of Bonn                     |     
      -----------------------------------------------------------      

   * xtb version 6.5.1 (579679a) compiled by 'ehlert@majestix' on 2022-07-11

   xtb is free software: you can redistribute it and/or modify it under
   the terms of the GNU Lesser General Public License as published by
   the Free Software Foundation, either version 3 of the License, or
   (at your option) any later version.
   
   xtb is distributed in the hope that it will be useful,
   but WITHOUT ANY WARRANTY; without even the implied warranty of
   MERCHANTABILITY or FITNESS FOR A PARTICULAR PURPOSE.  See the
   GNU Lesser General Public License for more details.
   
   Cite this work as:
   * C. Bannwarth, E. Caldeweyher, S. Ehlert, A. Hansen, P. Pracht,
     J. Seibert, S. Spicher, S. Grimme, WIREs Comput. Mol. Sci., 2020, 11,
     e01493. DOI: 10.1002/wcms.1493
   
   for GFN2-xTB:
   * C. Bannwarth, S. Ehlert and S. Grimme., J. Chem. Theory Comput., 2019,
     15, 1652-1671. DOI: 10.1021/acs.jctc.8b01176
   for GFN1-xTB:
   * S. Grimme, C. Bannwarth, P. Shushkov, J. Chem. Theory Comput., 2017,
     13, 1989-2009. DOI: 10.1021/acs.jctc.7b00118
   for GFN0-xTB:
   * P. Pracht, E. Caldeweyher, S. Ehlert, S. Grimme, ChemRxiv, 2019, preprint.
     DOI: 10.26434/chemrxiv.8326202.v1
   for GFN-FF:
   * S. Spicher and S. Grimme, Angew. Chem. Int. Ed., 2020, 59, 15665-15673.
     DOI: 10.1002/anie.202004239
   
   for ALPB and GBSA implicit solvation:
   * S. Ehlert, M. Stahn, S. Spicher, S. Grimme, J. Chem. Theory Comput.,
     2021, 17, 4250-4261. DOI: 10.1021/acs.jctc.1c00471
   
   for DFT-D4:
   * E. Caldeweyher, C. Bannwarth and S. Grimme, J. Chem. Phys., 2017,
     147, 034112. DOI: 10.1063/1.4993215
   * E. Caldeweyher, S. Ehlert, A. Hansen, H. Neugebauer, S. Spicher,
     C. Bannwarth and S. Grimme, J. Chem. Phys., 2019, 150, 154122.
     DOI: 10.1063/1.5090222
   * E. Caldeweyher, J.-M. Mewes, S. Ehlert and S. Grimme, Phys. Chem. Chem. Phys.
     2020, 22, 8499-8512. DOI: 10.1039/D0CP00502A
   
   for sTDA-xTB:
   * S. Grimme and C. Bannwarth, J. Chem. Phys., 2016, 145, 054103.
     DOI: 10.1063/1.4959605
   
   in the mass-spec context:
   * V. Asgeirsson, C. Bauer and S. Grimme, Chem. Sci., 2017, 8, 4879.
     DOI: 10.1039/c7sc00601b
   * J. Koopman and S. Grimme, ACS Omega 2019, 4, 12, 15120-15133.
     DOI: 10.1021/acsomega.9b02011
   
   for metadynamics refer to:
   * S. Grimme, J. Chem. Theory Comput., 2019, 155, 2847-2862
     DOI: 10.1021/acs.jctc.9b00143
   
   for SPH calculations refer to:
   * S. Spicher and S. Grimme, J. Chem. Theory Comput., 2021, 17, 1701-1714
     DOI: 10.1021/acs.jctc.0c01306
   
   with help from (in alphabetical order)
   P. Atkinson, C. Bannwarth, F. Bohle, G. Brandenburg, E. Caldeweyher
   M. Checinski, S. Dohm, S. Ehlert, S. Ehrlich, I. Gerasimov, C. Hölzer
   A. Katbashev, J. Koopman, C. Lavigne, S. Lehtola, F. März, M. Müller,
   F. Musil, H. Neugebauer, J. Pisarek, C. Plett, P. Pracht, F. Pultar,
   J. Seibert, P. Shushkov, S. Spicher, M. Stahn, M. Steiner, T. Strunk,
   J. Stückrath, T. Rose, and J. Unsleber
   
 * started run on 2023/06/20 at 18:00:56.085     

           -------------------------------------------------
          |                Calculation Setup                |
           -------------------------------------------------

          program call               : /lustre/hpc/kemi/ree/PhD/git/ReactivityQM/dep/xtb-6.5.1/bin/xtb --gfn 1 /lustre/hpc/kemi/ree/PhD/git/ReactivityQM/calculations/R02deprot/reac01prodE13/conf01/R02deprot_reac01prodE13_conf01_gfn1.xyz --opt --vfukui --chrg -2 --uhf 0 --alpb DMSO
          hostname                   : node308
          coordinate file            : /lustre/hpc/kemi/ree/PhD/git/ReactivityQM/calculations/R02deprot/reac01prodE13/conf01/R02deprot_reac01prodE13_conf01_gfn1.xyz
          omp threads                :                     1

   ID    Z sym.   atoms
    1    6 C      1, 3, 5, 6, 8, 10, 12-15, 17, 19, 22, 23
    2    8 O      2, 4, 7, 9, 18, 24
    3    7 N      11, 16, 20, 21, 25
    4    1 H      26-42

           -------------------------------------------------
          |                 G F N 1 - x T B                 |
           -------------------------------------------------

        Reference                      10.1021/acs.jctc.7b00118
      * Hamiltonian:
        H0-scaling (s, p, d)           1.850000    2.250000    2.000000
        zeta-weighting                 0.000000
      * Dispersion:
        s8                             2.400000
        a1                             0.630000
        a2                             5.000000
        s9                             0.000000
      * Repulsion:
        kExp                           1.500000
        rExp                           1.000000
      * Coulomb:
        alpha                          2.000000
        third order                    atomic
        anisotropic                    false
      * Halogen bond correction:
        rad-scale                      1.300000
        damping                        0.440000

      * Solvation model:               ALPB
        Solvent                        DMSO
        Parameter file                 internal GFN1-xTB/ALPB
        Dielectric constant                4.6680E+01
        Reference state                gsolv [1 M gas/solution]
        Free energy shift                  7.6243E-03 Eh       4.7843E+00 kcal/mol
        Temperature                        2.9815E+02 K
        Density                            1.1000E+00 kg/L
        Solvent mass                       7.8130E+01 g/mol
        Interaction kernel             P16
        Born radius scaling (c1)           1.7672E+00
        Born radii integrator          GBOBC
        Born offset                        0.0000E+00 a0       0.0000E+00 AA
        H-bond correction              true
        Ion screening                  false
        Surface tension                    1.0000E-05 Eh       1.5569E+01 dyn/cm
        Grid points                               230 per atom

          ...................................................
          :                      SETUP                      :
          :.................................................:
          :  # basis functions                 134          :
          :  # atomic orbitals                 134          :
          :  # shells                           84          :
          :  # electrons                       136          :
          :  # halogen bonds                     0          :
          :  max. iterations                   250          :
          :  Hamiltonian                  GFN1-xTB          :
          :  restarted?                      false          :
          :  GBSA solvation                   true          :
          :  PC potential                    false          :
          :  electronic temp.          300.0000000     K    :
          :  accuracy                    1.0000000          :
          :  -> integral cutoff          0.2500000E+02      :
          :  -> integral neglect         0.1000000E-07      :
          :  -> SCF convergence          0.1000000E-05 Eh   :
          :  -> wf. convergence          0.2000000E-04 e    :
          :  Broyden damping             0.4000000          :
          ...................................................

 iter      E             dE          RMSdq      gap      omega  full diag
   1    -84.0250254 -0.840250E+02  0.871E+00    0.46       0.0  T
   2    -84.0415613 -0.165360E-01  0.539E+00    1.36       1.0  T
   3    -84.0057183  0.358430E-01  0.286E+00    0.91       1.0  T
   4    -84.2041400 -0.198422E+00  0.114E+00    1.36       1.0  T
   5    -84.2390607 -0.349206E-01  0.654E-01    0.34       1.0  T
   6    -84.0689468  0.170114E+00  0.140E+00    1.36       1.0  T
   7    -84.1427532 -0.738064E-01  0.101E+00    0.14       1.0  T
   8    -84.2353572 -0.926039E-01  0.681E-01    0.51       1.0  T
   9    -84.2387711 -0.341392E-02  0.638E-01    0.31       1.0  T
  10    -84.2932238 -0.544527E-01  0.638E-02    0.04       1.0  T
  11    -84.2116963  0.815275E-01  0.745E-01    0.07       1.0  T
  12    -84.2465240 -0.348277E-01  0.575E-01    0.19       1.0  T
  13    -84.2783833 -0.318592E-01  0.322E-01    0.01       1.0  T
  14    -84.2726626  0.572067E-02  0.379E-01    0.10       1.0  T
  15    -84.2901790 -0.175164E-01  0.155E-01    0.01       1.0  T
  16    -84.2907306 -0.551603E-03  0.143E-01    0.05       1.0  T
  17    -84.2935267 -0.279610E-02  0.382E-02    0.03       1.0  T
  18    -84.2935694 -0.426889E-04  0.343E-02    0.04       1.0  T
  19    -84.2937399 -0.170529E-03  0.434E-03    0.03       3.6  T
  20    -84.2937333  0.656626E-05  0.797E-03    0.03       1.9  T
  21    -84.2937425 -0.915999E-05  0.119E-03    0.03      13.0  T
  22    -84.2937426 -0.927667E-07  0.877E-04    0.03      17.6  T
  23    -84.2937427 -0.111617E-06  0.118E-04    0.03     131.0  T
  24    -84.2937427 -0.204160E-08  0.797E-06    0.03    1936.8  T

   *** convergence criteria satisfied after 24 iterations ***

         #    Occupation            Energy/Eh            Energy/eV
      -------------------------------------------------------------
         1        2.0000           -0.7940878             -21.6082
       ...           ...                  ...                  ...
        62        2.0000           -0.3917102             -10.6590
        63        2.0000           -0.3852369             -10.4828
        64        2.0000           -0.3827013             -10.4138
        65        2.0000           -0.3763378             -10.2407
        66        2.0000           -0.3645603              -9.9202
        67        2.0000           -0.3466947              -9.4340
        68        1.3077           -0.2514642              -6.8427 (HOMO)
        69        0.6923           -0.2502555              -6.8098 (LUMO)
        70                         -0.2064486              -5.6178
        71                         -0.2042113              -5.5569
        72                         -0.1631289              -4.4390
        73                         -0.1324286              -3.6036
       ...                                ...                  ...
       134                          0.7446339              20.2625
      -------------------------------------------------------------
                  HL-Gap            0.0012086 Eh            0.0329 eV
             Fermi-level           -0.2508598 Eh           -6.8262 eV

 SCC (total)                   0 d,  0 h,  0 min,  0.269 sec
 SCC setup                      ...        0 min,  0.002 sec (  0.821%)
 Dispersion                     ...        0 min,  0.000 sec (  0.164%)
 classical contributions        ...        0 min,  0.000 sec (  0.052%)
 integral evaluation            ...        0 min,  0.074 sec ( 27.674%)
 iterations                     ...        0 min,  0.110 sec ( 41.092%)
 molecular gradient             ...        0 min,  0.080 sec ( 29.763%)
 printout                       ...        0 min,  0.001 sec (  0.411%)

         :::::::::::::::::::::::::::::::::::::::::::::::::::::
         ::                     SUMMARY                     ::
         :::::::::::::::::::::::::::::::::::::::::::::::::::::
         :: total energy             -83.573892399565 Eh    ::
         :: total w/o Gsasa/hb       -83.551915649488 Eh    ::
         :: gradient norm              0.155949210491 Eh/a0 ::
         :: HOMO-LUMO gap              0.032888735672 eV    ::
         ::.................................................::
         :: SCC energy               -84.293742682006 Eh    ::
         :: -> electrostatic           0.629690934383 Eh    ::
         :: -> Gsolv                  -0.258682932796 Eh    ::
         ::    -> Gelec               -0.236706182719 Eh    ::
         ::    -> Gsasa               -0.025612450686 Eh    ::
         ::    -> Ghb                 -0.003988578395 Eh    ::
         ::    -> Gshift               0.007624279005 Eh    ::
         :: repulsion energy           0.744355798178 Eh    ::
         :: dispersion energy         -0.024505515737 Eh    ::
         :: halogen bond corr.         0.000000000000 Eh    ::
         :: add. restraining           0.000000000000 Eh    ::
         :: total charge              -2.000000000000 e     ::
         :::::::::::::::::::::::::::::::::::::::::::::::::::::

      ----------------------------------------------------------- 
     |                   =====================                   |
     |                        A N C O P T                        |
     |                   =====================                   |
     |               Approximate Normal Coordinate               |
     |                Rational Function Optimizer                |
      ----------------------------------------------------------- 

          ...................................................
          :                      SETUP                      :
          :.................................................:
          :   optimization level            normal          :
          :   max. optcycles                   200          :
          :   ANC micro-cycles                  20          :
          :   degrees of freedom               120          :
          :.................................................:
          :   RF solver                   davidson          :
          :   write xtbopt.log                true          :
          :   linear?                        false          :
          :   energy convergence         0.5000000E-05 Eh   :
          :   grad. convergence          0.1000000E-02 Eh/α :
          :   maximium RF displ.         1.0000000          :
          :   Hlow (freq-cutoff)         0.1000000E-01      :
          :   Hmax (freq-cutoff)         5.0000000          :
          :   S6 in model hess.         20.0000000          :
          ...................................................

generating ANC from model Hessian ...
Using Lindh-Hessian (1995)
 Shifting diagonal of input Hessian by   9.854708477027881E-003
 Lowest  eigenvalues of input Hessian
    0.000000    0.000000    0.000000    0.000000    0.000000    0.000000
    0.010000    0.010193    0.010662    0.010915    0.011180    0.011728
    0.012150    0.013074    0.014181    0.014709    0.015195    0.015499
 Highest eigenvalues
    1.971614    2.027515    2.045486    2.135483    2.225168    2.307388
 

........................................................................
.............................. CYCLE    1 ..............................
........................................................................
   1    -84.2937427 -0.842937E+02  0.553E-06    0.03       0.0  T
   2    -84.2937427  0.171640E-08  0.108E-04    0.03     143.0  T
   3    -84.2937427 -0.172103E-08  0.969E-08    0.03  100000.0  T
     SCC iter.                  ...        0 min,  0.012 sec
     gradient                   ...        0 min,  0.079 sec
 * total energy  :   -83.5738924 Eh     change       -0.9038104E-11 Eh
   gradient norm :     0.1559495 Eh/α   predicted     0.0000000E+00 (-100.00%)
   displ. norm   :     0.2731184 α      lambda       -0.1891425E-01
   maximum displ.:     0.1073940 α      in ANC's #31, #23, #32, ...

........................................................................
.............................. CYCLE    2 ..............................
........................................................................
   1    -84.2902606 -0.842903E+02  0.261E-01    0.07       0.0  T
   2    -84.0976401  0.192621E+00  0.124E+00    0.56       1.0  T
   3    -84.2889681 -0.191328E+00  0.258E-01    0.01       1.0  T
   4    -84.2744324  0.145357E-01  0.411E-01    0.11       1.0  T
   5    -84.2962684 -0.218360E-01  0.129E-01    0.02       1.0  T
   6    -84.2980604 -0.179201E-02  0.691E-02    0.04       1.0  T
   7    -84.2983530 -0.292602E-03  0.509E-02    0.03       1.0  T
   8    -84.2987245 -0.371510E-03  0.874E-03    0.04       1.8  T
   9    -84.2987340 -0.951329E-05  0.335E-03    0.03       4.6  T
  10    -84.2987356 -0.159428E-05  0.530E-04    0.03      29.1  T
  11    -84.2987357 -0.386464E-07  0.120E-04    0.03     128.9  T
  12    -84.2987357 -0.204689E-08  0.793E-06    0.03    1945.3  T
     SCC iter.                  ...        0 min,  0.046 sec
     gradient                   ...        0 min,  0.079 sec
 * total energy  :   -83.5874954 Eh     change       -0.1360302E-01 Eh
   gradient norm :     0.0714928 Eh/α   predicted    -0.1016754E-01 ( -25.26%)
   displ. norm   :     0.2949927 α      lambda       -0.7939124E-02
   maximum displ.:     0.1268307 α      in ANC's #23, #20, #32, ...

........................................................................
.............................. CYCLE    3 ..............................
........................................................................
   1    -84.2955642 -0.842956E+02  0.302E-01    0.08       0.0  T
   2    -84.0988483  0.196716E+00  0.129E+00    0.69       1.0  T
   3    -84.2514431 -0.152595E+00  0.623E-01    0.04       1.0  T
   4    -84.2632037 -0.117606E-01  0.566E-01    0.20       1.0  T
   5    -84.2985860 -0.353822E-01  0.253E-01    0.07       1.0  T
   6    -84.2931479  0.543808E-02  0.316E-01    0.01       1.0  T
   7    -84.3069332 -0.137853E-01  0.720E-02    0.05       1.0  T
   8    -84.3076545 -0.721298E-03  0.102E-02    0.03       1.5  T
   9    -84.3076678 -0.132972E-04  0.374E-03    0.04       4.1  T
  10    -84.3076698 -0.196803E-05  0.538E-04    0.04      28.7  T
  11    -84.3076698 -0.374379E-07  0.124E-04    0.04     124.8  T
  12    -84.3076698  0.107777E-07  0.298E-04    0.04      51.8  T
  13    -84.3076698 -0.989951E-08  0.140E-04    0.04     110.5  T
     SCC iter.                  ...        0 min,  0.051 sec
     gradient                   ...        0 min,  0.080 sec
 * total energy  :   -83.5920949 Eh     change       -0.4599484E-02 Eh
   gradient norm :     0.0166448 Eh/α   predicted    -0.4316163E-02 (  -6.16%)
   displ. norm   :     0.1992059 α      lambda       -0.1005883E-02
   maximum displ.:     0.0790152 α      in ANC's #23, #19, #12, ...

........................................................................
.............................. CYCLE    4 ..............................
........................................................................
   1    -84.3068674 -0.843069E+02  0.141E-01    0.06       0.0  T
   2    -84.1129451  0.193922E+00  0.120E+00    0.32       1.0  T
   3    -84.3061098 -0.193165E+00  0.158E-01    0.02       1.0  T
   4    -84.3079998 -0.189002E-02  0.109E-01    0.05       1.0  T
   5    -84.3088824 -0.882579E-03  0.750E-02    0.03       1.0  T
   6    -84.3096845 -0.802113E-03  0.763E-03    0.04       2.0  T
   7    -84.3096815  0.302938E-05  0.871E-03    0.03       1.8  T
   8    -84.3096924 -0.108834E-04  0.646E-04    0.04      23.9  T
   9    -84.3096924 -0.350637E-07  0.418E-04    0.04      37.0  T
  10    -84.3096924 -0.245023E-07  0.529E-05    0.04     291.4  T
  11    -84.3096924 -0.263583E-09  0.305E-05    0.04     506.2  T
     SCC iter.                  ...        0 min,  0.041 sec
     gradient                   ...        0 min,  0.079 sec
 * total energy  :   -83.5928563 Eh     change       -0.7613960E-03 Eh
   gradient norm :     0.0121932 Eh/α   predicted    -0.5229050E-03 ( -31.32%)
   displ. norm   :     0.2868154 α      lambda       -0.8738782E-03
   maximum displ.:     0.1036123 α      in ANC's #19, #12, #11, ...

........................................................................
.............................. CYCLE    5 ..............................
........................................................................
   1    -84.3076238 -0.843076E+02  0.152E-01    0.06       0.0  T
   2    -84.1105694  0.197054E+00  0.122E+00    0.35       1.0  T
   3    -84.3053557 -0.194786E+00  0.197E-01    0.01       1.0  T
   4    -84.3074026 -0.204695E-02  0.158E-01    0.06       1.0  T
   5    -84.3103537 -0.295107E-02  0.636E-02    0.03       1.0  T
   6    -84.3109291 -0.575347E-03  0.756E-03    0.04       2.0  T
   7    -84.3109274  0.169438E-05  0.791E-03    0.04       1.9  T
   8    -84.3109363 -0.890992E-05  0.920E-04    0.04      16.8  T
   9    -84.3109364 -0.895691E-07  0.471E-04    0.04      32.8  T
  10    -84.3109364 -0.311860E-07  0.503E-05    0.04     306.5  T
  11    -84.3109364  0.100471E-09  0.563E-05    0.04     274.2  T
     SCC iter.                  ...        0 min,  0.041 sec
     gradient                   ...        0 min,  0.077 sec
 * total energy  :   -83.5934231 Eh     change       -0.5667706E-03 Eh
   gradient norm :     0.0069834 Eh/α   predicted    -0.4728990E-03 ( -16.56%)
   displ. norm   :     0.1793292 α      lambda       -0.2582919E-03
   maximum displ.:     0.0729935 α      in ANC's #2, #12, #11, ...

........................................................................
.............................. CYCLE    6 ..............................
........................................................................
   1    -84.3110341 -0.843110E+02  0.523E-02    0.04       0.0  T
   2    -84.1901422  0.120892E+00  0.923E-01    0.09       1.0  T
   3    -84.3114124 -0.121270E+00  0.704E-03    0.04       2.2  T
   4    -84.3113909  0.214677E-04  0.134E-02    0.04       1.2  T
   5    -84.3114083 -0.174357E-04  0.684E-03    0.04       2.3  T
   6    -84.3114143 -0.592853E-05  0.334E-04    0.04      46.2  T
   7    -84.3114143 -0.114135E-07  0.103E-04    0.04     149.2  T
   8    -84.3114143 -0.876184E-09  0.490E-05    0.04     315.2  T
     SCC iter.                  ...        0 min,  0.040 sec
     gradient                   ...        0 min,  0.075 sec
 * total energy  :   -83.5936091 Eh     change       -0.1860370E-03 Eh
   gradient norm :     0.0059947 Eh/α   predicted    -0.1333267E-03 ( -28.33%)
   displ. norm   :     0.1860563 α      lambda       -0.1902161E-03
   maximum displ.:     0.0855691 α      in ANC's #2, #12, #11, ...

........................................................................
.............................. CYCLE    7 ..............................
........................................................................
   1    -84.3115697 -0.843116E+02  0.870E-03    0.04       0.0  T
   2    -84.3114643  0.105444E-03  0.270E-02    0.03       1.0  T
   3    -84.3111606  0.303696E-03  0.547E-02    0.04       1.0  T
   4    -84.3115369 -0.376302E-03  0.167E-02    0.04       1.0  T
   5    -84.3115672 -0.302875E-04  0.694E-03    0.04       2.2  T
   6    -84.3115735 -0.633584E-05  0.220E-04    0.04      70.0  T
   7    -84.3115735 -0.229448E-08  0.152E-04    0.04     101.5  T
   8    -84.3115735 -0.310702E-08  0.154E-05    0.04    1003.3  T
     SCC iter.                  ...        0 min,  0.028 sec
     gradient                   ...        0 min,  0.074 sec
 * total energy  :   -83.5937450 Eh     change       -0.1358959E-03 Eh
   gradient norm :     0.0051477 Eh/α   predicted    -0.9840679E-04 ( -27.59%)
   displ. norm   :     0.1801116 α      lambda       -0.1313262E-03
   maximum displ.:     0.0870887 α      in ANC's #2, #1, #3, ...

........................................................................
.............................. CYCLE    8 ..............................
........................................................................
   1    -84.3110418 -0.843110E+02  0.415E-02    0.03       0.0  T
   2    -84.2779014  0.331404E-01  0.488E-01    0.14       1.0  T
   3    -84.3110601 -0.331587E-01  0.414E-02    0.04       1.0  T
   4    -84.3112951 -0.235007E-03  0.241E-03    0.04       6.4  T
   5    -84.3112860  0.916363E-05  0.847E-03    0.04       1.8  T
   6    -84.3112955 -0.954215E-05  0.262E-04    0.04      58.8  T
   7    -84.3112955 -0.153862E-08  0.796E-05    0.04     193.9  T
   8    -84.3112955 -0.281418E-09  0.615E-05    0.04     250.8  T
     SCC iter.                  ...        0 min,  0.028 sec
     gradient                   ...        0 min,  0.074 sec
 * total energy  :   -83.5938417 Eh     change       -0.9665025E-04 Eh
   gradient norm :     0.0037643 Eh/α   predicted    -0.6779358E-04 ( -29.86%)
   displ. norm   :     0.1992410 α      lambda       -0.1134875E-03
   maximum displ.:     0.0961980 α      in ANC's #2, #1, #6, ...

........................................................................
.............................. CYCLE    9 ..............................
........................................................................
   1    -84.3099645 -0.843100E+02  0.723E-02    0.03       0.0  T
   2    -84.2635145  0.464500E-01  0.587E-01    0.22       1.0  T
   3    -84.3092217 -0.457072E-01  0.103E-01    0.05       1.0  T
   4    -84.3100672 -0.845489E-03  0.679E-02    0.03       1.0  T
   5    -84.3106807 -0.613502E-03  0.197E-02    0.04       1.0  T
   6    -84.3107342 -0.535337E-04  0.849E-04    0.04      18.2  T
   7    -84.3107323  0.196652E-05  0.373E-03    0.04       4.1  T
   8    -84.3107341 -0.177528E-05  0.120E-03    0.04      12.8  T
   9    -84.3107343 -0.204558E-06  0.115E-04    0.04     133.7  T
  10    -84.3107343 -0.115989E-09  0.110E-04    0.04     140.7  T
     SCC iter.                  ...        0 min,  0.034 sec
     gradient                   ...        0 min,  0.079 sec
 * total energy  :   -83.5939269 Eh     change       -0.8528977E-04 Eh
   gradient norm :     0.0032184 Eh/α   predicted    -0.5899788E-04 ( -30.83%)
   displ. norm   :     0.2310118 α      lambda       -0.1089741E-03
   maximum displ.:     0.1100711 α      in ANC's #2, #1, #6, ...

........................................................................
.............................. CYCLE   10 ..............................
........................................................................
   1    -84.3089532 -0.843090E+02  0.864E-02    0.03       0.0  T
   2    -84.2597670  0.491862E-01  0.609E-01    0.26       1.0  T
   3    -84.3072626 -0.474956E-01  0.140E-01    0.06       1.0  T
   4    -84.3088672 -0.160459E-02  0.904E-02    0.03       1.0  T
   5    -84.3100371 -0.116987E-02  0.910E-03    0.04       1.7  T
   6    -84.3100481 -0.109481E-04  0.856E-04    0.04      18.0  T
   7    -84.3100462  0.185511E-05  0.362E-03    0.04       4.3  T
   8    -84.3100477 -0.149499E-05  0.160E-03    0.04       9.6  T
   9    -84.3100481 -0.366348E-06  0.951E-05    0.04     162.3  T
  10    -84.3100481  0.266814E-08  0.165E-04    0.04      93.6  T
     SCC iter.                  ...        0 min,  0.034 sec
     gradient                   ...        0 min,  0.079 sec
 * total energy  :   -83.5940092 Eh     change       -0.8227725E-04 Eh
   gradient norm :     0.0044953 Eh/α   predicted    -0.5739734E-04 ( -30.24%)
   displ. norm   :     0.2508715 α      lambda       -0.1047499E-03
   maximum displ.:     0.1190093 α      in ANC's #2, #1, #6, ...

........................................................................
.............................. CYCLE   11 ..............................
........................................................................
   1    -84.3085033 -0.843085E+02  0.823E-02    0.03       0.0  T
   2    -84.2594172  0.490861E-01  0.606E-01    0.25       1.0  T
   3    -84.3072761 -0.478589E-01  0.125E-01    0.05       1.0  T
   4    -84.3084260 -0.114988E-02  0.861E-02    0.03       1.0  T
   5    -84.3094944 -0.106842E-02  0.259E-03    0.04       6.0  T
   6    -84.3094938  0.587468E-06  0.310E-03    0.04       5.0  T
   7    -84.3094949 -0.108470E-05  0.112E-03    0.04      13.8  T
   8    -84.3094949  0.815379E-08  0.112E-03    0.04      13.7  T
   9    -84.3094951 -0.175219E-06  0.198E-04    0.04      78.1  T
  10    -84.3094951 -0.434503E-08  0.939E-05    0.04     164.2  T
     SCC iter.                  ...        0 min,  0.036 sec
     gradient                   ...        0 min,  0.075 sec
 * total energy  :   -83.5940889 Eh     change       -0.7964520E-04 Eh
   gradient norm :     0.0053714 Eh/α   predicted    -0.5567213E-04 ( -30.10%)
   displ. norm   :     0.2555789 α      lambda       -0.1018643E-03
   maximum displ.:     0.1226635 α      in ANC's #2, #1, #6, ...

........................................................................
.............................. CYCLE   12 ..............................
........................................................................
   1    -84.3086734 -0.843087E+02  0.624E-02    0.03       0.0  T
   2    -84.2637808  0.448925E-01  0.572E-01    0.20       1.0  T
   3    -84.3085381 -0.447572E-01  0.704E-02    0.05       1.0  T
   4    -84.3088792 -0.341165E-03  0.501E-02    0.03       1.0  T
   5    -84.3092364 -0.357171E-03  0.655E-03    0.04       2.4  T
   6    -84.3092414 -0.498166E-05  0.254E-03    0.04       6.1  T
   7    -84.3092422 -0.864868E-06  0.262E-04    0.04      58.9  T
   8    -84.3092422  0.252753E-07  0.489E-04    0.04      31.6  T
   9    -84.3092422 -0.242056E-07  0.264E-04    0.04      58.4  T
  10    -84.3092422 -0.992699E-08  0.260E-05    0.04     593.7  T
  11    -84.3092422 -0.509459E-10  0.178E-05    0.04     865.7  T
     SCC iter.                  ...        0 min,  0.038 sec
     gradient                   ...        0 min,  0.074 sec
 * total energy  :   -83.5941668 Eh     change       -0.7790177E-04 Eh
   gradient norm :     0.0047757 Eh/α   predicted    -0.5426212E-04 ( -30.35%)
   displ. norm   :     0.2610118 α      lambda       -0.1043449E-03
   maximum displ.:     0.1320612 α      in ANC's #1, #2, #6, ...

........................................................................
.............................. CYCLE   13 ..............................
........................................................................
   1    -84.3091131 -0.843091E+02  0.376E-02    0.03       0.0  T
   2    -84.2780861  0.310271E-01  0.470E-01    0.13       1.0  T
   3    -84.3092347 -0.311486E-01  0.244E-02    0.04       1.0  T
   4    -84.3093167 -0.820177E-04  0.109E-03    0.04      14.2  T
   5    -84.3093159  0.770685E-06  0.253E-03    0.04       6.1  T
   6    -84.3093164 -0.484401E-06  0.148E-03    0.04      10.5  T
   7    -84.3093167 -0.290163E-06  0.302E-04    0.04      51.0  T
   8    -84.3093167 -0.124978E-07  0.558E-05    0.04     276.4  T
   9    -84.3093167 -0.400618E-09  0.865E-06    0.04    1784.2  T
     SCC iter.                  ...        0 min,  0.031 sec
     gradient                   ...        0 min,  0.074 sec
 * total energy  :   -83.5942459 Eh     change       -0.7917337E-04 Eh
   gradient norm :     0.0034029 Eh/α   predicted    -0.5572883E-04 ( -29.61%)
   displ. norm   :     0.2479969 α      lambda       -0.9563834E-04
   maximum displ.:     0.1353363 α      in ANC's #1, #2, #16, ...

........................................................................
.............................. CYCLE   14 ..............................
........................................................................
   1    -84.3095956 -0.843096E+02  0.126E-02    0.03       0.0  T
   2    -84.3044324  0.516320E-02  0.191E-01    0.06       1.0  T
   3    -84.3096142 -0.518187E-02  0.396E-03    0.04       3.9  T
   4    -84.3096076  0.665345E-05  0.744E-03    0.04       2.1  T
   5    -84.3096146 -0.704201E-05  0.158E-03    0.04       9.8  T
   6    -84.3096149 -0.282883E-06  0.164E-04    0.04      94.0  T
   7    -84.3096149 -0.157398E-08  0.578E-05    0.04     266.8  T
     SCC iter.                  ...        0 min,  0.024 sec
     gradient                   ...        0 min,  0.074 sec
 * total energy  :   -83.5943175 Eh     change       -0.7159310E-04 Eh
   gradient norm :     0.0033923 Eh/α   predicted    -0.5076247E-04 ( -29.10%)
   displ. norm   :     0.2281593 α      lambda       -0.8007525E-04
   maximum displ.:     0.1315213 α      in ANC's #1, #2, #5, ...

........................................................................
.............................. CYCLE   15 ..............................
........................................................................
   1    -84.3099244 -0.843099E+02  0.121E-02    0.04       0.0  T
   2    -84.3033570  0.656732E-02  0.214E-01    0.01       1.0  T
   3    -84.3099325 -0.657543E-02  0.852E-03    0.04       1.8  T
   4    -84.3099380 -0.550663E-05  0.515E-03    0.04       3.0  T
   5    -84.3099407 -0.272544E-05  0.242E-03    0.04       6.4  T
   6    -84.3099415 -0.767928E-06  0.204E-04    0.04      75.5  T
   7    -84.3099415 -0.439258E-08  0.285E-05    0.04     540.8  T
   8    -84.3099415 -0.117950E-10  0.180E-05    0.04     856.4  T
     SCC iter.                  ...        0 min,  0.027 sec
     gradient                   ...        0 min,  0.074 sec
 * total energy  :   -83.5943783 Eh     change       -0.6073968E-04 Eh
   gradient norm :     0.0040206 Eh/α   predicted    -0.4212664E-04 ( -30.64%)
   displ. norm   :     0.2264971 α      lambda       -0.7140095E-04
   maximum displ.:     0.1362791 α      in ANC's #1, #2, #11, ...

........................................................................
.............................. CYCLE   16 ..............................
........................................................................
   1    -84.3101671 -0.843102E+02  0.262E-02    0.04       0.0  T
   2    -84.2691782  0.409889E-01  0.535E-01    0.03       1.0  T
   3    -84.3102629 -0.410847E-01  0.326E-03    0.04       4.7  T
   4    -84.3102637 -0.851345E-06  0.109E-03    0.04      14.2  T
   5    -84.3102638 -0.551438E-07  0.481E-04    0.04      32.0  T
   6    -84.3102638  0.313122E-09  0.952E-05    0.04     162.2  T
   7    -84.3102638 -0.782791E-09  0.237E-05    0.04     652.1  T
     SCC iter.                  ...        0 min,  0.024 sec
     gradient                   ...        0 min,  0.074 sec
 * total energy  :   -83.5944320 Eh     change       -0.5367843E-04 Eh
   gradient norm :     0.0037531 Eh/α   predicted    -0.3753515E-04 ( -30.07%)
   displ. norm   :     0.2103980 α      lambda       -0.5898188E-04
   maximum displ.:     0.1327087 α      in ANC's #1, #2, #11, ...

........................................................................
.............................. CYCLE   17 ..............................
........................................................................
   1    -84.3104395 -0.843104E+02  0.350E-02    0.04       0.0  T
   2    -84.2400299  0.704096E-01  0.702E-01    0.06       1.0  T
   3    -84.3106151 -0.705852E-01  0.441E-03    0.04       3.5  T
   4    -84.3106136  0.147499E-05  0.496E-03    0.04       3.1  T
   5    -84.3106155 -0.187466E-05  0.320E-03    0.04       4.8  T
   6    -84.3106168 -0.134302E-05  0.273E-04    0.04      56.4  T
   7    -84.3106168 -0.896615E-08  0.506E-05    0.04     304.7  T
   8    -84.3106168 -0.265544E-09  0.217E-05    0.04     711.4  T
     SCC iter.                  ...        0 min,  0.028 sec
     gradient                   ...        0 min,  0.075 sec
 * total energy  :   -83.5944771 Eh     change       -0.4519649E-04 Eh
   gradient norm :     0.0026579 Eh/α   predicted    -0.3079965E-04 ( -31.85%)
   displ. norm   :     0.2169841 α      lambda       -0.5335278E-04
   maximum displ.:     0.1408007 α      in ANC's #1, #2, #11, ...

........................................................................
.............................. CYCLE   18 ..............................
........................................................................
   1    -84.3104667 -0.843105E+02  0.278E-02    0.04       0.0  T
   2    -84.2638918  0.465749E-01  0.570E-01    0.04       1.0  T
   3    -84.3105765 -0.466847E-01  0.492E-03    0.04       3.1  T
   4    -84.3105725  0.403270E-05  0.673E-03    0.04       2.3  T
   5    -84.3105761 -0.361781E-05  0.426E-03    0.04       3.6  T
   6    -84.3105785 -0.240202E-05  0.399E-04    0.04      38.7  T
   7    -84.3105785 -0.198092E-07  0.779E-05    0.04     198.2  T
   8    -84.3105785 -0.771607E-09  0.188E-05    0.04     821.4  T
     SCC iter.                  ...        0 min,  0.028 sec
     gradient                   ...        0 min,  0.075 sec
 * total energy  :   -83.5945176 Eh     change       -0.4043352E-04 Eh
   gradient norm :     0.0021872 Eh/α   predicted    -0.2793346E-04 ( -30.92%)
   displ. norm   :     0.1860794 α      lambda       -0.5374905E-04
   maximum displ.:     0.1274466 α      in ANC's #1, #7, #2, ...

........................................................................
.............................. CYCLE   19 ..............................
........................................................................
   1    -84.3119673 -0.843120E+02  0.412E-02    0.04       0.0  T
   2    -84.2205396  0.914277E-01  0.800E-01    0.07       1.0  T
   3    -84.3121957 -0.916561E-01  0.130E-02    0.03       1.2  T
   4    -84.3121939  0.179890E-05  0.129E-02    0.03       1.2  T
   5    -84.3122101 -0.161900E-04  0.683E-03    0.04       2.3  T
   6    -84.3122163 -0.614754E-05  0.232E-04    0.04      66.4  T
   7    -84.3122163 -0.647866E-08  0.622E-05    0.04     247.9  T
   8    -84.3122163 -0.469640E-09  0.109E-05    0.04    1417.2  T
     SCC iter.                  ...        0 min,  0.028 sec
     gradient                   ...        0 min,  0.075 sec
 * total energy  :   -83.5945458 Eh     change       -0.2819522E-04 Eh
   gradient norm :     0.0032480 Eh/α   predicted    -0.2780626E-04 (  -1.38%)
   displ. norm   :     0.2570269 α      lambda       -0.6547228E-04
   maximum displ.:     0.1654734 α      in ANC's #1, #2, #11, ...

........................................................................
.............................. CYCLE   20 ..............................
........................................................................
   1    -84.3099082 -0.843099E+02  0.218E-02    0.03       0.0  T
   2    -84.2951357  0.147725E-01  0.322E-01    0.09       1.0  T
   3    -84.3099677 -0.148320E-01  0.652E-03    0.04       2.4  T
   4    -84.3099721 -0.433341E-05  0.202E-03    0.04       7.7  T
   5    -84.3099721  0.749768E-08  0.861E-04    0.04      17.9  T
   6    -84.3099721 -0.199766E-07  0.550E-04    0.04      28.0  T
   7    -84.3099721 -0.423097E-07  0.335E-05    0.04     460.0  T
   8    -84.3099721  0.193680E-09  0.404E-05    0.04     381.8  T
     SCC iter.                  ...        0 min,  0.028 sec
     gradient                   ...        0 min,  0.074 sec
 * total energy  :   -83.5945718 Eh     change       -0.2600909E-04 Eh
   gradient norm :     0.0048057 Eh/α   predicted    -0.3490198E-04 (  34.19%)
   displ. norm   :     0.0355229 α      lambda       -0.3252356E-04
   maximum displ.:     0.0170339 α      in ANC's #3, #2, #16, ...
 * RMSD in coord.:     0.5045882 α      energy gain  -0.2067939E-01 Eh

generating ANC from model Hessian ...
Using Lindh-Hessian (1995)
 Shifting diagonal of input Hessian by   9.839893171058108E-003
 Lowest  eigenvalues of input Hessian
    0.000000    0.000000    0.000000    0.000000    0.000000    0.000000
    0.010000    0.010172    0.010719    0.010878    0.011344    0.012029
    0.012254    0.013236    0.014077    0.014800    0.015174    0.016252
 Highest eigenvalues
    1.977020    2.038270    2.076291    2.134120    2.215297    2.280318
 

........................................................................
.............................. CYCLE   21 ..............................
........................................................................
   1    -84.3107985 -0.843108E+02  0.235E-02    0.03       0.0  T
   2    -84.2931532  0.176452E-01  0.352E-01    0.10       1.0  T
   3    -84.3108632 -0.177100E-01  0.108E-02    0.04       1.4  T
   4    -84.3108787 -0.155635E-04  0.162E-03    0.04       9.5  T
   5    -84.3108790 -0.223968E-06  0.715E-04    0.04      21.6  T
   6    -84.3108789  0.634789E-07  0.849E-04    0.04      18.2  T
   7    -84.3108790 -0.102223E-06  0.392E-05    0.04     394.0  T
   8    -84.3108790  0.131405E-08  0.102E-04    0.04     150.6  T
     SCC iter.                  ...        0 min,  0.028 sec
     gradient                   ...        0 min,  0.074 sec
 * total energy  :   -83.5945976 Eh     change       -0.2584604E-04 Eh
   gradient norm :     0.0029823 Eh/α   predicted     0.0000000E+00 (-100.00%)
   displ. norm   :     0.0280273 α      lambda       -0.1647813E-04
   maximum displ.:     0.0138736 α      in ANC's #6, #1, #3, ...

........................................................................
.............................. CYCLE   22 ..............................
........................................................................
   1    -84.3111286 -0.843111E+02  0.245E-02    0.03       0.0  T
   2    -84.2922116  0.189170E-01  0.365E-01    0.10       1.0  T
   3    -84.3111918 -0.189802E-01  0.136E-02    0.04       1.1  T
   4    -84.3112163 -0.244914E-04  0.275E-03    0.04       5.6  T
   5    -84.3112169 -0.556543E-06  0.177E-03    0.04       8.7  T
   6    -84.3112171 -0.255365E-06  0.956E-04    0.04      16.1  T
   7    -84.3112173 -0.129427E-06  0.355E-05    0.04     435.1  T
   8    -84.3112173  0.230912E-09  0.534E-05    0.04     288.8  T
     SCC iter.                  ...        0 min,  0.027 sec
     gradient                   ...        0 min,  0.071 sec
 * total energy  :   -83.5946140 Eh     change       -0.1640599E-04 Eh
   gradient norm :     0.0016256 Eh/α   predicted    -0.9892677E-05 ( -39.70%)
   displ. norm   :     0.1466043 α      lambda       -0.4197803E-04
   maximum displ.:     0.0741207 α      in ANC's #6, #1, #3, ...

........................................................................
.............................. CYCLE   23 ..............................
........................................................................
   1    -84.3101307 -0.843101E+02  0.101E-01    0.02       0.0  T
   2    -84.2583091  0.518216E-01  0.632E-01    0.30       1.0  T
   3    -84.3064731 -0.481640E-01  0.191E-01    0.06       1.0  T
   4    -84.3107887 -0.431558E-02  0.758E-02    0.03       1.0  T
   5    -84.3113771 -0.588427E-03  0.426E-02    0.04       1.0  T
   6    -84.3116300 -0.252923E-03  0.233E-03    0.04       6.6  T
   7    -84.3116274  0.269534E-05  0.475E-03    0.04       3.2  T
   8    -84.3116302 -0.281415E-05  0.164E-03    0.04       9.4  T
   9    -84.3116305 -0.380514E-06  0.986E-05    0.04     156.5  T
  10    -84.3116305  0.284415E-08  0.169E-04    0.04      91.2  T
     SCC iter.                  ...        0 min,  0.032 sec
     gradient                   ...        0 min,  0.075 sec
 * total energy  :   -83.5946468 Eh     change       -0.3271874E-04 Eh
   gradient norm :     0.0033043 Eh/α   predicted    -0.2119076E-04 ( -35.23%)
   displ. norm   :     0.0554218 α      lambda       -0.1653752E-04
   maximum displ.:     0.0287558 α      in ANC's #6, #1, #3, ...

........................................................................
.............................. CYCLE   24 ..............................
........................................................................
   1    -84.3114006 -0.843114E+02  0.930E-03    0.03       0.0  T
   2    -84.3075561  0.384453E-02  0.164E-01    0.06       1.0  T
   3    -84.3114127 -0.385661E-02  0.163E-03    0.04       9.5  T
   4    -84.3114127 -0.815801E-08  0.144E-03    0.04      10.7  T
   5    -84.3114129 -0.252425E-06  0.448E-04    0.04      34.4  T
   6    -84.3114129 -0.231011E-07  0.436E-05    0.04     353.8  T
   7    -84.3114129 -0.113829E-10  0.300E-05    0.04     514.8  T
     SCC iter.                  ...        0 min,  0.025 sec
     gradient                   ...        0 min,  0.076 sec
 * total energy  :   -83.5946626 Eh     change       -0.1585403E-04 Eh
   gradient norm :     0.0029610 Eh/α   predicted    -0.8542863E-05 ( -46.12%)
   displ. norm   :     0.2299859 α      lambda       -0.6885330E-04
   maximum displ.:     0.1161951 α      in ANC's #6, #1, #3, ...

........................................................................
.............................. CYCLE   25 ..............................
........................................................................
   1    -84.3102113 -0.843102E+02  0.210E-02    0.03       0.0  T
   2    -84.2957854  0.144259E-01  0.318E-01    0.09       1.0  T
   3    -84.3102705 -0.144851E-01  0.378E-03    0.04       4.1  T
   4    -84.3102715 -0.956617E-06  0.165E-03    0.04       9.4  T
   5    -84.3102714  0.386195E-07  0.125E-03    0.04      12.4  T
   6    -84.3102716 -0.152871E-06  0.430E-04    0.04      35.9  T
   7    -84.3102716 -0.248402E-07  0.441E-05    0.04     349.7  T
   8    -84.3102716  0.433857E-09  0.643E-05    0.04     239.8  T
     SCC iter.                  ...        0 min,  0.028 sec
     gradient                   ...        0 min,  0.074 sec
 * total energy  :   -83.5947106 Eh     change       -0.4794914E-04 Eh
   gradient norm :     0.0025950 Eh/α   predicted    -0.3624768E-04 ( -24.40%)
   displ. norm   :     0.1658974 α      lambda       -0.2905082E-04
   maximum displ.:     0.0839267 α      in ANC's #6, #1, #3, ...

........................................................................
.............................. CYCLE   26 ..............................
........................................................................
   1    -84.3097021 -0.843097E+02  0.538E-03    0.03       0.0  T
   2    -84.3088906  0.811512E-03  0.752E-02    0.05       1.0  T
   3    -84.3097013 -0.810668E-03  0.541E-03    0.03       2.9  T
   4    -84.3097048 -0.352003E-05  0.148E-03    0.04      10.4  T
   5    -84.3097049 -0.149791E-06  0.754E-04    0.04      20.5  T
   6    -84.3097050 -0.632034E-07  0.192E-04    0.04      80.3  T
   7    -84.3097050 -0.443694E-08  0.222E-05    0.04     696.2  T
     SCC iter.                  ...        0 min,  0.025 sec
     gradient                   ...        0 min,  0.077 sec
 * total energy  :   -83.5947305 Eh     change       -0.1998425E-04 Eh
   gradient norm :     0.0035049 Eh/α   predicted    -0.1493495E-04 ( -25.27%)
   displ. norm   :     0.1637998 α      lambda        0.3242008E-05
   maximum displ.:     0.0828714 α      in ANC's #6, #1, #3, ...

........................................................................
.............................. CYCLE   27 ..............................
........................................................................
   1    -84.3087067 -0.843087E+02  0.903E-03    0.03       0.0  T
   2    -84.3057007  0.300596E-02  0.145E-01    0.06       1.0  T
   3    -84.3087157 -0.301502E-02  0.316E-03    0.03       4.9  T
   4    -84.3087166 -0.859208E-06  0.105E-03    0.04      14.7  T
   5    -84.3087166  0.173635E-07  0.661E-04    0.04      23.3  T
   6    -84.3087166 -0.440623E-07  0.958E-05    0.04     161.1  T
   7    -84.3087166 -0.549406E-09  0.250E-05    0.04     617.3  T
     SCC iter.                  ...        0 min,  0.025 sec
     gradient                   ...        0 min,  0.077 sec
 * total energy  :   -83.5947260 Eh     change        0.4548845E-05 Eh
   gradient norm :     0.0055043 Eh/α   predicted     0.1662906E-05 ( -63.44%)
   displ. norm   :     0.0459569 α      lambda       -0.4239002E-04
   maximum displ.:     0.0218725 α      in ANC's #6, #3, #10, ...

........................................................................
.............................. CYCLE   28 ..............................
........................................................................
   1    -84.3100267 -0.843100E+02  0.289E-02    0.04       0.0  T
   2    -84.2592600  0.507668E-01  0.595E-01    0.04       1.0  T
   3    -84.3101456 -0.508856E-01  0.472E-03    0.03       3.3  T
   4    -84.3101452  0.400507E-06  0.464E-03    0.03       3.3  T
   5    -84.3101474 -0.221583E-05  0.213E-03    0.04       7.2  T
   6    -84.3101479 -0.569320E-06  0.201E-04    0.04      76.9  T
   7    -84.3101480 -0.532661E-08  0.196E-05    0.04     788.0  T
   8    -84.3101480 -0.167972E-10  0.681E-06    0.04    2266.8  T
     SCC iter.                  ...        0 min,  0.028 sec
     gradient                   ...        0 min,  0.078 sec
 * total energy  :   -83.5947556 Eh     change       -0.2964316E-04 Eh
   gradient norm :     0.0029865 Eh/α   predicted    -0.2124856E-04 ( -28.32%)
   displ. norm   :     0.0782559 α      lambda       -0.3486939E-04
   maximum displ.:     0.0463924 α      in ANC's #1, #6, #2, ...

........................................................................
.............................. CYCLE   29 ..............................
........................................................................
   1    -84.3110758 -0.843111E+02  0.276E-02    0.04       0.0  T
   2    -84.2638975  0.471783E-01  0.573E-01    0.04       1.0  T
   3    -84.3111848 -0.472874E-01  0.500E-03    0.03       3.1  T
   4    -84.3111855 -0.653104E-06  0.418E-03    0.03       3.7  T
   5    -84.3111870 -0.155693E-05  0.234E-03    0.04       6.6  T
   6    -84.3111877 -0.699822E-06  0.263E-04    0.04      58.6  T
   7    -84.3111878 -0.961219E-08  0.266E-05    0.04     579.7  T
   8    -84.3111878 -0.503206E-10  0.699E-06    0.04    2208.7  T
     SCC iter.                  ...        0 min,  0.027 sec
     gradient                   ...        0 min,  0.074 sec
 * total energy  :   -83.5947816 Eh     change       -0.2596451E-04 Eh
   gradient norm :     0.0013539 Eh/α   predicted    -0.1754278E-04 ( -32.44%)
   displ. norm   :     0.2580953 α      lambda       -0.3691924E-04
   maximum displ.:     0.1442448 α      in ANC's #1, #6, #2, ...

........................................................................
.............................. CYCLE   30 ..............................
........................................................................
   1    -84.3114520 -0.843115E+02  0.403E-02    0.04       0.0  T
   2    -84.2233627  0.880893E-01  0.784E-01    0.07       1.0  T
   3    -84.3116774 -0.883147E-01  0.974E-03    0.03       1.6  T
   4    -84.3116870 -0.961171E-05  0.461E-03    0.04       3.3  T
   5    -84.3116887 -0.167154E-05  0.278E-03    0.04       5.5  T
   6    -84.3116896 -0.909500E-06  0.685E-04    0.04      22.5  T
   7    -84.3116897 -0.633440E-07  0.861E-05    0.04     179.2  T
   8    -84.3116897 -0.770711E-09  0.170E-05    0.04     907.2  T
     SCC iter.                  ...        0 min,  0.028 sec
     gradient                   ...        0 min,  0.074 sec
 * total energy  :   -83.5948227 Eh     change       -0.4106497E-04 Eh
   gradient norm :     0.0021467 Eh/α   predicted    -0.1900688E-04 ( -53.72%)
   displ. norm   :     0.2875720 α      lambda       -0.4558767E-04
   maximum displ.:     0.1583312 α      in ANC's #1, #6, #2, ...

........................................................................
.............................. CYCLE   31 ..............................
........................................................................
   1    -84.3105525 -0.843106E+02  0.262E-02    0.04       0.0  T
   2    -84.2698798  0.406727E-01  0.532E-01    0.03       1.0  T
   3    -84.3106460 -0.407663E-01  0.579E-03    0.04       2.7  T
   4    -84.3106486 -0.257910E-05  0.301E-03    0.04       5.1  T
   5    -84.3106493 -0.643704E-06  0.152E-03    0.04      10.1  T
   6    -84.3106495 -0.201822E-06  0.518E-04    0.04      29.8  T
   7    -84.3106495 -0.350855E-07  0.682E-05    0.04     226.4  T
   8    -84.3106495 -0.384972E-09  0.205E-05    0.04     752.1  T
     SCC iter.                  ...        0 min,  0.028 sec
     gradient                   ...        0 min,  0.075 sec
 * total energy  :   -83.5948568 Eh     change       -0.3411871E-04 Eh
   gradient norm :     0.0030154 Eh/α   predicted    -0.2468235E-04 ( -27.66%)
   displ. norm   :     0.2533641 α      lambda       -0.4174281E-04
   maximum displ.:     0.1484542 α      in ANC's #1, #6, #2, ...

........................................................................
.............................. CYCLE   32 ..............................
........................................................................
   1    -84.3098099 -0.843098E+02  0.242E-02    0.04       0.0  T
   2    -84.2752710  0.345389E-01  0.490E-01    0.03       1.0  T
   3    -84.3098902 -0.346191E-01  0.473E-03    0.04       3.3  T
   4    -84.3098920 -0.180913E-05  0.189E-03    0.04       8.2  T
   5    -84.3098921 -0.164120E-06  0.833E-04    0.04      18.5  T
   6    -84.3098921 -0.113226E-07  0.332E-04    0.04      46.5  T
   7    -84.3098922 -0.128782E-07  0.525E-05    0.04     293.7  T
   8    -84.3098922 -0.160981E-09  0.193E-05    0.04     801.5  T
     SCC iter.                  ...        0 min,  0.028 sec
     gradient                   ...        0 min,  0.076 sec
 * total energy  :   -83.5948845 Eh     change       -0.2772267E-04 Eh
   gradient norm :     0.0042830 Eh/α   predicted    -0.2221165E-04 ( -19.88%)
   displ. norm   :     0.1523772 α      lambda       -0.6532395E-04
   maximum displ.:     0.0915321 α      in ANC's #1, #4, #2, ...

........................................................................
.............................. CYCLE   33 ..............................
........................................................................
   1    -84.3106671 -0.843107E+02  0.709E-03    0.04       0.0  T
   2    -84.3105760  0.911065E-04  0.255E-02    0.03       1.0  T
   3    -84.3104936  0.823550E-04  0.352E-02    0.04       1.0  T
   4    -84.3106687 -0.175121E-03  0.288E-03    0.04       5.4  T
   5    -84.3106691 -0.393576E-06  0.172E-03    0.04       9.0  T
   6    -84.3106695 -0.377743E-06  0.103E-04    0.04     149.8  T
   7    -84.3106695 -0.443364E-09  0.351E-05    0.04     439.3  T
     SCC iter.                  ...        0 min,  0.025 sec
     gradient                   ...        0 min,  0.079 sec
 * total energy  :   -83.5949315 Eh     change       -0.4703733E-04 Eh
   gradient norm :     0.0026005 Eh/α   predicted    -0.3342126E-04 ( -28.95%)
   displ. norm   :     0.2412749 α      lambda       -0.5463295E-04
   maximum displ.:     0.1512201 α      in ANC's #1, #4, #6, ...

........................................................................
.............................. CYCLE   34 ..............................
........................................................................
   1    -84.3107365 -0.843107E+02  0.156E-02    0.03       0.0  T
   2    -84.3028428  0.789364E-02  0.235E-01    0.07       1.0  T
   3    -84.3107651 -0.792230E-02  0.417E-03    0.03       3.7  T
   4    -84.3107653 -0.161860E-06  0.335E-03    0.04       4.6  T
   5    -84.3107666 -0.137609E-05  0.585E-04    0.04      26.4  T
   6    -84.3107667 -0.995814E-08  0.134E-04    0.04     115.3  T
   7    -84.3107667  0.190434E-08  0.136E-04    0.04     113.5  T
     SCC iter.                  ...        0 min,  0.025 sec
     gradient                   ...        0 min,  0.080 sec
 * total energy  :   -83.5949780 Eh     change       -0.4647413E-04 Eh
   gradient norm :     0.0030486 Eh/α   predicted    -0.2890764E-04 ( -37.80%)
   displ. norm   :     0.3362985 α      lambda       -0.8879291E-04
   maximum displ.:     0.2150406 α      in ANC's #1, #4, #6, ...

........................................................................
.............................. CYCLE   35 ..............................
........................................................................
   1    -84.3104690 -0.843105E+02  0.590E-02    0.03       0.0  T
   2    -84.2665125  0.439565E-01  0.564E-01    0.19       1.0  T
   3    -84.3104398 -0.439273E-01  0.613E-02    0.04       1.0  T
   4    -84.3108227 -0.382851E-03  0.323E-02    0.03       1.0  T
   5    -84.3109585 -0.135827E-03  0.105E-02    0.04       1.5  T
   6    -84.3109714 -0.129112E-04  0.417E-03    0.03       3.7  T
   7    -84.3109731 -0.165948E-05  0.251E-03    0.04       6.1  T
   8    -84.3109739 -0.865566E-06  0.494E-04    0.03      31.2  T
   9    -84.3109740 -0.349555E-07  0.564E-05    0.03     273.7  T
  10    -84.3109740  0.563375E-09  0.826E-05    0.03     186.8  T
     SCC iter.                  ...        0 min,  0.035 sec
     gradient                   ...        0 min,  0.080 sec
 * total energy  :   -83.5950523 Eh     change       -0.7426255E-04 Eh
   gradient norm :     0.0041129 Eh/α   predicted    -0.4941835E-04 ( -33.45%)
   displ. norm   :     0.4027320 α      lambda       -0.1132293E-03
   maximum displ.:     0.2597127 α      in ANC's #1, #4, #6, ...

........................................................................
.............................. CYCLE   36 ..............................
........................................................................
   1    -84.3088069 -0.843088E+02  0.122E-01    0.02       0.0  T
   2    -84.2552781  0.535287E-01  0.651E-01    0.35       1.0  T
   3    -84.3013598 -0.460816E-01  0.260E-01    0.07       1.0  T
   4    -84.3108383 -0.947857E-02  0.333E-02    0.03       1.0  T
   5    -84.3110014 -0.163085E-03  0.324E-03    0.03       4.8  T
   6    -84.3109987  0.269542E-05  0.494E-03    0.03       3.1  T
   7    -84.3109917  0.704512E-05  0.866E-03    0.04       1.8  T
   8    -84.3110023 -0.106291E-04  0.951E-04    0.03      16.2  T
   9    -84.3110024 -0.110307E-06  0.388E-04    0.03      39.8  T
  10    -84.3110024 -0.637662E-08  0.329E-04    0.03      46.9  T
  11    -84.3110025 -0.154853E-07  0.239E-05    0.03     645.6  T
  12    -84.3110025 -0.795382E-10  0.445E-06    0.03    3470.6  T
     SCC iter.                  ...        0 min,  0.042 sec
     gradient                   ...        0 min,  0.079 sec
 * total energy  :   -83.5951385 Eh     change       -0.8625260E-04 Eh
   gradient norm :     0.0052215 Eh/α   predicted    -0.6580177E-04 ( -23.71%)
   displ. norm   :     0.3474535 α      lambda       -0.1024342E-03
   maximum displ.:     0.2240521 α      in ANC's #1, #4, #6, ...

........................................................................
.............................. CYCLE   37 ..............................
........................................................................
   1    -84.3087986 -0.843088E+02  0.134E-01    0.02       0.0  T
   2    -84.2541614  0.546372E-01  0.664E-01    0.38       1.0  T
   3    -84.2983446 -0.441832E-01  0.303E-01    0.08       1.0  T
   4    -84.3114205 -0.130760E-01  0.175E-02    0.04       1.0  T
   5    -84.3114329 -0.123185E-04  0.137E-02    0.03       1.1  T
   6    -84.3114249  0.799621E-05  0.160E-02    0.04       1.0  T
   7    -84.3114610 -0.361568E-04  0.399E-04    0.03      38.7  T
   8    -84.3114610  0.401135E-07  0.664E-04    0.03      23.2  T
   9    -84.3114610  0.326092E-08  0.678E-04    0.03      22.7  T
  10    -84.3114610 -0.414876E-07  0.415E-04    0.03      37.1  T
  11    -84.3114610 -0.248674E-07  0.200E-05    0.03     772.3  T
  12    -84.3114610 -0.483453E-10  0.824E-06    0.03    1872.4  T
     SCC iter.                  ...        0 min,  0.042 sec
     gradient                   ...        0 min,  0.079 sec
 * total energy  :   -83.5952135 Eh     change       -0.7495759E-04 Eh
   gradient norm :     0.0047968 Eh/α   predicted    -0.5740842E-04 ( -23.41%)
   displ. norm   :     0.5720371 α      lambda       -0.1263977E-03
   maximum displ.:     0.3776235 α      in ANC's #1, #4, #6, ...

........................................................................
.............................. CYCLE   38 ..............................
........................................................................
   1    -84.3052739 -0.843053E+02  0.121E-01    0.02       0.0  T
   2    -84.2503016  0.549722E-01  0.657E-01    0.34       1.0  T
   3    -84.2986151 -0.483135E-01  0.248E-01    0.07       1.0  T
   4    -84.3034483 -0.483324E-02  0.165E-01    0.01       1.0  T
   5    -84.3072809 -0.383260E-02  0.290E-02    0.04       1.0  T
   6    -84.3073537 -0.727799E-04  0.174E-02    0.03       1.0  T
   7    -84.3073820 -0.283190E-04  0.106E-02    0.03       1.5  T
   8    -84.3073974 -0.153544E-04  0.222E-03    0.03       7.0  T
   9    -84.3073981 -0.711168E-06  0.379E-05    0.03     407.1  T
  10    -84.3073981  0.246463E-08  0.132E-04    0.03     116.8  T
     SCC iter.                  ...        0 min,  0.032 sec
     gradient                   ...        0 min,  0.074 sec
 * total energy  :   -83.5951637 Eh     change        0.4979554E-04 Eh
   gradient norm :     0.0102244 Eh/α   predicted    -0.8388069E-04 (-268.45%)
   displ. norm   :     0.1749418 α      lambda       -0.3083053E-03
   maximum displ.:     0.0858813 α      in ANC's #1, #6, #2, ...

........................................................................
.............................. CYCLE   39 ..............................
........................................................................
   1    -84.3118690 -0.843119E+02  0.498E-02    0.04       0.0  T
   2    -84.1989918  0.112877E+00  0.887E-01    0.09       1.0  T
   3    -84.3121958 -0.113204E+00  0.141E-02    0.03       1.1  T
   4    -84.3122115 -0.157037E-04  0.733E-03    0.03       2.1  T
   5    -84.3122158 -0.435899E-05  0.303E-03    0.03       5.1  T
   6    -84.3122168 -0.929231E-06  0.492E-04    0.03      31.4  T
   7    -84.3122168 -0.315282E-07  0.646E-05    0.03     239.0  T
   8    -84.3122168 -0.307551E-09  0.232E-05    0.03     663.8  T
     SCC iter.                  ...        0 min,  0.028 sec
     gradient                   ...        0 min,  0.075 sec
 * total energy  :   -83.5953004 Eh     change       -0.1367430E-03 Eh
   gradient norm :     0.0028914 Eh/α   predicted    -0.1588742E-03 (  16.18%)
   displ. norm   :     0.0649874 α      lambda       -0.2386236E-04
   maximum displ.:     0.0456669 α      in ANC's #1, #4, #10, ...

........................................................................
.............................. CYCLE   40 ..............................
........................................................................
   1    -84.3118135 -0.843118E+02  0.152E-02    0.03       0.0  T
   2    -84.3025288  0.928469E-02  0.254E-01    0.07       1.0  T
   3    -84.3118442 -0.931548E-02  0.432E-03    0.03       3.6  T
   4    -84.3118447 -0.465029E-06  0.370E-03    0.03       4.2  T
   5    -84.3118460 -0.128670E-05  0.195E-03    0.03       7.9  T
   6    -84.3118465 -0.484212E-06  0.321E-04    0.03      48.0  T
   7    -84.3118465 -0.124125E-07  0.858E-05    0.03     179.9  T
   8    -84.3118465 -0.966210E-09  0.958E-06    0.03    1610.1  T
     SCC iter.                  ...        0 min,  0.028 sec
     gradient                   ...        0 min,  0.075 sec
 * total energy  :   -83.5953200 Eh     change       -0.1954874E-04 Eh
   gradient norm :     0.0018954 Eh/α   predicted    -0.1198260E-04 ( -38.70%)
   displ. norm   :     0.2805069 α      lambda       -0.5202974E-04
   maximum displ.:     0.2056026 α      in ANC's #1, #4, #3, ...

........................................................................
.............................. CYCLE   41 ..............................
........................................................................
   1    -84.3108917 -0.843109E+02  0.316E-02    0.04       0.0  T
   2    -84.2551542  0.557375E-01  0.621E-01    0.05       1.0  T
   3    -84.3110280 -0.558738E-01  0.568E-03    0.03       2.7  T
   4    -84.3110301 -0.212604E-05  0.233E-03    0.03       6.6  T
   5    -84.3110291  0.103554E-05  0.319E-03    0.03       4.8  T
   6    -84.3110303 -0.125174E-05  0.632E-04    0.03      24.4  T
   7    -84.3110304 -0.430162E-07  0.217E-04    0.03      71.0  T
   8    -84.3110304 -0.602034E-08  0.519E-05    0.03     297.5  T
   9    -84.3110304 -0.327773E-09  0.853E-06    0.03    1809.6  T
     SCC iter.                  ...        0 min,  0.031 sec
     gradient                   ...        0 min,  0.075 sec
 * total energy  :   -83.5953591 Eh     change       -0.3912152E-04 Eh
   gradient norm :     0.0046911 Eh/α   predicted    -0.2692464E-04 ( -31.18%)
   displ. norm   :     0.0737433 α      lambda       -0.2415459E-04
   maximum displ.:     0.0564177 α      in ANC's #1, #4, #3, ...

........................................................................
.............................. CYCLE   42 ..............................
........................................................................
   1    -84.3112712 -0.843113E+02  0.564E-03    0.03       0.0  T
   2    -84.3097728  0.149840E-02  0.102E-01    0.02       1.0  T
   3    -84.3112733 -0.150045E-02  0.383E-03    0.03       4.0  T
   4    -84.3112744 -0.109338E-05  0.241E-03    0.03       6.4  T
   5    -84.3112750 -0.621681E-06  0.991E-04    0.03      15.6  T
   6    -84.3112751 -0.128984E-06  0.535E-05    0.03     288.5  T
   7    -84.3112751 -0.254659E-09  0.198E-05    0.03     779.1  T
     SCC iter.                  ...        0 min,  0.024 sec
     gradient                   ...        0 min,  0.075 sec
 * total energy  :   -83.5953802 Eh     change       -0.2110594E-04 Eh
   gradient norm :     0.0037613 Eh/α   predicted    -0.1214540E-04 ( -42.46%)
   displ. norm   :     0.2018334 α      lambda       -0.7331237E-04
   maximum displ.:     0.1521066 α      in ANC's #1, #3, #4, ...
 * RMSD in coord.:     0.5737535 α      energy gain  -0.8084312E-03 Eh

generating ANC from model Hessian ...
Using Lindh-Hessian (1995)
 Shifting diagonal of input Hessian by   9.833414880906570E-003
 Lowest  eigenvalues of input Hessian
    0.000000    0.000000    0.000000    0.000000    0.000000    0.000000
    0.010000    0.010172    0.010720    0.010849    0.011417    0.012215
    0.012396    0.013409    0.014217    0.014712    0.015160    0.016509
 Highest eigenvalues
    1.977655    2.053494    2.076330    2.136645    2.218109    2.275514
 

........................................................................
.............................. CYCLE   43 ..............................
........................................................................
   1    -84.3119537 -0.843120E+02  0.449E-02    0.04       0.0  T
   2    -84.2108334  0.101120E+00  0.838E-01    0.08       1.0  T
   3    -84.3122428 -0.101409E+00  0.310E-03    0.03       5.0  T
   4    -84.3122429 -0.149710E-06  0.171E-03    0.03       9.0  T
   5    -84.3122431 -0.152446E-06  0.812E-04    0.03      19.0  T
   6    -84.3122430  0.183602E-07  0.461E-04    0.03      33.4  T
   7    -84.3122431 -0.295692E-07  0.485E-05    0.03     318.2  T
   8    -84.3122431 -0.202363E-09  0.164E-05    0.03     941.4  T
     SCC iter.                  ...        0 min,  0.028 sec
     gradient                   ...        0 min,  0.075 sec
 * total energy  :   -83.5954305 Eh     change       -0.5029444E-04 Eh
   gradient norm :     0.0017920 Eh/α   predicted     0.0000000E+00 (-100.00%)
   displ. norm   :     0.0361999 α      lambda       -0.1413850E-04
   maximum displ.:     0.0163411 α      in ANC's #7, #3, #12, ...

........................................................................
.............................. CYCLE   44 ..............................
........................................................................
   1    -84.3117682 -0.843118E+02  0.191E-02    0.03       0.0  T
   2    -84.2983260  0.134422E-01  0.306E-01    0.08       1.0  T
   3    -84.3118186 -0.134926E-01  0.381E-03    0.03       4.0  T
   4    -84.3118204 -0.186885E-05  0.944E-04    0.03      16.3  T
   5    -84.3118205 -0.412316E-07  0.597E-04    0.03      25.8  T
   6    -84.3118205 -0.340827E-07  0.947E-05    0.03     162.9  T
   7    -84.3118205 -0.105874E-08  0.954E-06    0.03    1617.6  T
     SCC iter.                  ...        0 min,  0.025 sec
     gradient                   ...        0 min,  0.075 sec
 * total energy  :   -83.5954471 Eh     change       -0.1654616E-04 Eh
   gradient norm :     0.0008052 Eh/α   predicted    -0.7105220E-05 ( -57.06%)
   displ. norm   :     0.0948069 α      lambda       -0.2214253E-04
   maximum displ.:     0.0383614 α      in ANC's #7, #3, #2, ...

........................................................................
.............................. CYCLE   45 ..............................
........................................................................
   1    -84.3113061 -0.843113E+02  0.355E-02    0.03       0.0  T
   2    -84.2806919  0.306143E-01  0.464E-01    0.12       1.0  T
   3    -84.3114478 -0.307559E-01  0.168E-02    0.04       1.0  T
   4    -84.3114810 -0.331554E-04  0.737E-03    0.03       2.1  T
   5    -84.3114884 -0.746941E-05  0.123E-03    0.03      12.5  T
   6    -84.3114886 -0.183548E-06  0.321E-04    0.03      48.1  T
   7    -84.3114886 -0.108199E-07  0.868E-05    0.03     177.9  T
   8    -84.3114886 -0.962032E-09  0.215E-05    0.03     719.1  T
     SCC iter.                  ...        0 min,  0.028 sec
     gradient                   ...        0 min,  0.075 sec
 * total energy  :   -83.5954687 Eh     change       -0.2168472E-04 Eh
   gradient norm :     0.0013613 Eh/α   predicted    -0.1111709E-04 ( -48.73%)
   displ. norm   :     0.0788478 α      lambda       -0.1028411E-04
   maximum displ.:     0.0333834 α      in ANC's #2, #3, #1, ...

........................................................................
.............................. CYCLE   46 ..............................
........................................................................
   1    -84.3115269 -0.843115E+02  0.216E-03    0.03       0.0  T
   2    -84.3114668  0.601526E-04  0.206E-02    0.03       1.0  T
   3    -84.3115272 -0.604650E-04  0.977E-04    0.03      15.8  T
   4    -84.3115260  0.116692E-05  0.300E-03    0.03       5.1  T
   5    -84.3115271 -0.104541E-05  0.106E-03    0.03      14.6  T
   6    -84.3115272 -0.145341E-06  0.143E-04    0.03     108.2  T
   7    -84.3115272 -0.239648E-08  0.435E-05    0.03     354.9  T
     SCC iter.                  ...        0 min,  0.024 sec
     gradient                   ...        0 min,  0.074 sec
 * total energy  :   -83.5954808 Eh     change       -0.1208084E-04 Eh
   gradient norm :     0.0013184 Eh/α   predicted    -0.5220139E-05 ( -56.79%)
   displ. norm   :     0.1252833 α      lambda       -0.1488252E-04
   maximum displ.:     0.0564802 α      in ANC's #2, #3, #1, ...

........................................................................
.............................. CYCLE   47 ..............................
........................................................................
   1    -84.3115348 -0.843115E+02  0.273E-02    0.04       0.0  T
   2    -84.2646382  0.468965E-01  0.569E-01    0.04       1.0  T
   3    -84.3116409 -0.470026E-01  0.584E-03    0.03       2.6  T
   4    -84.3116423 -0.138913E-05  0.473E-03    0.03       3.3  T
   5    -84.3116439 -0.164669E-05  0.316E-03    0.03       4.9  T
   6    -84.3116452 -0.133113E-05  0.400E-04    0.03      38.6  T
   7    -84.3116453 -0.212267E-07  0.708E-05    0.03     217.9  T
   8    -84.3116453 -0.620759E-09  0.106E-05    0.03    1454.2  T
     SCC iter.                  ...        0 min,  0.027 sec
     gradient                   ...        0 min,  0.075 sec
 * total energy  :   -83.5954979 Eh     change       -0.1704733E-04 Eh
   gradient norm :     0.0010466 Eh/α   predicted    -0.7493709E-05 ( -56.04%)
   displ. norm   :     0.1660607 α      lambda       -0.1728409E-04
   maximum displ.:     0.0757074 α      in ANC's #2, #1, #3, ...

........................................................................
.............................. CYCLE   48 ..............................
........................................................................
   1    -84.3114430 -0.843114E+02  0.485E-02    0.04       0.0  T
   2    -84.1979543  0.113489E+00  0.888E-01    0.09       1.0  T
   3    -84.3117712 -0.113817E+00  0.120E-02    0.03       1.3  T
   4    -84.3117900 -0.187450E-04  0.304E-03    0.03       5.1  T
   5    -84.3117904 -0.408644E-06  0.236E-03    0.03       6.5  T
   6    -84.3117910 -0.669714E-06  0.658E-04    0.03      23.4  T
   7    -84.3117911 -0.605891E-07  0.424E-05    0.03     364.3  T
   8    -84.3117911 -0.159844E-09  0.910E-06    0.03    1696.5  T
     SCC iter.                  ...        0 min,  0.037 sec
     gradient                   ...        0 min,  0.073 sec
 * total energy  :   -83.5955169 Eh     change       -0.1902600E-04 Eh
   gradient norm :     0.0011937 Eh/α   predicted    -0.8755093E-05 ( -53.98%)
   displ. norm   :     0.1655852 α      lambda       -0.1511503E-04
   maximum displ.:     0.0784360 α      in ANC's #1, #2, #3, ...

........................................................................
.............................. CYCLE   49 ..............................
........................................................................
   1    -84.3116591 -0.843117E+02  0.435E-02    0.04       0.0  T
   2    -84.2129461  0.987130E-01  0.828E-01    0.08       1.0  T
   3    -84.3119317 -0.989857E-01  0.651E-03    0.03       2.4  T
   4    -84.3119372 -0.544151E-05  0.157E-03    0.03       9.8  T
   5    -84.3119373 -0.121988E-06  0.107E-03    0.03      14.4  T
   6    -84.3119374 -0.116178E-06  0.400E-04    0.03      38.6  T
   7    -84.3119374 -0.222484E-07  0.343E-05    0.03     450.3  T
   8    -84.3119374 -0.128907E-09  0.900E-06    0.03    1714.1  T
     SCC iter.                  ...        0 min,  0.028 sec
     gradient                   ...        0 min,  0.074 sec
 * total energy  :   -83.5955334 Eh     change       -0.1654605E-04 Eh
   gradient norm :     0.0013103 Eh/α   predicted    -0.7657073E-05 ( -53.72%)
   displ. norm   :     0.1646499 α      lambda       -0.1274953E-04
   maximum displ.:     0.0816157 α      in ANC's #1, #3, #2, ...

........................................................................
.............................. CYCLE   50 ..............................
........................................................................
   1    -84.3119553 -0.843120E+02  0.206E-02    0.04       0.0  T
   2    -84.2855922  0.263631E-01  0.426E-01    0.02       1.0  T
   3    -84.3120157 -0.264235E-01  0.221E-03    0.03       7.0  T
   4    -84.3120160 -0.248774E-06  0.128E-03    0.03      12.1  T
   5    -84.3120161 -0.854956E-07  0.844E-04    0.03      18.3  T
   6    -84.3120161 -0.825832E-07  0.790E-05    0.03     195.4  T
   7    -84.3120161 -0.372765E-09  0.451E-05    0.03     342.5  T
     SCC iter.                  ...        0 min,  0.024 sec
     gradient                   ...        0 min,  0.075 sec
 * total energy  :   -83.5955476 Eh     change       -0.1412521E-04 Eh
   gradient norm :     0.0010761 Eh/α   predicted    -0.6452121E-05 ( -54.32%)
   displ. norm   :     0.1402628 α      lambda       -0.8929765E-05
   maximum displ.:     0.0728802 α      in ANC's #1, #4, #3, ...

........................................................................
.............................. CYCLE   51 ..............................
........................................................................
   1    -84.3119594 -0.843120E+02  0.474E-03    0.03       0.0  T
   2    -84.3110509  0.908521E-03  0.793E-02    0.04       1.0  T
   3    -84.3119619 -0.911029E-03  0.199E-03    0.03       7.7  T
   4    -84.3119617  0.150029E-06  0.203E-03    0.03       7.6  T
   5    -84.3119622 -0.442205E-06  0.829E-04    0.03      18.6  T
   6    -84.3119623 -0.880895E-07  0.404E-05    0.03     381.8  T
   7    -84.3119623  0.495675E-10  0.281E-05    0.03     549.3  T
     SCC iter.                  ...        0 min,  0.024 sec
     gradient                   ...        0 min,  0.075 sec
 * total energy  :   -83.5955575 Eh     change       -0.9928017E-05 Eh
   gradient norm :     0.0007424 Eh/α   predicted    -0.4508567E-05 ( -54.59%)
   displ. norm   :     0.0992112 α      lambda       -0.6910832E-05
   maximum displ.:     0.0561349 α      in ANC's #1, #4, #3, ...

........................................................................
.............................. CYCLE   52 ..............................
........................................................................
   1    -84.3119700 -0.843120E+02  0.216E-02    0.03       0.0  T
   2    -84.2954838  0.164862E-01  0.339E-01    0.09       1.0  T
   3    -84.3120249 -0.165412E-01  0.101E-02    0.03       1.5  T
   4    -84.3120393 -0.143531E-04  0.450E-04    0.03      34.3  T
   5    -84.3120392  0.830246E-07  0.848E-04    0.03      18.2  T
   6    -84.3120392 -0.266610E-07  0.655E-04    0.03      23.6  T
   7    -84.3120393 -0.612411E-07  0.148E-05    0.03    1042.7  T
   8    -84.3120393  0.204224E-09  0.385E-05    0.03     400.9  T
     SCC iter.                  ...        0 min,  0.027 sec
     gradient                   ...        0 min,  0.075 sec
 * total energy  :   -83.5955654 Eh     change       -0.7951248E-05 Eh
   gradient norm :     0.0007522 Eh/α   predicted    -0.3471189E-05 ( -56.34%)
   displ. norm   :     0.0982163 α      lambda       -0.6614657E-05
   maximum displ.:     0.0581842 α      in ANC's #1, #4, #3, ...

........................................................................
.............................. CYCLE   53 ..............................
........................................................................
   1    -84.3117457 -0.843117E+02  0.241E-02    0.03       0.0  T
   2    -84.2925100  0.192357E-01  0.366E-01    0.10       1.0  T
   3    -84.3118152 -0.193052E-01  0.107E-02    0.03       1.4  T
   4    -84.3118314 -0.162332E-04  0.139E-03    0.03      11.1  T
   5    -84.3118316 -0.240862E-06  0.572E-04    0.03      27.0  T
   6    -84.3118316  0.530097E-07  0.793E-04    0.03      19.5  T
   7    -84.3118317 -0.902476E-07  0.376E-05    0.03     410.3  T
   8    -84.3118317 -0.120380E-09  0.211E-05    0.03     732.9  T
     SCC iter.                  ...        0 min,  0.027 sec
     gradient                   ...        0 min,  0.075 sec
 * total energy  :   -83.5955730 Eh     change       -0.7533450E-05 Eh
   gradient norm :     0.0008086 Eh/α   predicted    -0.3324090E-05 ( -55.88%)
   displ. norm   :     0.0869199 α      lambda       -0.6510289E-05
   maximum displ.:     0.0522179 α      in ANC's #1, #4, #5, ...

........................................................................
.............................. CYCLE   54 ..............................
........................................................................
   1    -84.3120331 -0.843120E+02  0.155E-02    0.03       0.0  T
   2    -84.3021373  0.989579E-02  0.262E-01    0.07       1.0  T
   3    -84.3120651 -0.992784E-02  0.504E-03    0.03       3.1  T
   4    -84.3120687 -0.357986E-05  0.575E-04    0.03      26.9  T
   5    -84.3120687 -0.100778E-07  0.437E-04    0.03      35.3  T
   6    -84.3120687 -0.145603E-07  0.243E-04    0.03      63.4  T
   7    -84.3120687 -0.811178E-08  0.528E-05    0.03     292.2  T
   8    -84.3120687 -0.347740E-09  0.170E-05    0.03     906.1  T
     SCC iter.                  ...        0 min,  0.027 sec
     gradient                   ...        0 min,  0.075 sec
 * total energy  :   -83.5955799 Eh     change       -0.6893196E-05 Eh
   gradient norm :     0.0010675 Eh/α   predicted    -0.3269546E-05 ( -52.57%)
   displ. norm   :     0.0847957 α      lambda       -0.5786851E-05
   maximum displ.:     0.0548467 α      in ANC's #1, #4, #6, ...

........................................................................
[...]
H41-C23=1.0874       H42-C23=1.0902       
 C  H  Rav=1.0922 sigma=0.0034  Rmin=1.0874  Rmax=1.0979    15
 C  C  Rav=1.4660 sigma=0.0626  Rmin=1.3666  Rmax=1.5416     8
 N  H  Rav=1.0195 sigma=0.0000  Rmin=1.0195  Rmax=1.0195     1
 N  C  Rav=1.3621 sigma=0.0506  Rmin=1.2924  Rmax=1.4611     8
 N  N  Rav=1.3685 sigma=0.0000  Rmin=1.3685  Rmax=1.3685     1
 O  H  Rav=1.0113 sigma=0.0000  Rmin=1.0113  Rmax=1.0113     1
 O  C  Rav=1.3626 sigma=0.0554  Rmin=1.2535  Rmax=1.4114     9
 
 selected bond angles (degree)
 --------------------
H26-C1-O2=111.47               H27-C1-O2=107.40               H27-C1-H26=109.10              H28-C1-O2=111.50               
H28-C1-H26=108.24              H28-C1-H27=109.09              C3-O2-C1=114.73                O4-C3-O2=118.46                
C5-C3-O2=115.91                C5-C3-O4=125.63                C6-C5-C3=120.48                N25-C5-C3=121.25               
N25-C5-C6=118.27               O7-C6-C5=118.34                C8-C6-C5=118.33                C8-C6-O7=123.33                
H29-O7-C6=105.01               O9-C8-C6=126.42                N11-C8-C6=121.87               N11-C8-O9=111.70               
C10-O9-C8=119.67               H30-C10-O9=111.98              H31-C10-O9=112.07              H31-C10-H30=108.84             
H32-C10-O9=106.70              H32-C10-H30=108.65             H32-C10-H31=108.49             
 
 selected dihedral angles (degree)
 ---------------------------------
C3-O2-C1-H26=299.48           C3-O2-C1-H27=180.02           C3-O2-C1-H28= 60.57           O4-C3-O2-C1=358.58            
C5-C3-O2-C1=178.42            C6-C5-C3-O2=180.99            C6-C5-C3-O4=  0.82            N25-C5-C3-O2=  0.08           
N25-C5-C3-O4=179.91           O7-C6-C5-C3=359.06            O7-C6-C5-N25=179.94           C8-C6-C5-C3=178.97            
C8-C6-C5-N25=359.86           H29-O7-C6-C5=  0.00           H29-O7-C6-C8=180.09           O9-C8-C6-C5=180.40            
O9-C8-C6-O7=  0.31            N11-C8-C6-C5=359.35           N11-C8-C6-O7=179.26           C10-O9-C8-C6=342.03           
C10-O9-C8-N11=162.99          H30-C10-O9-C8=310.43          H31-C10-O9-C8= 73.07          H32-C10-O9-C8=191.68          
           -------------------------------------------------
          |                Final Singlepoint                |
           -------------------------------------------------

          ...................................................
          :                      SETUP                      :
          :.................................................:
          :  # basis functions                 134          :
          :  # atomic orbitals                 134          :
          :  # shells                           84          :
          :  # electrons                       136          :
          :  # halogen bonds                     0          :
          :  max. iterations                   250          :
          :  Hamiltonian                  GFN1-xTB          :
          :  restarted?                      false          :
          :  GBSA solvation                   true          :
          :  PC potential                    false          :
          :  electronic temp.          300.0000000     K    :
          :  accuracy                    1.0000000          :
          :  -> integral cutoff          0.2500000E+02      :
          :  -> integral neglect         0.1000000E-07      :
          :  -> SCF convergence          0.1000000E-05 Eh   :
          :  -> wf. convergence          0.2000000E-04 e    :
          :  Broyden damping             0.4000000          :
          ...................................................

 iter      E             dE          RMSdq      gap      omega  full diag
   1    -84.3121758 -0.843122E+02  0.116E-05    0.03       0.0  T
   2    -84.3121758  0.652859E-08  0.212E-04    0.03      72.8  T
   3    -84.3121758 -0.653638E-08  0.843E-06    0.03    1829.5  T
   4    -84.3121758 -0.754596E-11  0.398E-06    0.03    3880.8  T

   *** convergence criteria satisfied after 4 iterations ***

         #    Occupation            Energy/Eh            Energy/eV
      -------------------------------------------------------------
         1        2.0000           -0.7968619             -21.6837
       ...           ...                  ...                  ...
        62        2.0000           -0.3916540             -10.6574
        63        2.0000           -0.3867017             -10.5227
        64        2.0000           -0.3823186             -10.4034
        65        2.0000           -0.3765573             -10.2466
        66        2.0000           -0.3594263              -9.7805
        67        2.0000           -0.3470264              -9.4431
        68        1.3138           -0.2615995              -7.1185 (HOMO)
        69        0.6862           -0.2603655              -7.0849 (LUMO)
        70                         -0.2071575              -5.6370
        71                         -0.1942896              -5.2869
        72                         -0.1586085              -4.3160
        73                         -0.1341019              -3.6491
       ...                                ...                  ...
       134                          0.6821796              18.5631
      -------------------------------------------------------------
                  HL-Gap            0.0012340 Eh            0.0336 eV
             Fermi-level           -0.2609825 Eh           -7.1017 eV

 SCC (total)                   0 d,  0 h,  0 min,  0.128 sec
 SCC setup                      ...        0 min,  0.002 sec (  1.408%)
 Dispersion                     ...        0 min,  0.000 sec (  0.254%)
 classical contributions        ...        0 min,  0.000 sec (  0.084%)
 integral evaluation            ...        0 min,  0.032 sec ( 24.899%)
 iterations                     ...        0 min,  0.014 sec ( 10.980%)
 molecular gradient             ...        0 min,  0.079 sec ( 61.757%)
 printout                       ...        0 min,  0.001 sec (  0.591%)

         :::::::::::::::::::::::::::::::::::::::::::::::::::::
         ::                     SUMMARY                     ::
         :::::::::::::::::::::::::::::::::::::::::::::::::::::
         :: total energy             -83.595601614207 Eh    ::
         :: total w/o Gsasa/hb       -83.573941360179 Eh    ::
         :: gradient norm              0.000548508333 Eh/a0 ::
         :: HOMO-LUMO gap              0.033578484780 eV    ::
         ::.................................................::
         :: SCC energy               -84.312175776639 Eh    ::
         :: -> electrostatic           0.642254719748 Eh    ::
         :: -> Gsolv                  -0.260415016616 Eh    ::
         ::    -> Gelec               -0.238754762587 Eh    ::
         ::    -> Gsasa               -0.025809123882 Eh    ::
         ::    -> Ghb                 -0.003475409151 Eh    ::
         ::    -> Gshift               0.007624279005 Eh    ::
         :: repulsion energy           0.741207000942 Eh    ::
         :: dispersion energy         -0.024632838510 Eh    ::
         :: halogen bond corr.         0.000000000000 Eh    ::
         :: add. restraining           0.000000000000 Eh    ::
         :: total charge              -2.000000000000 e     ::
         :::::::::::::::::::::::::::::::::::::::::::::::::::::

           -------------------------------------------------
          |                Property Printout                |
           -------------------------------------------------

    * Orbital Energies and Occupations

         #    Occupation            Energy/Eh            Energy/eV
      -------------------------------------------------------------
         1        2.0000           -0.7968619             -21.6837
       ...           ...                  ...                  ...
        56        2.0000           -0.4360254             -11.8649
        57        2.0000           -0.4306905             -11.7197
        58        2.0000           -0.4260687             -11.5939
        59        2.0000           -0.4029274             -10.9642
        60        2.0000           -0.3994292             -10.8690
        61        2.0000           -0.3950353             -10.7495
        62        2.0000           -0.3916540             -10.6574
        63        2.0000           -0.3867017             -10.5227
        64        2.0000           -0.3823186             -10.4034
        65        2.0000           -0.3765573             -10.2466
        66        2.0000           -0.3594263              -9.7805
        67        2.0000           -0.3470264              -9.4431
        68        1.3138           -0.2615995              -7.1185 (HOMO)
        69        0.6862           -0.2603655              -7.0849 (LUMO)
        70                         -0.2071575              -5.6370
        71                         -0.1942896              -5.2869
        72                         -0.1586085              -4.3160
        73                         -0.1341019              -3.6491
        74                         -0.1241889              -3.3794
        75                         -0.1075369              -2.9262
        76                         -0.1057623              -2.8779
        77                         -0.0910654              -2.4780
        78                         -0.0853966              -2.3238
        79                         -0.0725189              -1.9733
       ...                                ...                  ...
       134                          0.6821796              18.5631
      -------------------------------------------------------------
                  HL-Gap            0.0012340 Eh            0.0336 eV
             Fermi-level           -0.2609825 Eh           -7.1017 eV

  Mulliken/CM5 charges         n(s)   n(p)   n(d)
     1C     0.18372  0.06582   0.963  2.854  0.000
     2O    -0.47923 -0.55832   1.700  4.780  0.000
     3C     0.44512  0.49928   0.964  2.591  0.000
     4O    -0.70334 -0.77679   1.749  4.954  0.000
     5C    -0.00562  0.06504   1.030  2.975  0.000
     6C     0.15614  0.18582   1.017  2.827  0.000
     7O    -0.59527 -0.77923   1.721  4.874  0.000
     8C     0.30314  0.39798   0.979  2.718  0.000
     9O    -0.46977 -0.54664   1.686  4.784  0.000
    10C     0.17899  0.06100   0.966  2.855  0.000
    11N    -0.51445 -0.69065   1.551  3.963  0.000
    12C     0.27031  0.42615   1.014  2.716  0.000
    13C     0.15715  0.19947   1.059  2.784  0.000
    14C    -0.09133 -0.23021   1.013  3.078  0.000
    15C    -0.08389 -0.22127   1.008  3.076  0.000
    16N    -0.38112 -0.71839   1.444  3.937  0.000
    17C     0.38893  0.48854   0.973  2.638  0.000
    18O    -0.67554 -0.71823   1.746  4.930  0.000
    19C     0.26553  0.38022   1.004  2.731  0.000
    20N    -0.34572 -0.44730   1.584  3.762  0.000
    21N    -0.31144 -0.41935   1.571  3.741  0.000
    22C     0.35243  0.46114   0.992  2.656  0.000
    23C    -0.11008 -0.24731   1.008  3.102  0.000
    24O    -0.40394 -0.45270   1.708  4.696  0.000
    25N    -0.46511 -0.64167   1.554  3.911  0.000
    26H     0.01550  0.07673   0.984  0.000  0.000
    27H     0.01184  0.07182   0.988  0.000  0.000
    28H     0.01630  0.07769   0.984  0.000  0.000
    29H     0.37138  0.56369   0.629  0.000  0.000
    30H     0.01807  0.08007   0.982  0.000  0.000
    31H     0.01843  0.08104   0.982  0.000  0.000
    32H     0.01371  0.07367   0.986  0.000  0.000
    33H     0.01544  0.07029   0.985  0.000  0.000
    34H     0.01886  0.07683   0.981  0.000  0.000
    35H     0.02969  0.08882   0.970  0.000  0.000
    36H     0.01381  0.07258   0.986  0.000  0.000
    37H     0.02450  0.08406   0.976  0.000  0.000
    38H     0.01296  0.07051   0.987  0.000  0.000
    39H     0.20254  0.41408   0.797  0.000  0.000
    40H     0.05258  0.10683   0.947  0.000  0.000
    41H     0.04583  0.10171   0.954  0.000  0.000
    42H     0.05290  0.10719   0.947  0.000  0.000

Wiberg/Mayer (AO) data.
largest (>0.10) Wiberg bond orders for each atom

 ---------------------------------------------------------------------------
     #   Z sym  total        # sym  WBO       # sym  WBO       # sym  WBO
 ---------------------------------------------------------------------------
     1   6 C    3.919 --    27 H    0.987    26 H    0.980    28 H    0.980
                             2 O    0.952
     2   8 O    2.044 --     1 C    0.952     3 C    0.938
     3   6 C    3.710 --     4 O    1.335     5 C    1.331     2 O    0.938
     4   8 O    1.708 --     3 C    1.335    29 H    0.126
     5   6 C    3.800 --     3 C    1.331     6 C    1.142    25 N    1.115
     6   6 C    3.826 --     8 C    1.486     5 C    1.142     7 O    1.024
     7   8 O    1.961 --     6 C    1.024    29 H    0.748
     8   6 C    3.800 --     6 C    1.486    11 N    1.183     9 O    0.956
     9   8 O    2.056 --     8 C    0.956    10 C    0.946
    10   6 C    3.916 --    32 H    0.985    30 H    0.981    31 H    0.980
                             9 O    0.946
    11   7 N    2.797 --    12 C    1.326     8 C    1.183
    12   6 C    3.956 --    25 N    1.508    11 N    1.326    13 C    0.966
    13   6 C    3.945 --    15 C    0.998    14 C    0.977    12 C    0.966
                            16 N    0.942
    14   6 C    3.992 --    33 H    0.988    34 H    0.986    35 H    0.983
                            13 C    0.977
    15   6 C    3.995 --    13 C    0.998    38 H    0.987    36 H    0.985
                            37 H    0.984
    16   7 N    3.167 --    17 C    1.117    13 C    0.942    39 H    0.903
                            18 O    0.117
    17   6 C    3.767 --    18 O    1.431    19 C    1.149    16 N    1.117
    18   8 O    1.679 --    17 C    1.431    16 N    0.117
    19   6 C    3.673 --    20 N    1.387    17 C    1.149    24 O    0.971
    20   7 N    2.735 --    19 C    1.387    21 N    1.185
    21   7 N    2.980 --    22 C    1.629    20 N    1.185
    22   6 C    3.817 --    21 N    1.629    24 O    1.047    23 C    1.023
    23   6 C    3.994 --    22 C    1.023    41 H    0.986    42 H    0.972
                            40 H    0.971
    24   8 O    2.173 --    22 C    1.047    19 C    0.971
    25   7 N    2.875 --    12 C    1.508     5 C    1.115
    26   1 H    1.019 --     1 C    0.980
    27   1 H    1.020 --     1 C    0.987
    28   1 H    1.020 --     1 C    0.980
    29   1 H    0.887 --     7 O    0.748     4 O    0.126
    30   1 H    1.017 --    10 C    0.981
    31   1 H    1.025 --    10 C    0.980
    32   1 H    1.020 --    10 C    0.985
    33   1 H    1.009 --    14 C    0.988
    34   1 H    1.014 --    14 C    0.986
    35   1 H    1.017 --    14 C    0.983
    36   1 H    1.027 --    15 C    0.985
    37   1 H    1.024 --    15 C    0.984
    38   1 H    1.015 --    15 C    0.987
    39   1 H    1.001 --    16 N    0.903
    40   1 H    1.001 --    23 C    0.971
    41   1 H    1.005 --    23 C    0.986
    42   1 H    1.001 --    23 C    0.972
 ---------------------------------------------------------------------------

Topologies differ in total number of bonds
Writing topology from bond orders to xtbtopo.mol

 dipole moment from electron density (au)
     X       Y       Z   
   0.9298   0.6680  -0.8077  total (Debye):    3.561

           -------------------------------------------------
          |                Geometry Summary                 |
           -------------------------------------------------

      molecular mass/u    :      351.3152409
   center of mass at/Å    :        0.0561799       0.0127238       0.2940430
  moments of inertia/u·Å² :        0.1267866E+04   0.4915832E+04   0.5828620E+04
rotational constants/cm⁻¹ :        0.1329607E-01   0.3429253E-02   0.2892217E-02

 * 34 selected distances

     #   Z          #   Z                                           value/Å
     1   6 C        2   8 O                                       1.4109469
     3   6 C        5   6 C                                       1.3941144
     6   6 C        7   8 O                                       1.3748487
     6   6 C        8   6 C                                       1.3665823
     8   6 C        9   8 O                                       1.3915312
     9   8 O       10   6 C                                       1.4113744
     8   6 C       11   7 N                                       1.3696705
    11   7 N       12   6 C                                       1.3409582
    13   6 C       15   6 C                                       1.5326779 (max)
    13   6 C       16   7 N                                       1.4611475
    16   7 N       17   6 C                                       1.3877840
    17   6 C       19   6 C                                       1.4311846
    19   6 C       20   7 N                                       1.3395227
    21   7 N       22   6 C                                       1.2923575
    22   6 C       23   6 C                                       1.4846173
    19   6 C       24   8 O                                       1.3850388
    22   6 C       24   8 O                                       1.3561916
    12   6 C       25   7 N                                       1.3079552
     1   6 C       26   1 H                                       1.0978946
     1   6 C       27   1 H                                       1.0917718
     1   6 C       28   1 H                                       1.0975711
    10   6 C       30   1 H                                       1.0970680
    10   6 C       31   1 H                                       1.0970490
    10   6 C       32   1 H                                       1.0936804
    14   6 C       33   1 H                                       1.0899081
    14   6 C       34   1 H                                       1.0906254
    14   6 C       35   1 H                                       1.0895332
    15   6 C       36   1 H                                       1.0902100
    15   6 C       37   1 H                                       1.0892064
    15   6 C       38   1 H                                       1.0908066
    16   7 N       39   1 H                                       1.0194947 (min)
    23   6 C       40   1 H                                       1.0904164
    23   6 C       41   1 H                                       1.0873991
    23   6 C       42   1 H                                       1.0901551

 * 5 distinct bonds (by element types)

   Z      Z             #   av. dist./Å        max./Å        min./Å
   1 H    6 C          15     1.0922197     1.0978946     1.0873991
   6 C    6 C           5     1.4418353     1.5326779     1.3665823
   1 H    7 N           1     1.0194947     1.0194947     1.0194947
   6 C    7 N           7     1.3570565     1.4611475     1.2923575
   6 C    8 O           6     1.3883219     1.4113744     1.3561916


optimized geometry written to: xtbopt.xyz


           -------------------------------------------------
          | TOTAL ENERGY              -83.595601614207 Eh   |
          | GRADIENT NORM               0.000548508333 Eh/α |
          | HOMO-LUMO GAP               0.033578484780 eV   |
           -------------------------------------------------

------------------------------------------------------------------------
 * finished run on 2023/06/20 at 18:01:04.816     
------------------------------------------------------------------------
 total:
 * wall-time:     0 d,  0 h,  0 min,  8.730 sec
 *  cpu-time:     0 d,  0 h,  0 min,  8.604 sec
 * ratio c/w:     0.985 speedup
 SCF:
 * wall-time:     0 d,  0 h,  0 min,  0.270 sec
 *  cpu-time:     0 d,  0 h,  0 min,  0.216 sec
 * ratio c/w:     0.800 speedup
 ANC optimizer:
 * wall-time:     0 d,  0 h,  0 min,  8.361 sec
 *  cpu-time:     0 d,  0 h,  0 min,  8.338 sec
 * ratio c/w:     0.997 speedup

