42
 energy: -83.643833512013 gnorm: 0.000720636534 xtb: 6.5.1 (579679a)
C            5.24809187004094        2.07002154839146       -1.49096255941435
O            4.17998101729457        1.37144124068167       -0.87137362957891
C            4.19791734987259        1.36645578938295        0.50075457044481
O            5.08882250107247        1.94963185412243        1.10156490918873
C            3.09002461657456        0.62341962335704        1.07109768548745
N            2.22269405249044        0.05672997030778        0.15514551890982
C            1.20891867499745       -0.62280331894769        0.54501929033541
C            0.26584427500607       -1.25822013153389       -0.46094635652101
C            0.24936683498248       -2.78383896229330       -0.25978466950087
C            0.74429967683224       -0.91309736433822       -1.87655180885474
N           -1.06886145430990       -0.70187871313457       -0.22749931888599
C           -2.16867430015661       -1.07144129330136       -0.93629787801311
O           -2.12053169042147       -1.79727672569985       -1.93226947086804
C           -3.46327144250087       -0.34848195333845       -0.51783758257461
C           -4.66802635514856       -1.30138888536270       -0.63624136345051
N           -3.56771650217123        0.78833274726625       -1.44219222655184
N           -3.54798128698063        1.89952969000888       -0.65522331851114
C           -3.44705744262556        1.58156772587349        0.58122483089330
C           -3.43025965962974        2.48386599592669        1.76553823072131
O           -3.36162715890944        0.18737407578970        0.79562789964406
N            0.93543430595410       -0.81180444716511        1.88749775255311
C            1.72434902657067       -0.33355393304491        2.90115503966761
O            1.43394359784987       -0.58361491426071        4.06978089198096
C            2.92141292847896        0.48654150059953        2.47482144551636
O            3.66137093076919        0.96763612376390        3.35311495909541
H            5.10771833320118        1.98251406205206       -2.56772566413238
H            6.21282726277433        1.63489212882809       -1.21000134822783
H            5.24337374162004        3.12672486676616       -1.20333589636524
H           -0.13242145728022       -3.03275568145423        0.72870182159537
H           -0.38716493871626       -3.25288225241455       -1.00821582984991
H            1.25950789647813       -3.17867756941689       -0.35720517887338
H            1.77267651162957       -1.25039466146196       -2.00015381275835
H            0.12063067981453       -1.40275177031017       -2.62201505129190
H            0.71177009267403        0.16568545154103       -2.03060451135766
H           -1.23742342637820       -0.29973677314901        0.68527305537156
H           -4.60337747662996       -2.08530149548788        0.11669119110148
H           -5.58722338014185       -0.73794014049903       -0.48951762149289
H           -4.67457085941920       -1.74936798378046       -1.62840363820639
H           -3.60161686094380        3.50748737118611        1.43551914514877
H           -4.21195131282463        2.20703470504415        2.47636602527439
H           -2.47276312484801        2.43958921911638        2.29166192506509
H            0.15154295307648       -1.37926771962643        2.16684154729362
