      -----------------------------------------------------------      
     |                   =====================                   |     
     |                           x T B                           |     
     |                   =====================                   |     
     |                         S. Grimme                         |     
     |          Mulliken Center for Theoretical Chemistry        |     
     |                    University of Bonn                     |     
      -----------------------------------------------------------      

   * xtb version 6.5.1 (579679a) compiled by 'ehlert@majestix' on 2022-07-11

   xtb is free software: you can redistribute it and/or modify it under
   the terms of the GNU Lesser General Public License as published by
   the Free Software Foundation, either version 3 of the License, or
   (at your option) any later version.
   
   xtb is distributed in the hope that it will be useful,
   but WITHOUT ANY WARRANTY; without even the implied warranty of
   MERCHANTABILITY or FITNESS FOR A PARTICULAR PURPOSE.  See the
   GNU Lesser General Public License for more details.
   
   Cite this work as:
   * C. Bannwarth, E. Caldeweyher, S. Ehlert, A. Hansen, P. Pracht,
     J. Seibert, S. Spicher, S. Grimme, WIREs Comput. Mol. Sci., 2020, 11,
     e01493. DOI: 10.1002/wcms.1493
   
   for GFN2-xTB:
   * C. Bannwarth, S. Ehlert and S. Grimme., J. Chem. Theory Comput., 2019,
     15, 1652-1671. DOI: 10.1021/acs.jctc.8b01176
   for GFN1-xTB:
   * S. Grimme, C. Bannwarth, P. Shushkov, J. Chem. Theory Comput., 2017,
     13, 1989-2009. DOI: 10.1021/acs.jctc.7b00118
   for GFN0-xTB:
   * P. Pracht, E. Caldeweyher, S. Ehlert, S. Grimme, ChemRxiv, 2019, preprint.
     DOI: 10.26434/chemrxiv.8326202.v1
   for GFN-FF:
   * S. Spicher and S. Grimme, Angew. Chem. Int. Ed., 2020, 59, 15665-15673.
     DOI: 10.1002/anie.202004239
   
   for ALPB and GBSA implicit solvation:
   * S. Ehlert, M. Stahn, S. Spicher, S. Grimme, J. Chem. Theory Comput.,
     2021, 17, 4250-4261. DOI: 10.1021/acs.jctc.1c00471
   
   for DFT-D4:
   * E. Caldeweyher, C. Bannwarth and S. Grimme, J. Chem. Phys., 2017,
     147, 034112. DOI: 10.1063/1.4993215
   * E. Caldeweyher, S. Ehlert, A. Hansen, H. Neugebauer, S. Spicher,
     C. Bannwarth and S. Grimme, J. Chem. Phys., 2019, 150, 154122.
     DOI: 10.1063/1.5090222
   * E. Caldeweyher, J.-M. Mewes, S. Ehlert and S. Grimme, Phys. Chem. Chem. Phys.
     2020, 22, 8499-8512. DOI: 10.1039/D0CP00502A
   
   for sTDA-xTB:
   * S. Grimme and C. Bannwarth, J. Chem. Phys., 2016, 145, 054103.
     DOI: 10.1063/1.4959605
   
   in the mass-spec context:
   * V. Asgeirsson, C. Bauer and S. Grimme, Chem. Sci., 2017, 8, 4879.
     DOI: 10.1039/c7sc00601b
   * J. Koopman and S. Grimme, ACS Omega 2019, 4, 12, 15120-15133.
     DOI: 10.1021/acsomega.9b02011
   
   for metadynamics refer to:
   * S. Grimme, J. Chem. Theory Comput., 2019, 155, 2847-2862
     DOI: 10.1021/acs.jctc.9b00143
   
   for SPH calculations refer to:
   * S. Spicher and S. Grimme, J. Chem. Theory Comput., 2021, 17, 1701-1714
     DOI: 10.1021/acs.jctc.0c01306
   
   with help from (in alphabetical order)
   P. Atkinson, C. Bannwarth, F. Bohle, G. Brandenburg, E. Caldeweyher
   M. Checinski, S. Dohm, S. Ehlert, S. Ehrlich, I. Gerasimov, C. Hölzer
   A. Katbashev, J. Koopman, C. Lavigne, S. Lehtola, F. März, M. Müller,
   F. Musil, H. Neugebauer, J. Pisarek, C. Plett, P. Pracht, F. Pultar,
   J. Seibert, P. Shushkov, S. Spicher, M. Stahn, M. Steiner, T. Strunk,
   J. Stückrath, T. Rose, and J. Unsleber
   
 * started run on 2023/06/21 at 17:12:37.068     

           -------------------------------------------------
          |                Calculation Setup                |
           -------------------------------------------------

          program call               : /lustre/hpc/kemi/ree/PhD/git/ReactivityQM/dep/xtb-6.5.1/bin/xtb --gfn 1 /lustre/hpc/kemi/ree/PhD/git/ReactivityQM/calculations/R02oxygendeprot/reac01prodE11/conf08/R02oxygendeprot_reac01prodE11_conf08_gfn1.xyz --opt --vfukui --chrg -2 --uhf 0 --alpb DMSO
          hostname                   : node070
          coordinate file            : /lustre/hpc/kemi/ree/PhD/git/ReactivityQM/calculations/R02oxygendeprot/reac01prodE11/conf08/R02oxygendeprot_reac01prodE11_conf08_gfn1.xyz
          omp threads                :                     1

   ID    Z sym.   atoms
    1    6 C      1, 3, 5, 7-10, 12, 14, 17-19, 22, 24
    2    8 O      2, 4, 13, 20, 23, 25
    3    7 N      6, 11, 15, 16, 21
    4    1 H      26-42

           -------------------------------------------------
          |                 G F N 1 - x T B                 |
           -------------------------------------------------

        Reference                      10.1021/acs.jctc.7b00118
      * Hamiltonian:
        H0-scaling (s, p, d)           1.850000    2.250000    2.000000
        zeta-weighting                 0.000000
      * Dispersion:
        s8                             2.400000
        a1                             0.630000
        a2                             5.000000
        s9                             0.000000
      * Repulsion:
        kExp                           1.500000
        rExp                           1.000000
      * Coulomb:
        alpha                          2.000000
        third order                    atomic
        anisotropic                    false
      * Halogen bond correction:
        rad-scale                      1.300000
        damping                        0.440000

      * Solvation model:               ALPB
        Solvent                        DMSO
        Parameter file                 internal GFN1-xTB/ALPB
        Dielectric constant                4.6680E+01
        Reference state                gsolv [1 M gas/solution]
        Free energy shift                  7.6243E-03 Eh       4.7843E+00 kcal/mol
        Temperature                        2.9815E+02 K
        Density                            1.1000E+00 kg/L
        Solvent mass                       7.8130E+01 g/mol
        Interaction kernel             P16
        Born radius scaling (c1)           1.7672E+00
        Born radii integrator          GBOBC
        Born offset                        0.0000E+00 a0       0.0000E+00 AA
        H-bond correction              true
        Ion screening                  false
        Surface tension                    1.0000E-05 Eh       1.5569E+01 dyn/cm
        Grid points                               230 per atom

          ...................................................
          :                      SETUP                      :
          :.................................................:
          :  # basis functions                 134          :
          :  # atomic orbitals                 134          :
          :  # shells                           84          :
          :  # electrons                       136          :
          :  # halogen bonds                     0          :
          :  max. iterations                   250          :
          :  Hamiltonian                  GFN1-xTB          :
          :  restarted?                      false          :
          :  GBSA solvation                   true          :
          :  PC potential                    false          :
          :  electronic temp.          300.0000000     K    :
          :  accuracy                    1.0000000          :
          :  -> integral cutoff          0.2500000E+02      :
          :  -> integral neglect         0.1000000E-07      :
          :  -> SCF convergence          0.1000000E-05 Eh   :
          :  -> wf. convergence          0.2000000E-04 e    :
          :  Broyden damping             0.4000000          :
          ...................................................

 iter      E             dE          RMSdq      gap      omega  full diag
   1    -84.0568429 -0.840568E+02  0.866E+00    1.63       0.0  T
   2    -84.3650538 -0.308211E+00  0.518E+00    1.00       1.0  T
   3    -84.3340557  0.309982E-01  0.169E+00    1.08       1.0  T
   4    -84.3775060 -0.434503E-01  0.398E-01    0.96       1.0  T
   5    -84.3849732 -0.746726E-02  0.923E-02    0.92       1.0  T
   6    -84.3853711 -0.397867E-03  0.229E-02    0.92       1.0  T
   7    -84.3853929 -0.218526E-04  0.555E-03    0.92       2.8  T
   8    -84.3853934 -0.445606E-06  0.244E-03    0.92       6.3  T
   9    -84.3853934 -0.472964E-07  0.977E-04    0.92      15.8  T
  10    -84.3853934 -0.262355E-08  0.177E-04    0.92      87.2  T
  11    -84.3853934 -0.731305E-09  0.543E-05    0.92     284.3  T

   *** convergence criteria satisfied after 11 iterations ***

         #    Occupation            Energy/Eh            Energy/eV
      -------------------------------------------------------------
         1        2.0000           -0.7938679             -21.6022
       ...           ...                  ...                  ...
        62        2.0000           -0.4096081             -11.1460
        63        2.0000           -0.3953140             -10.7570
        64        2.0000           -0.3863854             -10.5141
        65        2.0000           -0.3694500             -10.0532
        66        2.0000           -0.3583813              -9.7521
        67        2.0000           -0.3552668              -9.6673
        68        2.0000           -0.2994933              -8.1496 (HOMO)
        69                         -0.2656277              -7.2281 (LUMO)
        70                         -0.2315704              -6.3014
        71                         -0.2228510              -6.0641
        72                         -0.1914069              -5.2084
        73                         -0.1215331              -3.3071
       ...                                ...                  ...
       134                          0.7808953              21.2492
      -------------------------------------------------------------
                  HL-Gap            0.0338656 Eh            0.9215 eV
             Fermi-level           -0.2825605 Eh           -7.6889 eV

 SCC (total)                   0 d,  0 h,  0 min,  0.111 sec
 SCC setup                      ...        0 min,  0.002 sec (  1.552%)
 Dispersion                     ...        0 min,  0.000 sec (  0.236%)
 classical contributions        ...        0 min,  0.000 sec (  0.081%)
 integral evaluation            ...        0 min,  0.023 sec ( 20.905%)
 iterations                     ...        0 min,  0.053 sec ( 47.277%)
 molecular gradient             ...        0 min,  0.033 sec ( 29.328%)
 printout                       ...        0 min,  0.001 sec (  0.605%)

         :::::::::::::::::::::::::::::::::::::::::::::::::::::
         ::                     SUMMARY                     ::
         :::::::::::::::::::::::::::::::::::::::::::::::::::::
         :: total energy             -83.652410838552 Eh    ::
         :: total w/o Gsasa/hb       -83.632731424705 Eh    ::
         :: gradient norm              0.120651540356 Eh/a0 ::
         :: HOMO-LUMO gap              0.921530579027 eV    ::
         ::.................................................::
         :: SCC energy               -84.385393441838 Eh    ::
         :: -> electrostatic           0.660894996588 Eh    ::
         :: -> Gsolv                  -0.254759641771 Eh    ::
         ::    -> Gelec               -0.235080227923 Eh    ::
         ::    -> Gsasa               -0.024539980179 Eh    ::
         ::    -> Ghb                 -0.002763712673 Eh    ::
         ::    -> Gshift               0.007624279005 Eh    ::
         :: repulsion energy           0.758197342151 Eh    ::
         :: dispersion energy         -0.025214738865 Eh    ::
         :: halogen bond corr.         0.000000000000 Eh    ::
         :: add. restraining           0.000000000000 Eh    ::
         :: total charge              -2.000000000000 e     ::
         :::::::::::::::::::::::::::::::::::::::::::::::::::::

      ----------------------------------------------------------- 
     |                   =====================                   |
     |                        A N C O P T                        |
     |                   =====================                   |
     |               Approximate Normal Coordinate               |
     |                Rational Function Optimizer                |
      ----------------------------------------------------------- 

          ...................................................
          :                      SETUP                      :
          :.................................................:
          :   optimization level            normal          :
          :   max. optcycles                   200          :
          :   ANC micro-cycles                  20          :
          :   degrees of freedom               120          :
          :.................................................:
          :   RF solver                   davidson          :
          :   write xtbopt.log                true          :
          :   linear?                        false          :
          :   energy convergence         0.5000000E-05 Eh   :
          :   grad. convergence          0.1000000E-02 Eh/α :
          :   maximium RF displ.         1.0000000          :
          :   Hlow (freq-cutoff)         0.1000000E-01      :
          :   Hmax (freq-cutoff)         5.0000000          :
          :   S6 in model hess.         20.0000000          :
          ...................................................

generating ANC from model Hessian ...
Using Lindh-Hessian (1995)
 Shifting diagonal of input Hessian by   9.857858485815132E-003
 Lowest  eigenvalues of input Hessian
    0.000000    0.000000    0.000000    0.000000    0.000000    0.000000
    0.010000    0.010221    0.010482    0.010643    0.011675    0.012315
    0.012616    0.013599    0.014339    0.015041    0.016404    0.018405
 Highest eigenvalues
    2.020315    2.063074    2.180833    2.274414    2.291388    2.390970
 

........................................................................
.............................. CYCLE    1 ..............................
........................................................................
   1    -84.3853934 -0.843854E+02  0.257E-05    0.92       0.0  T
   2    -84.3853934 -0.480327E-11  0.132E-05    0.92    1166.2  T
   3    -84.3853934 -0.412115E-12  0.715E-06    0.92    2157.2  T
     SCC iter.                  ...        0 min,  0.010 sec
     gradient                   ...        0 min,  0.032 sec
 * total energy  :   -83.6524108 Eh     change       -0.5285017E-10 Eh
   gradient norm :     0.1206517 Eh/α   predicted     0.0000000E+00 (-100.00%)
   displ. norm   :     0.2450185 α      lambda       -0.1433261E-01
   maximum displ.:     0.0839250 α      in ANC's #24, #29, #41, ...

........................................................................
.............................. CYCLE    2 ..............................
........................................................................
   1    -84.3935614 -0.843936E+02  0.718E-02    1.08       0.0  T
   2    -84.3937526 -0.191224E-03  0.464E-02    1.11       1.0  T
   3    -84.3937957 -0.430904E-04  0.197E-02    1.11       1.0  T
   4    -84.3937926  0.310188E-05  0.123E-02    1.11       1.3  T
   5    -84.3937968 -0.421921E-05  0.112E-03    1.12      13.7  T
   6    -84.3937969 -0.510309E-07  0.260E-04    1.12      59.3  T
   7    -84.3937969 -0.128618E-08  0.114E-04    1.11     135.1  T
   8    -84.3937969 -0.295913E-09  0.226E-05    1.11     683.1  T
     SCC iter.                  ...        0 min,  0.025 sec
     gradient                   ...        0 min,  0.031 sec
 * total energy  :   -83.6624650 Eh     change       -0.1005420E-01 Eh
   gradient norm :     0.0526676 Eh/α   predicted    -0.7600163E-02 ( -24.41%)
   displ. norm   :     0.2626749 α      lambda       -0.5130627E-02
   maximum displ.:     0.0900797 α      in ANC's #5, #7, #24, ...

........................................................................
.............................. CYCLE    3 ..............................
........................................................................
   1    -84.3993083 -0.843993E+02  0.470E-02    1.23       0.0  T
   2    -84.3993657 -0.573231E-04  0.350E-02    1.24       1.0  T
   3    -84.3993870 -0.213782E-04  0.155E-02    1.25       1.0  T
   4    -84.3993856  0.138338E-05  0.886E-03    1.25       1.7  T
   5    -84.3993877 -0.205321E-05  0.826E-04    1.26      18.7  T
   6    -84.3993877 -0.218978E-07  0.222E-04    1.26      69.5  T
   7    -84.3993877 -0.147899E-08  0.863E-05    1.26     178.9  T
   8    -84.3993877 -0.191818E-09  0.162E-05    1.26     953.8  T
     SCC iter.                  ...        0 min,  0.024 sec
     gradient                   ...        0 min,  0.031 sec
 * total energy  :   -83.6655304 Eh     change       -0.3065354E-02 Eh
   gradient norm :     0.0168511 Eh/α   predicted    -0.2743118E-02 ( -10.51%)
   displ. norm   :     0.2066529 α      lambda       -0.8604488E-03
   maximum displ.:     0.1005832 α      in ANC's #5, #7, #10, ...

........................................................................
.............................. CYCLE    4 ..............................
........................................................................
   1    -84.4004062 -0.844004E+02  0.165E-02    1.28       0.0  T
   2    -84.4004139 -0.777075E-05  0.874E-03    1.29       1.8  T
   3    -84.4004142 -0.214502E-06  0.464E-03    1.29       3.3  T
   4    -84.4004141  0.299945E-07  0.142E-03    1.29      10.8  T
   5    -84.4004142 -0.617486E-07  0.454E-04    1.29      34.0  T
   6    -84.4004142 -0.870671E-08  0.136E-04    1.29     113.8  T
   7    -84.4004142 -0.256151E-09  0.372E-05    1.29     414.5  T
     SCC iter.                  ...        0 min,  0.021 sec
     gradient                   ...        0 min,  0.032 sec
 * total energy  :   -83.6661781 Eh     change       -0.6477517E-03 Eh
   gradient norm :     0.0124300 Eh/α   predicted    -0.4485987E-03 ( -30.75%)
   displ. norm   :     0.3167793 α      lambda       -0.7967863E-03
   maximum displ.:     0.1711151 α      in ANC's #5, #7, #10, ...

........................................................................
.............................. CYCLE    5 ..............................
........................................................................
   1    -84.4012833 -0.844013E+02  0.242E-02    1.30       0.0  T
   2    -84.4013044 -0.211128E-04  0.117E-02    1.31       1.3  T
   3    -84.4013083 -0.389064E-05  0.683E-03    1.31       2.3  T
   4    -84.4013088 -0.494717E-06  0.331E-03    1.32       4.7  T
   5    -84.4013088 -0.688316E-07  0.540E-04    1.32      28.6  T
   6    -84.4013088 -0.801751E-08  0.209E-04    1.32      73.9  T
   7    -84.4013088 -0.784709E-09  0.630E-05    1.32     244.8  T
   8    -84.4013088 -0.619735E-10  0.119E-05    1.32    1301.3  T
     SCC iter.                  ...        0 min,  0.025 sec
     gradient                   ...        0 min,  0.033 sec
 * total energy  :   -83.6667177 Eh     change       -0.5395149E-03 Eh
   gradient norm :     0.0109593 Eh/α   predicted    -0.4383734E-03 ( -18.75%)
   displ. norm   :     0.2448135 α      lambda       -0.3645438E-03
   maximum displ.:     0.1450870 α      in ANC's #5, #7, #10, ...

........................................................................
.............................. CYCLE    6 ..............................
........................................................................
   1    -84.4024200 -0.844024E+02  0.189E-02    1.32       0.0  T
   2    -84.4024321 -0.121412E-04  0.133E-02    1.32       1.2  T
   3    -84.4024411 -0.896022E-05  0.258E-03    1.32       6.0  T
   4    -84.4024411 -0.301889E-07  0.174E-03    1.32       8.8  T
   5    -84.4024411 -0.171321E-07  0.306E-04    1.32      50.3  T
   6    -84.4024411 -0.290245E-08  0.105E-04    1.32     147.4  T
   7    -84.4024411 -0.187015E-09  0.416E-05    1.32     370.5  T
     SCC iter.                  ...        0 min,  0.028 sec
     gradient                   ...        0 min,  0.043 sec
 * total energy  :   -83.6669797 Eh     change       -0.2620321E-03 Eh
   gradient norm :     0.0088706 Eh/α   predicted    -0.1932187E-03 ( -26.26%)
   displ. norm   :     0.2156925 α      lambda       -0.2371815E-03
   maximum displ.:     0.1301602 α      in ANC's #5, #7, #8, ...

........................................................................
.............................. CYCLE    7 ..............................
........................................................................
   1    -84.4033949 -0.844034E+02  0.164E-02    1.32       0.0  T
   2    -84.4034050 -0.100754E-04  0.141E-02    1.32       1.1  T
   3    -84.4034148 -0.984660E-05  0.262E-03    1.32       5.9  T
   4    -84.4034149 -0.145271E-07  0.161E-03    1.32       9.6  T
   5    -84.4034149 -0.288935E-07  0.291E-04    1.32      53.1  T
   6    -84.4034149 -0.268875E-08  0.528E-05    1.32     292.0  T
   7    -84.4034149 -0.589182E-10  0.169E-05    1.32     912.1  T
     SCC iter.                  ...        0 min,  0.022 sec
     gradient                   ...        0 min,  0.033 sec
 * total energy  :   -83.6671447 Eh     change       -0.1649729E-03 Eh
   gradient norm :     0.0061524 Eh/α   predicted    -0.1241082E-03 ( -24.77%)
   displ. norm   :     0.1602302 α      lambda       -0.1175200E-03
   maximum displ.:     0.0932455 α      in ANC's #5, #1, #7, ...

........................................................................
.............................. CYCLE    8 ..............................
........................................................................
   1    -84.4038682 -0.844039E+02  0.968E-03    1.32       0.0  T
   2    -84.4038730 -0.477376E-05  0.775E-03    1.32       2.0  T
   3    -84.4038758 -0.276830E-05  0.191E-03    1.32       8.1  T
   4    -84.4038758  0.240202E-08  0.132E-03    1.32      11.7  T
   5    -84.4038758 -0.208422E-07  0.245E-04    1.32      62.9  T
   6    -84.4038758 -0.148565E-08  0.475E-05    1.32     325.0  T
   7    -84.4038758 -0.627693E-10  0.146E-05    1.32    1060.1  T
     SCC iter.                  ...        0 min,  0.022 sec
     gradient                   ...        0 min,  0.033 sec
 * total energy  :   -83.6672212 Eh     change       -0.7650911E-04 Eh
   gradient norm :     0.0039658 Eh/α   predicted    -0.6026925E-04 ( -21.23%)
   displ. norm   :     0.0966460 α      lambda       -0.4991319E-04
   maximum displ.:     0.0505566 α      in ANC's #5, #1, #3, ...

........................................................................
.............................. CYCLE    9 ..............................
........................................................................
   1    -84.4041818 -0.844042E+02  0.529E-03    1.32       0.0  T
   2    -84.4041831 -0.129336E-05  0.220E-03    1.32       7.0  T
   3    -84.4041833 -0.182569E-06  0.103E-03    1.32      15.0  T
   4    -84.4041833 -0.959136E-08  0.548E-04    1.32      28.1  T
   5    -84.4041833 -0.152414E-08  0.192E-04    1.32      80.5  T
   6    -84.4041833 -0.113477E-08  0.400E-05    1.32     385.7  T
     SCC iter.                  ...        0 min,  0.019 sec
     gradient                   ...        0 min,  0.032 sec
 * total energy  :   -83.6672546 Eh     change       -0.3343865E-04 Eh
   gradient norm :     0.0029661 Eh/α   predicted    -0.2519883E-04 ( -24.64%)
   displ. norm   :     0.0830477 α      lambda       -0.3333595E-04
   maximum displ.:     0.0463142 α      in ANC's #1, #3, #5, ...

........................................................................
.............................. CYCLE   10 ..............................
........................................................................
   1    -84.4043328 -0.844043E+02  0.764E-03    1.32       0.0  T
   2    -84.4043345 -0.169907E-05  0.543E-03    1.32       2.8  T
   3    -84.4043361 -0.164059E-05  0.757E-04    1.32      20.4  T
   4    -84.4043361 -0.475889E-08  0.461E-04    1.32      33.5  T
   5    -84.4043361 -0.725009E-09  0.113E-04    1.32     137.1  T
   6    -84.4043361 -0.202604E-09  0.299E-05    1.32     516.6  T
     SCC iter.                  ...        0 min,  0.019 sec
     gradient                   ...        0 min,  0.032 sec
 * total energy  :   -83.6672789 Eh     change       -0.2430128E-04 Eh
   gradient norm :     0.0025512 Eh/α   predicted    -0.1678317E-04 ( -30.94%)
   displ. norm   :     0.0895271 α      lambda       -0.2979710E-04
   maximum displ.:     0.0529498 α      in ANC's #1, #3, #13, ...

........................................................................
.............................. CYCLE   11 ..............................
........................................................................
   1    -84.4043019 -0.844043E+02  0.934E-03    1.32       0.0  T
   2    -84.4043045 -0.254371E-05  0.737E-03    1.32       2.1  T
   3    -84.4043075 -0.305344E-05  0.701E-04    1.32      22.0  T
   4    -84.4043075 -0.114881E-08  0.464E-04    1.32      33.3  T
   5    -84.4043075 -0.148825E-08  0.103E-04    1.32     150.0  T
   6    -84.4043075 -0.172648E-09  0.283E-05    1.32     545.3  T
     SCC iter.                  ...        0 min,  0.019 sec
     gradient                   ...        0 min,  0.033 sec
 * total energy  :   -83.6673017 Eh     change       -0.2283015E-04 Eh
   gradient norm :     0.0023671 Eh/α   predicted    -0.1503513E-04 ( -34.14%)
   displ. norm   :     0.1014292 α      lambda       -0.2801948E-04
   maximum displ.:     0.0618675 α      in ANC's #1, #3, #13, ...

........................................................................
.............................. CYCLE   12 ..............................
........................................................................
   1    -84.4042766 -0.844043E+02  0.749E-03    1.32       0.0  T
   2    -84.4042784 -0.178141E-05  0.597E-03    1.31       2.6  T
   3    -84.4042804 -0.199439E-05  0.679E-04    1.31      22.7  T
   4    -84.4042804 -0.175963E-08  0.434E-04    1.31      35.6  T
   5    -84.4042804 -0.116685E-08  0.111E-04    1.31     138.4  T
   6    -84.4042804 -0.270802E-09  0.276E-05    1.31     559.7  T
     SCC iter.                  ...        0 min,  0.019 sec
     gradient                   ...        0 min,  0.034 sec
 * total energy  :   -83.6673234 Eh     change       -0.2167441E-04 Eh
   gradient norm :     0.0024661 Eh/α   predicted    -0.1416135E-04 ( -34.66%)
   displ. norm   :     0.1074446 α      lambda       -0.2465082E-04
   maximum displ.:     0.0678594 α      in ANC's #1, #3, #13, ...

........................................................................
.............................. CYCLE   13 ..............................
........................................................................
   1    -84.4041994 -0.844042E+02  0.288E-03    1.31       0.0  T
   2    -84.4041997 -0.343724E-06  0.206E-03    1.31       7.5  T
   3    -84.4042000 -0.217898E-06  0.483E-04    1.31      31.9  T
   4    -84.4042000 -0.116692E-08  0.289E-04    1.31      53.4  T
   5    -84.4042000 -0.654040E-09  0.739E-05    1.31     208.9  T
   6    -84.4042000 -0.110390E-09  0.214E-05    1.31     721.5  T
     SCC iter.                  ...        0 min,  0.019 sec
     gradient                   ...        0 min,  0.033 sec
 * total energy  :   -83.6673430 Eh     change       -0.1956606E-04 Eh
   gradient norm :     0.0024729 Eh/α   predicted    -0.1247049E-04 ( -36.26%)
   displ. norm   :     0.1103884 α      lambda       -0.2211265E-04
   maximum displ.:     0.0725239 α      in ANC's #1, #3, #13, ...

........................................................................
.............................. CYCLE   14 ..............................
........................................................................
   1    -84.4042595 -0.844043E+02  0.310E-03    1.31       0.0  T
   2    -84.4042597 -0.248678E-06  0.210E-03    1.31       7.4  T
   3    -84.4042600 -0.236992E-06  0.441E-04    1.31      35.0  T
   4    -84.4042600 -0.161653E-08  0.217E-04    1.31      71.1  T
   5    -84.4042600 -0.205020E-09  0.474E-05    1.31     325.2  T
   6    -84.4042600 -0.381419E-10  0.156E-05    1.31     990.1  T
     SCC iter.                  ...        0 min,  0.019 sec
     gradient                   ...        0 min,  0.033 sec
 * total energy  :   -83.6673605 Eh     change       -0.1755202E-04 Eh
   gradient norm :     0.0020019 Eh/α   predicted    -0.1119317E-04 ( -36.23%)
   displ. norm   :     0.1002517 α      lambda       -0.1751389E-04
   maximum displ.:     0.0693820 α      in ANC's #1, #3, #13, ...

........................................................................
.............................. CYCLE   15 ..............................
........................................................................
   1    -84.4043080 -0.844043E+02  0.565E-03    1.31       0.0  T
   2    -84.4043089 -0.888612E-06  0.425E-03    1.31       3.6  T
   3    -84.4043099 -0.103906E-05  0.444E-04    1.31      34.7  T
   4    -84.4043099 -0.755435E-09  0.260E-04    1.31      59.2  T
   5    -84.4043099 -0.208104E-09  0.524E-05    1.31     294.4  T
   6    -84.4043099 -0.631104E-10  0.165E-05    1.31     935.6  T
     SCC iter.                  ...        0 min,  0.027 sec
     gradient                   ...        0 min,  0.032 sec
 * total energy  :   -83.6673746 Eh     change       -0.1408119E-04 Eh
   gradient norm :     0.0013111 Eh/α   predicted    -0.8849752E-05 ( -37.15%)
   displ. norm   :     0.1250986 α      lambda       -0.1306965E-04
   maximum displ.:     0.0909398 α      in ANC's #1, #3, #9, ...

........................................................................
.............................. CYCLE   16 ..............................
........................................................................
   1    -84.4044977 -0.844045E+02  0.744E-03    1.32       0.0  T
   2    -84.4044994 -0.166020E-05  0.558E-03    1.32       2.8  T
   3    -84.4045012 -0.179602E-05  0.549E-04    1.32      28.1  T
   4    -84.4045012 -0.156975E-08  0.330E-04    1.32      46.7  T
   5    -84.4045012 -0.295799E-09  0.819E-05    1.32     188.3  T
   6    -84.4045012 -0.157144E-09  0.186E-05    1.32     827.9  T
     SCC iter.                  ...        0 min,  0.023 sec
     gradient                   ...        0 min,  0.033 sec
 * total energy  :   -83.6673894 Eh     change       -0.1473445E-04 Eh
   gradient norm :     0.0013235 Eh/α   predicted    -0.6584574E-05 ( -55.31%)
   displ. norm   :     0.0839103 α      lambda       -0.8772244E-05
   maximum displ.:     0.0635448 α      in ANC's #1, #3, #9, ...

........................................................................
.............................. CYCLE   17 ..............................
........................................................................
   1    -84.4044386 -0.844044E+02  0.207E-03    1.32       0.0  T
   2    -84.4044387 -0.132084E-06  0.133E-03    1.32      11.6  T
   3    -84.4044388 -0.965375E-07  0.352E-04    1.32      43.9  T
   4    -84.4044388 -0.116877E-08  0.170E-04    1.32      90.6  T
   5    -84.4044388 -0.121332E-09  0.374E-05    1.32     412.2  T
     SCC iter.                  ...        0 min,  0.016 sec
     gradient                   ...        0 min,  0.033 sec
 * total energy  :   -83.6674012 Eh     change       -0.1180626E-04 Eh
   gradient norm :     0.0016888 Eh/α   predicted    -0.4404355E-05 ( -62.69%)
   displ. norm   :     0.1049554 α      lambda       -0.1338235E-04
   maximum displ.:     0.0775838 α      in ANC's #1, #3, #4, ...

........................................................................
.............................. CYCLE   18 ..............................
........................................................................
   1    -84.4046607 -0.844047E+02  0.193E-03    1.32       0.0  T
   2    -84.4046608 -0.966228E-07  0.142E-03    1.32      10.9  T
   3    -84.4046609 -0.988540E-07  0.371E-04    1.32      41.6  T
   4    -84.4046609 -0.283322E-09  0.162E-04    1.32      95.4  T
   5    -84.4046609 -0.185835E-09  0.281E-05    1.32     549.2  T
     SCC iter.                  ...        0 min,  0.026 sec
     gradient                   ...        0 min,  0.044 sec
 * total energy  :   -83.6674185 Eh     change       -0.1734104E-04 Eh
   gradient norm :     0.0015316 Eh/α   predicted    -0.6725200E-05 ( -61.22%)
   displ. norm   :     0.1639381 α      lambda       -0.1889241E-04
   maximum displ.:     0.1182995 α      in ANC's #1, #3, #4, ...

........................................................................
.............................. CYCLE   19 ..............................
........................................................................
   1    -84.4041489 -0.844041E+02  0.395E-03    1.32       0.0  T
   2    -84.4041493 -0.361267E-06  0.281E-03    1.32       5.5  T
   3    -84.4041497 -0.392318E-06  0.808E-04    1.32      19.1  T
   4    -84.4041497 -0.207991E-08  0.276E-04    1.32      55.8  T
   5    -84.4041497 -0.327930E-09  0.505E-05    1.32     305.3  T
   6    -84.4041497 -0.481037E-10  0.159E-05    1.32     967.5  T
     SCC iter.                  ...        0 min,  0.029 sec
     gradient                   ...        0 min,  0.039 sec
 * total energy  :   -83.6674410 Eh     change       -0.2252500E-04 Eh
   gradient norm :     0.0013329 Eh/α   predicted    -0.9562142E-05 ( -57.55%)
   displ. norm   :     0.1693530 α      lambda       -0.1503578E-04
   maximum displ.:     0.1220002 α      in ANC's #1, #3, #4, ...

........................................................................
.............................. CYCLE   20 ..............................
........................................................................
   1    -84.4042995 -0.844043E+02  0.381E-03    1.32       0.0  T
   2    -84.4042999 -0.408189E-06  0.276E-03    1.32       5.6  T
   3    -84.4043003 -0.431478E-06  0.478E-04    1.32      32.3  T
   4    -84.4043003 -0.991790E-09  0.228E-04    1.32      67.7  T
   5    -84.4043003 -0.204196E-09  0.465E-05    1.32     332.2  T
   6    -84.4043003 -0.614619E-10  0.163E-05    1.32     948.2  T
     SCC iter.                  ...        0 min,  0.032 sec
     gradient                   ...        0 min,  0.054 sec
 * total energy  :   -83.6674591 Eh     change       -0.1810470E-04 Eh
   gradient norm :     0.0009663 Eh/α   predicted    -0.7615229E-05 ( -57.94%)
   displ. norm   :     0.1267915 α      lambda       -0.9396156E-05
   maximum displ.:     0.0945383 α      in ANC's #1, #3, #4, ...
 * RMSD in coord.:     0.3351563 α      energy gain  -0.1504829E-01 Eh

generating ANC from model Hessian ...
Using Lindh-Hessian (1995)
 Shifting diagonal of input Hessian by   9.832600515910703E-003
 Lowest  eigenvalues of input Hessian
    0.000000    0.000000    0.000000    0.000000    0.000000    0.000000
    0.010000    0.010263    0.010511    0.010697    0.011678    0.012360
    0.012771    0.013760    0.014215    0.015213    0.016463    0.018658
 Highest eigenvalues
    1.980682    2.083923    2.209098    2.299813    2.333583    2.355793
 

........................................................................
.............................. CYCLE   21 ..............................
........................................................................
   1    -84.4043175 -0.844043E+02  0.171E-03    1.32       0.0  T
   2    -84.4043176 -0.798959E-07  0.100E-03    1.32      15.4  T
   3    -84.4043176 -0.531157E-07  0.355E-04    1.32      43.5  T
   4    -84.4043176 -0.146188E-08  0.145E-04    1.32     106.3  T
   5    -84.4043176 -0.762981E-10  0.307E-05    1.32     502.2  T
     SCC iter.                  ...        0 min,  0.024 sec
     gradient                   ...        0 min,  0.050 sec
 * total energy  :   -83.6674713 Eh     change       -0.1216866E-04 Eh
   gradient norm :     0.0008167 Eh/α   predicted     0.0000000E+00 (-100.00%)
   displ. norm   :     0.0233458 α      lambda       -0.3512281E-05
   maximum displ.:     0.0190340 α      in ANC's #1, #7, #14, ...

........................................................................
.............................. CYCLE   22 ..............................
........................................................................
   1    -84.4044982 -0.844045E+02  0.128E-03    1.32       0.0  T
   2    -84.4044983 -0.475888E-07  0.106E-03    1.32      14.6  T
   3    -84.4044983 -0.536660E-07  0.261E-04    1.32      59.2  T
   4    -84.4044983 -0.275548E-10  0.114E-04    1.32     134.9  T
   5    -84.4044983 -0.869846E-10  0.173E-05    1.32     894.5  T
     SCC iter.                  ...        0 min,  0.025 sec
     gradient                   ...        0 min,  0.053 sec
 * total energy  :   -83.6674762 Eh     change       -0.4934154E-05 Eh
   gradient norm :     0.0003657 Eh/α   predicted    -0.1866010E-05 ( -62.18%)
   displ. norm   :     0.0602303 α      lambda       -0.7577661E-05
   maximum displ.:     0.0443300 α      in ANC's #1, #7, #14, ...

   *** GEOMETRY OPTIMIZATION CONVERGED AFTER 22 ITERATIONS ***

------------------------------------------------------------------------
 total energy gain   :        -0.0150654 Eh       -9.4537 kcal/mol
 total RMSD          :         0.3366138 a0        0.1781 Å
 total power (kW/mol):        -1.7979180 (step)  -22.5941 (real)
------------------------------------------------------------------------

 ANCopt (total)                0 d,  0 h,  0 min,  1.751 sec
 optimizer setup                ...        0 min,  0.001 sec (  0.033%)
 model hessian                  ...        0 min,  0.033 sec (  1.905%)
 ANC generation                 ...        0 min,  0.004 sec (  0.238%)
 coordinate transformation      ...        0 min,  0.000 sec (  0.023%)
 single point calculation       ...        0 min,  1.706 sec ( 97.448%)
 optimization log               ...        0 min,  0.004 sec (  0.202%)
 hessian update                 ...        0 min,  0.000 sec (  0.022%)
 rational function              ...        0 min,  0.001 sec (  0.078%)

================
 final structure:
================
42
 xtb: 6.5.1 (579679a)
C           -6.21506671658911       -1.97081680020409        0.69035176999125
O           -5.02739514617424       -1.22927619858406        0.46250017631261
C           -5.09289072312279       -0.30503698293990       -0.54935970564798
O           -6.12686125304147       -0.17167094620961       -1.18846305817407
C           -3.85295038927754        0.42958356069749       -0.71500263337503
N           -2.83014616343339        0.06706644786339        0.14515341398743
C           -1.70156114558459        0.67313523131895        0.10397960850644
C           -0.59232235688020        0.33601263732426        1.08406898239496
C           -0.71798846999137        1.31727384884302        2.26272887784684
C           -0.75393051765717       -1.11300776894599        1.56583355919980
N            0.67829063508144        0.53090724356405        0.38626952780322
C            1.89907052814685        0.22745373697740        1.04051643716617
O            1.99540186115522        0.21424725804793        2.28219832663279
C            2.94361270557608        0.01375865472367        0.11431416212351
N            2.81070912506082       -0.00217975107275       -1.20618579437848
N            3.94713570345141       -0.23005430201966       -1.79347087616737
C            4.96388648443041       -0.38443525723459       -0.74006110377983
C            6.04026926124592        0.70452363717416       -0.89077654220328
C            5.59238978046035       -1.78550259219939       -0.82581593032422
O            4.27655783773310       -0.22835793089094        0.49240360588330
N           -1.46562201846172        1.71228553207417       -0.77246829575329
C           -2.37640771056236        2.16387271339734       -1.68701017763488
O           -2.08205427035764        3.09398962317934       -2.43858454855231
C           -3.71517026245217        1.46015814752266       -1.68225246156557
O           -4.58552574851940        1.82502274133249       -2.49626205063621
H           -7.05006663021808       -1.30512729290833        0.93315397644576
H           -6.02179626513685       -2.63617666260918        1.53092567656798
H           -6.48253095117874       -2.56141403483338       -0.19217075247861
H           -0.01674200895521        1.06453153010868        3.05530578069968
H           -0.51568262559136        2.33214277424782        1.92196580147457
H           -1.73098852997073        1.27428704620472        2.66258442745009
H           -1.74611634889802       -1.24396583864205        1.99666682875984
H           -0.64406853537321       -1.80081580792988        0.72773061175082
H           -0.00328117796040       -1.34584026529954        2.31922847092418
H            0.66460378027259        0.16404738577905       -0.56160451298452
H            6.53748619268900        0.59982002653984       -1.85278992136593
H            5.57179076215655        1.68612930081179       -0.83716232820010
H            6.77638908144831        0.61816625872438       -0.09355945410093
H            6.32320471315015       -1.91984371984258       -0.03026341128596
H            4.81158798094642       -2.53748444075736       -0.72269707561031
H            6.08187483280352       -1.91045506930712       -1.78941742655667
H           -0.56709330041904        2.17304732597455       -0.74589796114787
 
 Bond Distances (Angstroems)
 ---------------------------
C1-O2=1.4186         C1-H26=1.0951        C1-H27=1.0893        C1-H28=1.0951        O2-C1=1.4186         O2-C3=1.3720         
C3-O2=1.3720         C3-O4=1.2228         C3-C5=1.4507         O4-C3=1.2228         C5-C3=1.4507         C5-N6=1.3847         
C5-C24=1.4201        N6-C5=1.3847         N6-C7=1.2817         C7-N6=1.2817         C7-C8=1.5181         C7-N21=1.3797        
C8-C7=1.5181         C8-C9=1.5388         C8-C10=1.5355        C8-N11=1.4627        C9-C8=1.5388         C9-H29=1.0880        
C9-H30=1.0895        C9-H31=1.0899        C10-C8=1.5355        C10-H32=1.0896       C10-H33=1.0898       C10-H34=1.0887       
N11-C8=1.4627        N11-C12=1.4179       N11-H35=1.0165       C12-N11=1.4179       C12-O13=1.2455       C12-C14=1.4123       
O13-C12=1.2455       C14-C12=1.4123       C14-N15=1.3273       C14-O20=1.4065       N15-C14=1.3273       N15-N16=1.2993       
N16-N15=1.2993       N16-C17=1.4722       C17-N16=1.4722       C17-C18=1.5386       C17-C19=1.5380       C17-O20=1.4198       
C18-C17=1.5386       C18-H36=1.0880       C18-H37=1.0890       C18-H38=1.0885       C19-C17=1.5380       C19-H39=1.0886       
C19-H40=1.0889       C19-H41=1.0880       O20-C14=1.4065       O20-C17=1.4198       N21-C7=1.3797        N21-C22=1.3674       
N21-H42=1.0101       C22-N21=1.3674       C22-O23=1.2315       C22-C24=1.5125       O23-C22=1.2315       C24-C5=1.4201        
C24-C22=1.5125       C24-O25=1.2463       O25-C24=1.2463       H26-C1=1.0951        H27-C1=1.0893        H28-C1=1.0951        
H29-C9=1.0880        H30-C9=1.0895        H31-C9=1.0899        H32-C10=1.0896       H33-C10=1.0898       H34-C10=1.0887       
H35-N11=1.0165       H36-C18=1.0880       H37-C18=1.0890       H38-C18=1.0885       H39-C19=1.0886       H40-C19=1.0889       
H41-C19=1.0880       H42-N21=1.0101       
 C  H  Rav=1.0897 sigma=0.0022  Rmin=1.0880  Rmax=1.0951    15
 C  C  Rav=1.4961 sigma=0.0501  Rmin=1.4123  Rmax=1.5388     9
 N  H  Rav=1.0133 sigma=0.0032  Rmin=1.0101  Rmax=1.0165     2
 N  C  Rav=1.3867 sigma=0.0602  Rmin=1.2817  Rmax=1.4722     8
 N  N  Rav=1.2993 sigma=0.0000  Rmin=1.2993  Rmax=1.2993     1
 O  C  Rav=1.3204 sigma=0.0852  Rmin=1.2228  Rmax=1.4198     8
 
 selected bond angles (degree)
 --------------------
H26-C1-O2=110.87               H27-C1-O2=107.14               H27-C1-H26=109.60              H28-C1-O2=110.91               
H28-C1-H26=108.68              H28-C1-H27=109.62              C3-O2-C1=115.51                O4-C3-O2=119.95                
C5-C3-O2=112.61                C5-C3-O4=127.43                N6-C5-C3=115.33                C24-C5-C3=121.88               
C24-C5-N6=122.78               C7-N6-C5=120.44                C8-C7-N6=121.17                N21-C7-N6=121.81               
N21-C7-C8=116.90               C9-C8-C7=107.05                C10-C8-C7=109.59               C10-C8-C9=110.66               
N11-C8-C7=107.29               N11-C8-C9=110.57               N11-C8-C10=111.52              H29-C9-C8=110.93               
H30-C9-C8=109.83               H30-C9-H29=108.94              H31-C9-C8=109.38               H31-C9-H29=108.82              
H31-C9-H30=108.91              H32-C10-C8=109.47              H33-C10-C8=110.10              H33-C10-H32=108.67             
H34-C10-C8=110.26              H34-C10-H32=109.18             H34-C10-H33=109.13             
 
 selected dihedral angles (degree)
 ---------------------------------
C3-O2-C1-H26=301.11           C3-O2-C1-H27=181.56           C3-O2-C1-H28= 61.95           O4-C3-O2-C1=359.62            
C5-C3-O2-C1=179.16            N6-C5-C3-O2=  0.88            N6-C5-C3-O4=180.37            C24-C5-C3-O2=181.76           
C24-C5-C3-O4=  1.24           C7-N6-C5-C3=181.55            C7-N6-C5-C24=  0.67           C8-C7-N6-C5=176.96            
N21-C7-N6-C5=  1.00           C9-C8-C7-N6=266.27            C9-C8-C7-N21= 82.42           C10-C8-C7-N6= 26.32           
C10-C8-C7-N21=202.48          N11-C8-C7-N6=147.56           N11-C8-C7-N21=323.71          H29-C9-C8-C7=173.99           
H29-C9-C8-C10= 54.62          H29-C9-C8-N11=290.55          H30-C9-C8-C7=294.47           H30-C9-C8-C10=175.11          
H30-C9-C8-N11= 51.03          H31-C9-C8-C7= 53.95           H31-C9-C8-C10=294.58          H31-C9-C8-N11=170.51          
H32-C10-C8-C7=303.88          H32-C10-C8-C9= 61.70          H32-C10-C8-N11=185.23         H33-C10-C8-C7= 63.27          
H33-C10-C8-C9=181.10          H33-C10-C8-N11=304.63         H34-C10-C8-C7=183.75          H34-C10-C8-C9=301.57          
H34-C10-C8-N11= 65.10         
           -------------------------------------------------
          |                Final Singlepoint                |
           -------------------------------------------------

          ...................................................
          :                      SETUP                      :
          :.................................................:
          :  # basis functions                 134          :
          :  # atomic orbitals                 134          :
          :  # shells                           84          :
          :  # electrons                       136          :
          :  # halogen bonds                     0          :
          :  max. iterations                   250          :
          :  Hamiltonian                  GFN1-xTB          :
          :  restarted?                      false          :
          :  GBSA solvation                   true          :
          :  PC potential                    false          :
          :  electronic temp.          300.0000000     K    :
          :  accuracy                    1.0000000          :
          :  -> integral cutoff          0.2500000E+02      :
          :  -> integral neglect         0.1000000E-07      :
          :  -> SCF convergence          0.1000000E-05 Eh   :
          :  -> wf. convergence          0.2000000E-04 e    :
          :  Broyden damping             0.4000000          :
          ...................................................

 iter      E             dE          RMSdq      gap      omega  full diag
   1    -84.4044983 -0.844045E+02  0.672E-06    1.32       0.0  T
   2    -84.4044983 -0.426326E-12  0.329E-06    1.32    4693.1  T
   3    -84.4044983 -0.113687E-12  0.229E-06    1.32    6724.2  T

   *** convergence criteria satisfied after 3 iterations ***

         #    Occupation            Energy/Eh            Energy/eV
      -------------------------------------------------------------
         1        2.0000           -0.7920826             -21.5537
       ...           ...                  ...                  ...
        62        2.0000           -0.4069964             -11.0749
        63        2.0000           -0.4009343             -10.9100
        64        2.0000           -0.3878952             -10.5552
        65        2.0000           -0.3698230             -10.0634
        66        2.0000           -0.3673814              -9.9970
        67        2.0000           -0.3569448              -9.7130
        68        2.0000           -0.3117238              -8.4824 (HOMO)
        69                         -0.2633275              -7.1655 (LUMO)
        70                         -0.2360119              -6.4222
        71                         -0.2268879              -6.1739
        72                         -0.1896585              -5.1609
        73                         -0.1228786              -3.3437
       ...                                ...                  ...
       134                          0.7679986              20.8983
      -------------------------------------------------------------
                  HL-Gap            0.0483963 Eh            1.3169 eV
             Fermi-level           -0.2875256 Eh           -7.8240 eV

 SCC (total)                   0 d,  0 h,  0 min,  0.095 sec
 SCC setup                      ...        0 min,  0.002 sec (  1.674%)
 Dispersion                     ...        0 min,  0.000 sec (  0.243%)
 classical contributions        ...        0 min,  0.000 sec (  0.082%)
 integral evaluation            ...        0 min,  0.023 sec ( 24.650%)
 iterations                     ...        0 min,  0.015 sec ( 15.844%)
 molecular gradient             ...        0 min,  0.053 sec ( 56.281%)
 printout                       ...        0 min,  0.001 sec (  1.202%)

         :::::::::::::::::::::::::::::::::::::::::::::::::::::
         ::                     SUMMARY                     ::
         :::::::::::::::::::::::::::::::::::::::::::::::::::::
         :: total energy             -83.667476236229 Eh    ::
         :: total w/o Gsasa/hb       -83.647659275844 Eh    ::
         :: gradient norm              0.000366379381 Eh/a0 ::
         :: HOMO-LUMO gap              1.316929123180 eV    ::
         ::.................................................::
         :: SCC energy               -84.404498333484 Eh    ::
         :: -> electrostatic           0.661283208383 Eh    ::
         :: -> Gsolv                  -0.253931421889 Eh    ::
         ::    -> Gelec               -0.234114461503 Eh    ::
         ::    -> Gsasa               -0.024609687517 Eh    ::
         ::    -> Ghb                 -0.002831551873 Eh    ::
         ::    -> Gshift               0.007624279005 Eh    ::
         :: repulsion energy           0.762431294325 Eh    ::
         :: dispersion energy         -0.025409197069 Eh    ::
         :: halogen bond corr.         0.000000000000 Eh    ::
         :: add. restraining           0.000000000000 Eh    ::
         :: total charge              -2.000000000000 e     ::
         :::::::::::::::::::::::::::::::::::::::::::::::::::::

           -------------------------------------------------
          |                Property Printout                |
           -------------------------------------------------

    * Orbital Energies and Occupations

         #    Occupation            Energy/Eh            Energy/eV
      -------------------------------------------------------------
         1        2.0000           -0.7920826             -21.5537
       ...           ...                  ...                  ...
        56        2.0000           -0.4470358             -12.1645
        57        2.0000           -0.4435125             -12.0686
        58        2.0000           -0.4316306             -11.7453
        59        2.0000           -0.4312026             -11.7336
        60        2.0000           -0.4298731             -11.6974
        61        2.0000           -0.4132719             -11.2457
        62        2.0000           -0.4069964             -11.0749
        63        2.0000           -0.4009343             -10.9100
        64        2.0000           -0.3878952             -10.5552
        65        2.0000           -0.3698230             -10.0634
        66        2.0000           -0.3673814              -9.9970
        67        2.0000           -0.3569448              -9.7130
        68        2.0000           -0.3117238              -8.4824 (HOMO)
        69                         -0.2633275              -7.1655 (LUMO)
        70                         -0.2360119              -6.4222
        71                         -0.2268879              -6.1739
        72                         -0.1896585              -5.1609
        73                         -0.1228786              -3.3437
        74                         -0.1198064              -3.2601
        75                         -0.1023047              -2.7839
        76                         -0.1016947              -2.7673
        77                         -0.0988111              -2.6888
        78                         -0.0968855              -2.6364
        79                         -0.0956210              -2.6020
       ...                                ...                  ...
       134                          0.7679986              20.8983
      -------------------------------------------------------------
                  HL-Gap            0.0483963 Eh            1.3169 eV
             Fermi-level           -0.2875256 Eh           -7.8240 eV

  Mulliken/CM5 charges         n(s)   n(p)   n(d)
     1C     0.17382  0.05468   0.969  2.857  0.000
     2O    -0.44903 -0.52916   1.694  4.756  0.000
     3C     0.54208  0.60581   0.979  2.479  0.000
     4O    -0.61617 -0.66107   1.734  4.883  0.000
     5C    -0.02251  0.05296   1.037  2.985  0.000
     6N    -0.39642 -0.58077   1.534  3.863  0.000
     7C     0.24259  0.39294   1.011  2.746  0.000
     8C     0.15798  0.19812   1.060  2.782  0.000
     9C    -0.09100 -0.23011   1.014  3.077  0.000
    10C    -0.09351 -0.23218   1.013  3.081  0.000
    11N    -0.41398 -0.75375   1.459  3.955  0.000
    12C     0.40497  0.50050   0.987  2.608  0.000
    13O    -0.66142 -0.70614   1.742  4.919  0.000
    14C     0.22093  0.33593   0.984  2.795  0.000
    15N    -0.25316 -0.35923   1.559  3.694  0.000
    16N    -0.39462 -0.48355   1.598  3.796  0.000
    17C     0.35023  0.41401   1.030  2.620  0.000
    18C    -0.11011 -0.24861   1.017  3.094  0.000
    19C    -0.11002 -0.24850   1.017  3.093  0.000
    20O    -0.48534 -0.53814   1.714  4.771  0.000
    21N    -0.31186 -0.65581   1.435  3.876  0.000
    22C     0.42201  0.52595   1.010  2.568  0.000
    23O    -0.62172 -0.65880   1.737  4.884  0.000
    24C     0.28439  0.32953   1.033  2.682  0.000
    25O    -0.64032 -0.67810   1.744  4.896  0.000
    26H     0.03114  0.09297   0.969  0.000  0.000
    27H     0.03049  0.09075   0.970  0.000  0.000
    28H     0.03061  0.09210   0.969  0.000  0.000
    29H     0.04588  0.10676   0.954  0.000  0.000
    30H     0.02524  0.08316   0.975  0.000  0.000
    31H     0.02022  0.07560   0.980  0.000  0.000
    32H     0.02529  0.08362   0.975  0.000  0.000
    33H     0.02513  0.08224   0.975  0.000  0.000
    34H     0.03919  0.09805   0.961  0.000  0.000
    35H     0.20417  0.41143   0.796  0.000  0.000
    36H     0.02032  0.07575   0.980  0.000  0.000
    37H     0.02857  0.08628   0.971  0.000  0.000
    38H     0.02364  0.07848   0.976  0.000  0.000
    39H     0.02376  0.07858   0.976  0.000  0.000
    40H     0.02887  0.08660   0.971  0.000  0.000
    41H     0.02037  0.07583   0.980  0.000  0.000
    42H     0.24929  0.45529   0.751  0.000  0.000

Wiberg/Mayer (AO) data.
largest (>0.10) Wiberg bond orders for each atom

 ---------------------------------------------------------------------------
     #   Z sym  total        # sym  WBO       # sym  WBO       # sym  WBO
 ---------------------------------------------------------------------------
     1   6 C    3.902 --    27 H    0.987    28 H    0.980    26 H    0.980
                             2 O    0.930
     2   8 O    2.134 --     3 C    1.019     1 C    0.930     4 O    0.107
     3   6 C    3.849 --     4 O    1.585     5 C    1.127     2 O    1.019
     4   8 O    1.862 --     3 C    1.585     2 O    0.107
     5   6 C    3.918 --    24 C    1.271     6 N    1.148     3 C    1.127
                            25 O    0.130
     6   7 N    3.024 --     7 C    1.633     5 C    1.148
     7   6 C    3.929 --     6 N    1.633    21 N    1.095     8 C    0.977
     8   6 C    3.957 --    10 C    0.989     9 C    0.981     7 C    0.977
                            11 N    0.953
     9   6 C    3.992 --    31 H    0.988    30 H    0.986     8 C    0.981
                            29 H    0.978
    10   6 C    3.994 --     8 C    0.989    33 H    0.987    32 H    0.985
                            34 H    0.984
    11   7 N    3.162 --    12 C    1.043     8 C    0.953    35 H    0.921
    12   6 C    3.923 --    13 O    1.468    14 C    1.229    11 N    1.043
    13   8 O    1.813 --    12 C    1.468
    14   6 C    3.849 --    15 N    1.391    12 C    1.229    20 O    0.933
                            16 N    0.160
    15   7 N    3.048 --    16 N    1.465    14 C    1.391
    16   7 N    2.880 --    15 N    1.465    17 C    0.981    14 C    0.160
    17   6 C    3.901 --    16 N    0.981    19 C    0.978    18 C    0.977
                            20 O    0.929
    18   6 C    3.995 --    36 H    0.988    38 H    0.987    37 H    0.985
                            17 C    0.977
    19   6 C    3.995 --    41 H    0.988    39 H    0.987    40 H    0.985
                            17 C    0.978
    20   8 O    2.054 --    14 C    0.933    17 C    0.929
    21   7 N    3.434 --    22 C    1.172     7 C    1.095    42 H    0.895
                            23 O    0.135
    22   6 C    3.881 --    23 O    1.565    21 N    1.172    24 C    0.970
    23   8 O    1.844 --    22 C    1.565    21 N    0.135
    24   6 C    3.943 --    25 O    1.514     5 C    1.271    22 C    0.970
    25   8 O    1.818 --    24 C    1.514     5 C    0.130
    26   1 H    1.015 --     1 C    0.980
    27   1 H    1.016 --     1 C    0.987
    28   1 H    1.014 --     1 C    0.980
    29   1 H    1.024 --     9 C    0.978
    30   1 H    1.008 --     9 C    0.986
    31   1 H    1.008 --     9 C    0.988
    32   1 H    1.018 --    10 C    0.985
    33   1 H    1.008 --    10 C    0.987
    34   1 H    1.014 --    10 C    0.984
    35   1 H    0.986 --    11 N    0.921
    36   1 H    1.010 --    18 C    0.988
    37   1 H    1.015 --    18 C    0.985
    38   1 H    1.009 --    18 C    0.987
    39   1 H    1.008 --    19 C    0.987
    40   1 H    1.015 --    19 C    0.985
    41   1 H    1.010 --    19 C    0.988
    42   1 H    0.957 --    21 N    0.895
 ---------------------------------------------------------------------------

Topologies differ in total number of bonds
Writing topology from bond orders to xtbtopo.mol

 dipole moment from electron density (au)
     X       Y       Z   
   3.8889  -3.5102   3.8398  total (Debye):   16.510

           -------------------------------------------------
          |                Geometry Summary                 |
           -------------------------------------------------

      molecular mass/u    :      351.3152409
   center of mass at/Å    :       -0.4887586       0.2817493      -0.2445819
  moments of inertia/u·Å² :        0.1140061E+04   0.5369656E+04   0.5833156E+04
rotational constants/cm⁻¹ :        0.1478661E-01   0.3139425E-02   0.2889967E-02

 * 36 selected distances

     #   Z          #   Z                                           value/Å
     1   6 C        2   8 O                                       1.4185778
     2   8 O        3   6 C                                       1.3719944
     3   6 C        4   8 O                                       1.2228389
     6   7 N        7   6 C                                       1.2816860
     8   6 C        9   6 C                                       1.5387999 (max)
     8   6 C       10   6 C                                       1.5355373
     8   6 C       11   7 N                                       1.4626571
    11   7 N       12   6 C                                       1.4178953
    12   6 C       14   6 C                                       1.4122978
    14   6 C       15   7 N                                       1.3272671
    15   7 N       16   7 N                                       1.2993445
    17   6 C       18   6 C                                       1.5385535
    17   6 C       19   6 C                                       1.5379728
    14   6 C       20   8 O                                       1.4065259
    17   6 C       20   8 O                                       1.4197713
     7   6 C       21   7 N                                       1.3797325
    21   7 N       22   6 C                                       1.3674241
    22   6 C       23   8 O                                       1.2315136
     5   6 C       24   6 C                                       1.4200845
     1   6 C       26   1 H                                       1.0951349
     1   6 C       27   1 H                                       1.0893218
     1   6 C       28   1 H                                       1.0950746
     9   6 C       29   1 H                                       1.0880274
     9   6 C       30   1 H                                       1.0894982
     9   6 C       31   1 H                                       1.0899090
    10   6 C       32   1 H                                       1.0895872
    10   6 C       33   1 H                                       1.0897552
    10   6 C       34   1 H                                       1.0887100
    11   7 N       35   1 H                                       1.0164836
    18   6 C       36   1 H                                       1.0879602
    18   6 C       37   1 H                                       1.0889887
    18   6 C       38   1 H                                       1.0885244
    19   6 C       39   1 H                                       1.0885964
    19   6 C       40   1 H                                       1.0889269
    19   6 C       41   1 H                                       1.0879967
    21   7 N       42   1 H                                       1.0101294 (min)

 * 6 distinct bonds (by element types)

   Z      Z             #   av. dist./Å        max./Å        min./Å
   1 H    6 C          15     1.0897341     1.0951349     1.0879602
   6 C    6 C           6     1.4972076     1.5387999     1.4122978
   1 H    7 N           2     1.0133065     1.0164836     1.0101294
   6 C    7 N           6     1.3727770     1.4626571     1.2816860
   7 N    7 N           1     1.2993445     1.2993445     1.2993445
   6 C    8 O           6     1.3452036     1.4197713     1.2228389


optimized geometry written to: xtbopt.xyz


           -------------------------------------------------
          | TOTAL ENERGY              -83.667476236229 Eh   |
          | GRADIENT NORM               0.000366379381 Eh/α |
          | HOMO-LUMO GAP               1.316929123180 eV   |
           -------------------------------------------------

------------------------------------------------------------------------
 * finished run on 2023/06/21 at 17:12:39.096     
------------------------------------------------------------------------
 total:
 * wall-time:     0 d,  0 h,  0 min,  2.028 sec
 *  cpu-time:     0 d,  0 h,  0 min,  1.990 sec
 * ratio c/w:     0.981 speedup
 SCF:
 * wall-time:     0 d,  0 h,  0 min,  0.112 sec
 *  cpu-time:     0 d,  0 h,  0 min,  0.112 sec
 * ratio c/w:     1.000 speedup
 ANC optimizer:
 * wall-time:     0 d,  0 h,  0 min,  1.850 sec
 *  cpu-time:     0 d,  0 h,  0 min,  1.841 sec
 * ratio c/w:     0.996 speedup

