47
 energy: -79.546392088101 gnorm: 0.000689813217 xtb: 6.5.1 (579679a)
C           -3.80016153688204       -3.22453339722172        1.19142899828130
N           -2.56861966854784       -2.60101633089936        0.70606556805331
C           -1.37557711457767       -3.25255706365754        0.95514863005104
O           -1.30323646295997       -4.31476386232353        1.56284039437956
C           -0.19660997437697       -2.58532338860511        0.42682180355034
O            0.96692246609749       -3.22226955897341        0.65852905413817
C           -0.29972546911525       -1.40101363930328       -0.24354634342799
C            0.81307062404487       -0.61115690304906       -0.84664954168928
O            0.61279963237817        0.52974977037313       -1.28676849646523
N            2.01062633587008       -1.19656897893858       -0.91204650806137
C            3.15354742307264       -0.50397595669744       -1.50604917306403
C            3.88309178844349        0.30548112654460       -0.45629765476008
C            3.45721335700101        1.59721980876808       -0.15430341381609
C            4.10439023941845        2.34358412114930        0.81983418580401
C            5.17633401998229        1.77041166532933        1.48048183247363
F            5.80819556824739        2.48525476085781        2.42439157515060
C            5.62297966985451        0.49003202436947        1.20804996254621
C            4.96345339858626       -0.24260131938095        0.23061589339109
N           -1.53488855384595       -0.82403928512728       -0.40876000901107
C           -2.60110612230004       -1.41046901106531        0.03590542015617
C           -3.92125291395592       -0.75253358280731       -0.19935615809861
C           -2.08502379857455        2.54964735354152       -0.88092873127900
C           -1.43069193811245        2.34521974150905        0.43192528897971
C           -3.16567370633006        3.54923988319057       -1.02365359011283
N           -1.71633805111492        1.83206393829747       -1.87859635626441
H           -4.46254758083350       -3.42695631042110        0.35119399000435
H           -3.53439008072555       -4.15740429926304        1.68719324767217
H           -4.29344171874103       -2.55787491661664        1.89698317787667
H            0.77841360536076       -4.04424704596054        1.15260854425720
H            2.16588637121496       -2.11371103664083       -0.52416125302470
H            3.81056021525733       -1.26038130707972       -1.94051686364980
H            2.77549199409156        0.14884708085392       -2.29773863023647
H            2.61035494691125        2.01976840858124       -0.68140172057836
H            3.78419141855541        3.34804246716277        1.06389982609419
H            6.46532019936135        0.07754443513561        1.74828664392738
H            5.29565288253440       -1.24820566070216        0.00077619983471
H           -4.42386239656259       -0.53910319549393        0.74389728223842
H           -3.75614941331986        0.17989278294608       -0.73402741434743
H           -4.57234531120700       -1.39341639890565       -0.79446298922333
H           -1.51435765217301        3.22826757211904        1.06138331583054
H           -1.93661972349249        1.51505029345155        0.93021327613661
H           -0.38762317140516        2.05793579222988        0.30215913727446
H           -2.73804875916092        4.54896084518315       -0.92150421502054
H           -3.66575893543522        3.47052429667192       -1.98650372345968
H           -3.88951782163670        3.42571161247459       -0.21769888262146
H           -0.94813092474038        1.14752883036087       -1.75607251043843
H           -2.13679535605682        1.91814583795888       -2.78817906938759
