38
 energy: -79.621631899603 gnorm: 0.000695513754 xtb: 6.5.1 (579679a)
C            5.53121547966411        0.91585063029954        2.03634293426296
O            4.36987720056996        0.68880775888105        1.25064842819997
C            4.33375821029916        1.33853671872225        0.04615479278697
O            5.25440933813589        2.06804154620150       -0.28696306882774
C            3.12913769800676        1.04011639837324       -0.71007821022650
N            2.24230701865204        0.18022194565373       -0.08967502488762
C            1.15405349384128       -0.16268852979687       -0.66896971488994
C            0.18731129633394       -1.11960504924040       -0.00356735916856
C            0.19523862770595       -2.45907511886134       -0.75388422222536
C            0.57528419846356       -1.31020044169222        1.46550025927055
N           -1.15070226438932       -0.51234323980224       -0.08662700174153
C           -2.27033852574524       -1.09298298191944        0.38163589946667
O           -2.34856900421155       -2.20295024241020        0.88062839176341
C           -3.44117936104140       -0.18874843144379        0.21316793476166
N           -3.41456101648840        1.01223276247662       -0.28086093541128
N           -4.69266049167129        1.48436465834399       -0.23705006813718
C           -5.41678210079791        0.54084895672897        0.28223394670305
C           -6.87365701523525        0.55670100190061        0.53929292213825
O           -4.68434500236895       -0.54053544181122        0.58881294266106
N            0.82129116521400        0.29297590406720       -1.93094555470829
C            1.60248953309981        1.15484305459692       -2.65966727517688
O            1.23496020410588        1.51222391451413       -3.77579409896869
C            2.88960949178996        1.59504373298730       -1.99608085601345
O            3.63260330120960        2.38582113448300       -2.60299457799313
H            5.64075264625230        1.97957175312303        2.27164637692704
H            6.42903681885784        0.57661554781919        1.50910343855620
H            5.40936797781704        0.34678412013270        2.95708256373771
H           -0.46256218506178       -3.17473502513075       -0.26472203834099
H            1.20829637289521       -2.85929559703796       -0.76366868074212
H           -0.13925489047616       -2.31572621633004       -1.77989340890103
H            0.51875787922160       -0.35767303575890        1.99116169034842
H           -0.09101658675417       -2.02515911736525        1.94380957177327
H            1.59842561772862       -1.67987587369047        1.52022037202175
H           -1.22524536963550        0.43268475332893       -0.43473142342814
H           -7.36702109781246       -0.20345795619597       -0.06695048466520
H           -7.07055217037798        0.33095849069836        1.58722239055855
H           -7.27847403310838        1.53550397070740        0.29279159214519
H           -0.03126145469968       -0.01963045554411       -2.36433444362431
