      -----------------------------------------------------------      
     |                   =====================                   |     
     |                           x T B                           |     
     |                   =====================                   |     
     |                         S. Grimme                         |     
     |          Mulliken Center for Theoretical Chemistry        |     
     |                    University of Bonn                     |     
      -----------------------------------------------------------      

   * xtb version 6.5.1 (579679a) compiled by 'ehlert@majestix' on 2022-07-11

   xtb is free software: you can redistribute it and/or modify it under
   the terms of the GNU Lesser General Public License as published by
   the Free Software Foundation, either version 3 of the License, or
   (at your option) any later version.
   
   xtb is distributed in the hope that it will be useful,
   but WITHOUT ANY WARRANTY; without even the implied warranty of
   MERCHANTABILITY or FITNESS FOR A PARTICULAR PURPOSE.  See the
   GNU Lesser General Public License for more details.
   
   Cite this work as:
   * C. Bannwarth, E. Caldeweyher, S. Ehlert, A. Hansen, P. Pracht,
     J. Seibert, S. Spicher, S. Grimme, WIREs Comput. Mol. Sci., 2020, 11,
     e01493. DOI: 10.1002/wcms.1493
   
   for GFN2-xTB:
   * C. Bannwarth, S. Ehlert and S. Grimme., J. Chem. Theory Comput., 2019,
     15, 1652-1671. DOI: 10.1021/acs.jctc.8b01176
   for GFN1-xTB:
   * S. Grimme, C. Bannwarth, P. Shushkov, J. Chem. Theory Comput., 2017,
     13, 1989-2009. DOI: 10.1021/acs.jctc.7b00118
   for GFN0-xTB:
   * P. Pracht, E. Caldeweyher, S. Ehlert, S. Grimme, ChemRxiv, 2019, preprint.
     DOI: 10.26434/chemrxiv.8326202.v1
   for GFN-FF:
   * S. Spicher and S. Grimme, Angew. Chem. Int. Ed., 2020, 59, 15665-15673.
     DOI: 10.1002/anie.202004239
   
   for ALPB and GBSA implicit solvation:
   * S. Ehlert, M. Stahn, S. Spicher, S. Grimme, J. Chem. Theory Comput.,
     2021, 17, 4250-4261. DOI: 10.1021/acs.jctc.1c00471
   
   for DFT-D4:
   * E. Caldeweyher, C. Bannwarth and S. Grimme, J. Chem. Phys., 2017,
     147, 034112. DOI: 10.1063/1.4993215
   * E. Caldeweyher, S. Ehlert, A. Hansen, H. Neugebauer, S. Spicher,
     C. Bannwarth and S. Grimme, J. Chem. Phys., 2019, 150, 154122.
     DOI: 10.1063/1.5090222
   * E. Caldeweyher, J.-M. Mewes, S. Ehlert and S. Grimme, Phys. Chem. Chem. Phys.
     2020, 22, 8499-8512. DOI: 10.1039/D0CP00502A
   
   for sTDA-xTB:
   * S. Grimme and C. Bannwarth, J. Chem. Phys., 2016, 145, 054103.
     DOI: 10.1063/1.4959605
   
   in the mass-spec context:
   * V. Asgeirsson, C. Bauer and S. Grimme, Chem. Sci., 2017, 8, 4879.
     DOI: 10.1039/c7sc00601b
   * J. Koopman and S. Grimme, ACS Omega 2019, 4, 12, 15120-15133.
     DOI: 10.1021/acsomega.9b02011
   
   for metadynamics refer to:
   * S. Grimme, J. Chem. Theory Comput., 2019, 155, 2847-2862
     DOI: 10.1021/acs.jctc.9b00143
   
   for SPH calculations refer to:
   * S. Spicher and S. Grimme, J. Chem. Theory Comput., 2021, 17, 1701-1714
     DOI: 10.1021/acs.jctc.0c01306
   
   with help from (in alphabetical order)
   P. Atkinson, C. Bannwarth, F. Bohle, G. Brandenburg, E. Caldeweyher
   M. Checinski, S. Dohm, S. Ehlert, S. Ehrlich, I. Gerasimov, C. Hölzer
   A. Katbashev, J. Koopman, C. Lavigne, S. Lehtola, F. März, M. Müller,
   F. Musil, H. Neugebauer, J. Pisarek, C. Plett, P. Pracht, F. Pultar,
   J. Seibert, P. Shushkov, S. Spicher, M. Stahn, M. Steiner, T. Strunk,
   J. Stückrath, T. Rose, and J. Unsleber
   
 * started run on 2023/06/20 at 17:55:14.393     

           -------------------------------------------------
          |                Calculation Setup                |
           -------------------------------------------------

          program call               : /lustre/hpc/kemi/ree/PhD/git/ReactivityQM/dep/xtb-6.5.1/bin/xtb --gfn 1 /lustre/hpc/kemi/ree/PhD/git/ReactivityQM/calculations/R02deprot/reac01prodE11/conf09/R02deprot_reac01prodE11_conf09_gfn1.xyz --opt --vfukui --chrg -2 --uhf 0 --alpb DMSO
          hostname                   : node308
          coordinate file            : /lustre/hpc/kemi/ree/PhD/git/ReactivityQM/calculations/R02deprot/reac01prodE11/conf09/R02deprot_reac01prodE11_conf09_gfn1.xyz
          omp threads                :                     1

   ID    Z sym.   atoms
    1    6 C      1, 3, 5, 7-10, 12, 14, 17-19, 22, 24
    2    8 O      2, 4, 13, 20, 23, 25
    3    7 N      6, 11, 15, 16, 21
    4    1 H      26-42

           -------------------------------------------------
          |                 G F N 1 - x T B                 |
           -------------------------------------------------

        Reference                      10.1021/acs.jctc.7b00118
      * Hamiltonian:
        H0-scaling (s, p, d)           1.850000    2.250000    2.000000
        zeta-weighting                 0.000000
      * Dispersion:
        s8                             2.400000
        a1                             0.630000
        a2                             5.000000
        s9                             0.000000
      * Repulsion:
        kExp                           1.500000
        rExp                           1.000000
      * Coulomb:
        alpha                          2.000000
        third order                    atomic
        anisotropic                    false
      * Halogen bond correction:
        rad-scale                      1.300000
        damping                        0.440000

      * Solvation model:               ALPB
        Solvent                        DMSO
        Parameter file                 internal GFN1-xTB/ALPB
        Dielectric constant                4.6680E+01
        Reference state                gsolv [1 M gas/solution]
        Free energy shift                  7.6243E-03 Eh       4.7843E+00 kcal/mol
        Temperature                        2.9815E+02 K
        Density                            1.1000E+00 kg/L
        Solvent mass                       7.8130E+01 g/mol
        Interaction kernel             P16
        Born radius scaling (c1)           1.7672E+00
        Born radii integrator          GBOBC
        Born offset                        0.0000E+00 a0       0.0000E+00 AA
        H-bond correction              true
        Ion screening                  false
        Surface tension                    1.0000E-05 Eh       1.5569E+01 dyn/cm
        Grid points                               230 per atom

          ...................................................
          :                      SETUP                      :
          :.................................................:
          :  # basis functions                 134          :
          :  # atomic orbitals                 134          :
          :  # shells                           84          :
          :  # electrons                       136          :
          :  # halogen bonds                     0          :
          :  max. iterations                   250          :
          :  Hamiltonian                  GFN1-xTB          :
          :  restarted?                      false          :
          :  GBSA solvation                   true          :
          :  PC potential                    false          :
          :  electronic temp.          300.0000000     K    :
          :  accuracy                    1.0000000          :
          :  -> integral cutoff          0.2500000E+02      :
          :  -> integral neglect         0.1000000E-07      :
          :  -> SCF convergence          0.1000000E-05 Eh   :
          :  -> wf. convergence          0.2000000E-04 e    :
          :  Broyden damping             0.4000000          :
          ...................................................

 iter      E             dE          RMSdq      gap      omega  full diag
   1    -84.0971130 -0.840971E+02  0.861E+00    1.86       0.0  T
   2    -84.3453998 -0.248287E+00  0.514E+00    0.72       1.0  T
   3    -84.3212905  0.241094E-01  0.145E+00    0.68       1.0  T
   4    -84.3532835 -0.319930E-01  0.367E-01    0.37       1.0  T
   5    -84.3595550 -0.627157E-02  0.813E-02    0.39       1.0  T
   6    -84.3598919 -0.336895E-03  0.174E-02    0.42       1.0  T
   7    -84.3599012 -0.925480E-05  0.503E-03    0.42       3.1  T
   8    -84.3599014 -0.216340E-06  0.233E-03    0.42       6.6  T
   9    -84.3599014 -0.335521E-07  0.759E-04    0.42      20.3  T
  10    -84.3599014 -0.706872E-08  0.218E-04    0.42      70.6  T
  11    -84.3599014 -0.128622E-08  0.567E-05    0.42     272.1  T
  12    -84.3599014 -0.446363E-10  0.298E-05    0.42     517.8  T

   *** convergence criteria satisfied after 12 iterations ***

         #    Occupation            Energy/Eh            Energy/eV
      -------------------------------------------------------------
         1        2.0000           -0.8188107             -22.2810
       ...           ...                  ...                  ...
        62        2.0000           -0.3899651             -10.6115
        63        2.0000           -0.3854788             -10.4894
        64        2.0000           -0.3772646             -10.2659
        65        2.0000           -0.3634314              -9.8895
        66        2.0000           -0.3603076              -9.8045
        67        2.0000           -0.3543329              -9.6419
        68        1.9995           -0.2949269              -8.0254 (HOMO)
        69        0.0005           -0.2793333              -7.6010 (LUMO)
        70                         -0.2185435              -5.9469
        71                         -0.2170645              -5.9066
        72                         -0.1881416              -5.1196
        73                         -0.1228473              -3.3428
       ...                                ...                  ...
       134                          0.7233660              19.6838
      -------------------------------------------------------------
                  HL-Gap            0.0155936 Eh            0.4243 eV
             Fermi-level           -0.2871301 Eh           -7.8132 eV

 SCC (total)                   0 d,  0 h,  0 min,  0.295 sec
 SCC setup                      ...        0 min,  0.002 sec (  0.725%)
 Dispersion                     ...        0 min,  0.000 sec (  0.144%)
 classical contributions        ...        0 min,  0.000 sec (  0.045%)
 integral evaluation            ...        0 min,  0.065 sec ( 21.889%)
 iterations                     ...        0 min,  0.096 sec ( 32.375%)
 molecular gradient             ...        0 min,  0.131 sec ( 44.437%)
 printout                       ...        0 min,  0.001 sec (  0.365%)

         :::::::::::::::::::::::::::::::::::::::::::::::::::::
         ::                     SUMMARY                     ::
         :::::::::::::::::::::::::::::::::::::::::::::::::::::
         :: total energy             -83.635573445803 Eh    ::
         :: total w/o Gsasa/hb       -83.614436052045 Eh    ::
         :: gradient norm              0.133575476937 Eh/a0 ::
         :: HOMO-LUMO gap              0.424324137970 eV    ::
         ::.................................................::
         :: SCC energy               -84.359901440827 Eh    ::
         :: -> electrostatic           0.667066122124 Eh    ::
         :: -> Gsolv                  -0.267032327410 Eh    ::
         ::    -> Gelec               -0.245894933652 Eh    ::
         ::    -> Gsasa               -0.024891313874 Eh    ::
         ::    -> Ghb                 -0.003870358889 Eh    ::
         ::    -> Gshift               0.007624279005 Eh    ::
         :: repulsion energy           0.749379921545 Eh    ::
         :: dispersion energy         -0.025051926521 Eh    ::
         :: halogen bond corr.         0.000000000000 Eh    ::
         :: add. restraining           0.000000000000 Eh    ::
         :: total charge              -2.000000000000 e     ::
         :::::::::::::::::::::::::::::::::::::::::::::::::::::

      ----------------------------------------------------------- 
     |                   =====================                   |
     |                        A N C O P T                        |
     |                   =====================                   |
     |               Approximate Normal Coordinate               |
     |                Rational Function Optimizer                |
      ----------------------------------------------------------- 

          ...................................................
          :                      SETUP                      :
          :.................................................:
          :   optimization level            normal          :
          :   max. optcycles                   200          :
          :   ANC micro-cycles                  20          :
          :   degrees of freedom               120          :
          :.................................................:
          :   RF solver                   davidson          :
          :   write xtbopt.log                true          :
          :   linear?                        false          :
          :   energy convergence         0.5000000E-05 Eh   :
          :   grad. convergence          0.1000000E-02 Eh/α :
          :   maximium RF displ.         1.0000000          :
          :   Hlow (freq-cutoff)         0.1000000E-01      :
          :   Hmax (freq-cutoff)         5.0000000          :
          :   S6 in model hess.         20.0000000          :
          ...................................................

generating ANC from model Hessian ...
Using Lindh-Hessian (1995)
 Shifting diagonal of input Hessian by   9.835283714367598E-003
 Lowest  eigenvalues of input Hessian
    0.000000    0.000000    0.000000    0.000000    0.000000    0.000000
    0.010000    0.010214    0.010331    0.010743    0.011870    0.012224
    0.012812    0.013596    0.014443    0.014984    0.016930    0.017125
 Highest eigenvalues
    1.983176    2.046894    2.144864    2.232091    2.269363    2.313491
 

........................................................................
.............................. CYCLE    1 ..............................
........................................................................
   1    -84.3599014 -0.843599E+02  0.477E-06    0.42       0.0  T
   2    -84.3599014 -0.540012E-12  0.227E-06    0.42    6793.4  T
   3    -84.3599014  0.142109E-12  0.143E-06    0.42   10764.5  T
     SCC iter.                  ...        0 min,  0.012 sec
     gradient                   ...        0 min,  0.079 sec
 * total energy  :   -83.6355734 Eh     change       -0.4575895E-11 Eh
   gradient norm :     0.1335757 Eh/α   predicted     0.0000000E+00 (-100.00%)
   displ. norm   :     0.2467966 α      lambda       -0.1662470E-01
   maximum displ.:     0.0867386 α      in ANC's #26, #22, #32, ...

........................................................................
.............................. CYCLE    2 ..............................
........................................................................
   1    -84.3703128 -0.843703E+02  0.103E-01    0.70       0.0  T
   2    -84.3707322 -0.419315E-03  0.575E-02    0.69       1.0  T
   3    -84.3708371 -0.104975E-03  0.182E-02    0.69       1.0  T
   4    -84.3708362  0.889423E-06  0.135E-02    0.69       1.1  T
   5    -84.3708389 -0.264526E-05  0.183E-03    0.69       8.4  T
   6    -84.3708391 -0.191287E-06  0.493E-04    0.69      31.3  T
   7    -84.3708391 -0.868040E-08  0.151E-04    0.69     101.9  T
   8    -84.3708391 -0.415341E-09  0.351E-05    0.69     440.0  T
     SCC iter.                  ...        0 min,  0.031 sec
     gradient                   ...        0 min,  0.079 sec
 * total energy  :   -83.6474252 Eh     change       -0.1185176E-01 Eh
   gradient norm :     0.0592156 Eh/α   predicted    -0.8822099E-02 ( -25.56%)
   displ. norm   :     0.2600870 α      lambda       -0.6390308E-02
   maximum displ.:     0.1183194 α      in ANC's #32, #22, #26, ...

........................................................................
.............................. CYCLE    3 ..............................
........................................................................
   1    -84.3788158 -0.843788E+02  0.859E-02    0.87       0.0  T
   2    -84.3791149 -0.299117E-03  0.492E-02    0.87       1.0  T
   3    -84.3791922 -0.772804E-04  0.151E-02    0.87       1.0  T
   4    -84.3791914  0.742715E-06  0.116E-02    0.87       1.3  T
   5    -84.3791932 -0.181065E-05  0.174E-03    0.87       8.9  T
   6    -84.3791934 -0.185223E-06  0.349E-04    0.87      44.2  T
   7    -84.3791934 -0.453767E-08  0.804E-05    0.87     192.0  T
   8    -84.3791934 -0.182609E-09  0.260E-05    0.87     593.5  T
     SCC iter.                  ...        0 min,  0.030 sec
     gradient                   ...        0 min,  0.079 sec
 * total energy  :   -83.6510852 Eh     change       -0.3659961E-02 Eh
   gradient norm :     0.0142572 Eh/α   predicted    -0.3411845E-02 (  -6.78%)
   displ. norm   :     0.1408149 α      lambda       -0.6488311E-03
   maximum displ.:     0.0592526 α      in ANC's #7, #32, #22, ...

........................................................................
.............................. CYCLE    4 ..............................
........................................................................
   1    -84.3808786 -0.843809E+02  0.166E-02    0.89       0.0  T
   2    -84.3808879 -0.929765E-05  0.810E-03    0.89       1.9  T
   3    -84.3808893 -0.143885E-05  0.374E-03    0.89       4.1  T
   4    -84.3808894 -0.260857E-07  0.191E-03    0.89       8.1  T
   5    -84.3808894 -0.453348E-07  0.364E-04    0.89      42.4  T
   6    -84.3808894 -0.631938E-08  0.156E-04    0.89      99.0  T
   7    -84.3808894 -0.826290E-09  0.330E-05    0.89     467.0  T
     SCC iter.                  ...        0 min,  0.027 sec
     gradient                   ...        0 min,  0.079 sec
 * total energy  :   -83.6515562 Eh     change       -0.4710498E-03 Eh
   gradient norm :     0.0097228 Eh/α   predicted    -0.3308506E-03 ( -29.76%)
   displ. norm   :     0.1836825 α      lambda       -0.4441926E-03
   maximum displ.:     0.0888291 α      in ANC's #7, #5, #2, ...

........................................................................
.............................. CYCLE    5 ..............................
........................................................................
   1    -84.3824967 -0.843825E+02  0.142E-02    0.90       0.0  T
   2    -84.3825018 -0.507051E-05  0.658E-03    0.90       2.3  T
   3    -84.3825028 -0.100662E-05  0.378E-03    0.90       4.1  T
   4    -84.3825028 -0.499722E-07  0.143E-03    0.90      10.8  T
   5    -84.3825029 -0.624324E-07  0.253E-04    0.90      61.1  T
   6    -84.3825029 -0.162288E-08  0.104E-04    0.90     149.1  T
   7    -84.3825029 -0.322743E-09  0.337E-05    0.90     457.5  T
     SCC iter.                  ...        0 min,  0.026 sec
     gradient                   ...        0 min,  0.079 sec
 * total energy  :   -83.6518440 Eh     change       -0.2877532E-03 Eh
   gradient norm :     0.0060087 Eh/α   predicted    -0.2296336E-03 ( -20.20%)
   displ. norm   :     0.1453342 α      lambda       -0.1555530E-03
   maximum displ.:     0.0745079 α      in ANC's #2, #5, #7, ...

........................................................................
.............................. CYCLE    6 ..............................
........................................................................
   1    -84.3832303 -0.843832E+02  0.985E-03    0.90       0.0  T
   2    -84.3832332 -0.296884E-05  0.591E-03    0.90       2.6  T
   3    -84.3832347 -0.142714E-05  0.203E-03    0.90       7.6  T
   4    -84.3832347 -0.144218E-07  0.104E-03    0.90      14.8  T
   5    -84.3832347 -0.980096E-08  0.121E-04    0.90     127.9  T
   6    -84.3832347 -0.333301E-09  0.442E-05    0.90     349.2  T
     SCC iter.                  ...        0 min,  0.023 sec
     gradient                   ...        0 min,  0.079 sec
 * total energy  :   -83.6519599 Eh     change       -0.1159072E-03 Eh
   gradient norm :     0.0041800 Eh/α   predicted    -0.7945304E-04 ( -31.45%)
   displ. norm   :     0.1930328 α      lambda       -0.1450869E-03
   maximum displ.:     0.1080885 α      in ANC's #2, #5, #7, ...

........................................................................
.............................. CYCLE    7 ..............................
........................................................................
   1    -84.3834802 -0.843835E+02  0.105E-02    0.91       0.0  T
   2    -84.3834843 -0.402510E-05  0.677E-03    0.91       2.3  T
   3    -84.3834862 -0.197470E-05  0.197E-03    0.91       7.8  T
   4    -84.3834863 -0.874897E-08  0.118E-03    0.91      13.1  T
   5    -84.3834863 -0.879415E-08  0.161E-04    0.91      95.6  T
   6    -84.3834863 -0.603066E-09  0.491E-05    0.91     314.4  T
     SCC iter.                  ...        0 min,  0.023 sec
     gradient                   ...        0 min,  0.079 sec
 * total energy  :   -83.6520654 Eh     change       -0.1055550E-03 Eh
   gradient norm :     0.0039431 Eh/α   predicted    -0.7529957E-04 ( -28.66%)
   displ. norm   :     0.1818495 α      lambda       -0.1020319E-03
   maximum displ.:     0.1100534 α      in ANC's #2, #5, #7, ...

........................................................................
.............................. CYCLE    8 ..............................
........................................................................
   1    -84.3832502 -0.843833E+02  0.612E-03    0.91       0.0  T
   2    -84.3832518 -0.164327E-05  0.391E-03    0.91       3.9  T
   3    -84.3832524 -0.572607E-06  0.135E-03    0.91      11.4  T
   4    -84.3832524 -0.299723E-08  0.869E-04    0.91      17.8  T
   5    -84.3832524 -0.597818E-08  0.148E-04    0.91     104.2  T
   6    -84.3832524 -0.478067E-09  0.445E-05    0.91     346.8  T
     SCC iter.                  ...        0 min,  0.023 sec
     gradient                   ...        0 min,  0.079 sec
 * total energy  :   -83.6521424 Eh     change       -0.7701966E-04 Eh
   gradient norm :     0.0043329 Eh/α   predicted    -0.5270362E-04 ( -31.57%)
   displ. norm   :     0.1679398 α      lambda       -0.8083330E-04
   maximum displ.:     0.1100433 α      in ANC's #2, #5, #7, ...

........................................................................
.............................. CYCLE    9 ..............................
........................................................................
   1    -84.3829723 -0.843830E+02  0.418E-03    0.91       0.0  T
   2    -84.3829729 -0.633680E-06  0.191E-03    0.91       8.1  T
   3    -84.3829730 -0.624765E-07  0.105E-03    0.91      14.6  T
   4    -84.3829730  0.379870E-09  0.433E-04    0.91      35.6  T
   5    -84.3829730 -0.340343E-08  0.113E-04    0.91     136.7  T
   6    -84.3829730 -0.497337E-09  0.350E-05    0.91     441.1  T
     SCC iter.                  ...        0 min,  0.023 sec
     gradient                   ...        0 min,  0.079 sec
 * total energy  :   -83.6522033 Eh     change       -0.6080819E-04 Eh
   gradient norm :     0.0037846 Eh/α   predicted    -0.4155790E-04 ( -31.66%)
   displ. norm   :     0.1359107 α      lambda       -0.5648891E-04
   maximum displ.:     0.0973254 α      in ANC's #2, #4, #5, ...

........................................................................
.............................. CYCLE   10 ..............................
........................................................................
   1    -84.3828461 -0.843828E+02  0.616E-03    0.91       0.0  T
   2    -84.3828472 -0.114282E-05  0.359E-03    0.91       4.3  T
   3    -84.3828478 -0.615549E-06  0.110E-03    0.91      14.0  T
   4    -84.3828479 -0.848141E-08  0.546E-04    0.91      28.3  T
   5    -84.3828479 -0.137439E-08  0.734E-05    0.91     210.1  T
   6    -84.3828479 -0.123265E-09  0.227E-05    0.91     679.3  T
     SCC iter.                  ...        0 min,  0.023 sec
     gradient                   ...        0 min,  0.079 sec
 * total energy  :   -83.6522457 Eh     change       -0.4242233E-04 Eh
   gradient norm :     0.0025906 Eh/α   predicted    -0.2877124E-04 ( -32.18%)
   displ. norm   :     0.1015516 α      lambda       -0.3600694E-04
   maximum displ.:     0.0785080 α      in ANC's #2, #4, #3, ...

........................................................................
.............................. CYCLE   11 ..............................
........................................................................
   1    -84.3830059 -0.843830E+02  0.623E-03    0.91       0.0  T
   2    -84.3830073 -0.136609E-05  0.407E-03    0.91       3.8  T
   3    -84.3830081 -0.852880E-06  0.853E-04    0.91      18.1  T
   4    -84.3830081 -0.409564E-08  0.471E-04    0.91      32.7  T
   5    -84.3830082 -0.791275E-09  0.113E-04    0.91     136.8  T
   6    -84.3830082 -0.138414E-09  0.225E-05    0.91     687.0  T
     SCC iter.                  ...        0 min,  0.024 sec
     gradient                   ...        0 min,  0.079 sec
 * total energy  :   -83.6522733 Eh     change       -0.2757551E-04 Eh
   gradient norm :     0.0015926 Eh/α   predicted    -0.1819430E-04 ( -34.02%)
   displ. norm   :     0.1124179 α      lambda       -0.2373810E-04
   maximum displ.:     0.0907641 α      in ANC's #2, #4, #3, ...

........................................................................
.............................. CYCLE   12 ..............................
........................................................................
   1    -84.3833152 -0.843833E+02  0.664E-03    0.90       0.0  T
   2    -84.3833170 -0.174625E-05  0.469E-03    0.90       3.3  T
   3    -84.3833181 -0.114382E-05  0.880E-04    0.90      17.5  T
   4    -84.3833181 -0.280272E-08  0.503E-04    0.90      30.7  T
   5    -84.3833181 -0.137145E-08  0.165E-04    0.90      93.5  T
   6    -84.3833181 -0.282370E-09  0.368E-05    0.90     419.7  T
     SCC iter.                  ...        0 min,  0.023 sec
     gradient                   ...        0 min,  0.079 sec
 * total energy  :   -83.6522991 Eh     change       -0.2582743E-04 Eh
   gradient norm :     0.0018556 Eh/α   predicted    -0.1193664E-04 ( -53.78%)
   displ. norm   :     0.0775965 α      lambda       -0.1552366E-04
   maximum displ.:     0.0622529 α      in ANC's #2, #4, #3, ...

........................................................................
.............................. CYCLE   13 ..............................
........................................................................
   1    -84.3834804 -0.843835E+02  0.216E-03    0.90       0.0  T
   2    -84.3834806 -0.248331E-06  0.147E-03    0.90      10.5  T
   3    -84.3834807 -0.787234E-07  0.568E-04    0.90      27.2  T
   4    -84.3834807 -0.148503E-09  0.356E-04    0.90      43.4  T
   5    -84.3834807 -0.122049E-08  0.694E-05    0.90     222.4  T
   6    -84.3834807 -0.872546E-10  0.245E-05    0.90     630.0  T
     SCC iter.                  ...        0 min,  0.025 sec
     gradient                   ...        0 min,  0.080 sec
 * total energy  :   -83.6523186 Eh     change       -0.1955258E-04 Eh
   gradient norm :     0.0017415 Eh/α   predicted    -0.7783494E-05 ( -60.19%)
   displ. norm   :     0.0983747 α      lambda       -0.1949220E-04
   maximum displ.:     0.0745509 α      in ANC's #2, #4, #5, ...

........................................................................
.............................. CYCLE   14 ..............................
........................................................................
   1    -84.3835722 -0.843836E+02  0.286E-03    0.90       0.0  T
   2    -84.3835726 -0.364202E-06  0.134E-03    0.90      11.5  T
   3    -84.3835726 -0.136989E-07  0.813E-04    0.90      19.0  T
   4    -84.3835726  0.140247E-08  0.298E-04    0.90      51.8  T
   5    -84.3835726 -0.229186E-08  0.964E-05    0.90     160.0  T
   6    -84.3835726 -0.383750E-09  0.212E-05    0.90     728.1  T
     SCC iter.                  ...        0 min,  0.025 sec
     gradient                   ...        0 min,  0.080 sec
 * total energy  :   -83.6523418 Eh     change       -0.2313175E-04 Eh
   gradient norm :     0.0012028 Eh/α   predicted    -0.9792107E-05 ( -57.67%)
   displ. norm   :     0.1206362 α      lambda       -0.1871616E-04
   maximum displ.:     0.0899938 α      in ANC's #2, #4, #5, ...

........................................................................
.............................. CYCLE   15 ..............................
........................................................................
   1    -84.3834849 -0.843835E+02  0.305E-03    0.90       0.0  T
   2    -84.3834853 -0.412300E-06  0.142E-03    0.90      10.8  T
   3    -84.3834854 -0.169581E-07  0.864E-04    0.90      17.9  T
   4    -84.3834854  0.193731E-08  0.370E-04    0.90      41.7  T
   5    -84.3834854 -0.386854E-08  0.944E-05    0.90     163.4  T
   6    -84.3834854 -0.332761E-09  0.217E-05    0.90     710.6  T
     SCC iter.                  ...        0 min,  0.025 sec
     gradient                   ...        0 min,  0.080 sec
 * total energy  :   -83.6523644 Eh     change       -0.2259189E-04 Eh
   gradient norm :     0.0011674 Eh/α   predicted    -0.9423019E-05 ( -58.29%)
   displ. norm   :     0.1362757 α      lambda       -0.1796056E-04
   maximum displ.:     0.1007453 α      in ANC's #2, #4, #3, ...

........................................................................
.............................. CYCLE   16 ..............................
........................................................................
   1    -84.3833962 -0.843834E+02  0.239E-03    0.90       0.0  T
   2    -84.3833965 -0.291254E-06  0.129E-03    0.90      12.0  T
   3    -84.3833965 -0.262757E-07  0.712E-04    0.89      21.7  T
   4    -84.3833965  0.214868E-09  0.355E-04    0.89      43.5  T
   5    -84.3833965 -0.185986E-08  0.639E-05    0.89     241.4  T
   6    -84.3833965 -0.167304E-09  0.299E-05    0.89     516.8  T
     SCC iter.                  ...        0 min,  0.025 sec
     gradient                   ...        0 min,  0.109 sec
 * total energy  :   -83.6523860 Eh     change       -0.2167001E-04 Eh
   gradient norm :     0.0014472 Eh/α   predicted    -0.9055686E-05 ( -58.21%)
   displ. norm   :     0.1399803 α      lambda       -0.1684551E-04
   maximum displ.:     0.1021777 α      in ANC's #2, #4, #1, ...

........................................................................
.............................. CYCLE   17 ..............................
........................................................................
   1    -84.3833314 -0.843833E+02  0.269E-03    0.89       0.0  T
   2    -84.3833317 -0.302856E-06  0.167E-03    0.89       9.2  T
   3    -84.3833318 -0.114505E-06  0.623E-04    0.89      24.8  T
   4    -84.3833318 -0.140651E-08  0.333E-04    0.89      46.3  T
   5    -84.3833318 -0.718046E-09  0.515E-05    0.89     299.3  T
   6    -84.3833318 -0.667058E-10  0.226E-05    0.89     682.6  T
     SCC iter.                  ...        0 min,  0.026 sec
     gradient                   ...        0 min,  0.120 sec
 * total energy  :   -83.6524065 Eh     change       -0.2044110E-04 Eh
   gradient norm :     0.0014762 Eh/α   predicted    -0.8497253E-05 ( -58.43%)
   displ. norm   :     0.1522766 α      lambda       -0.1619458E-04
   maximum displ.:     0.1085469 α      in ANC's #2, #4, #1, ...

........................................................................
.............................. CYCLE   18 ..............................
........................................................................
   1    -84.3834608 -0.843835E+02  0.372E-03    0.89       0.0  T
   2    -84.3834613 -0.515572E-06  0.245E-03    0.89       6.3  T
   3    -84.3834616 -0.305016E-06  0.600E-04    0.89      25.7  T
   4    -84.3834616 -0.141443E-08  0.308E-04    0.89      50.1  T
   5    -84.3834616 -0.533248E-09  0.762E-05    0.89     202.4  T
   6    -84.3834616 -0.144183E-09  0.242E-05    0.89     637.3  T
     SCC iter.                  ...        0 min,  0.022 sec
     gradient                   ...        0 min,  0.093 sec
 * total energy  :   -83.6524259 Eh     change       -0.1946392E-04 Eh
   gradient norm :     0.0009907 Eh/α   predicted    -0.8181837E-05 ( -57.96%)
   displ. norm   :     0.1697010 α      lambda       -0.1366064E-04
   maximum displ.:     0.1189275 α      in ANC's #2, #1, #4, ...

........................................................................
.............................. CYCLE   19 ..............................
........................................................................
   1    -84.3834830 -0.843835E+02  0.413E-03    0.89       0.0  T
   2    -84.3834836 -0.572122E-06  0.275E-03    0.89       5.6  T
   3    -84.3834840 -0.405261E-06  0.626E-04    0.89      24.7  T
   4    -84.3834840 -0.164388E-08  0.297E-04    0.89      51.9  T
   5    -84.3834840 -0.221846E-09  0.586E-05    0.89     263.2  T
   6    -84.3834840 -0.589608E-10  0.166E-05    0.89     929.3  T
     SCC iter.                  ...        0 min,  0.021 sec
     gradient                   ...        0 min,  0.105 sec
 * total energy  :   -83.6524418 Eh     change       -0.1590136E-04 Eh
   gradient norm :     0.0007803 Eh/α   predicted    -0.6920278E-05 ( -56.48%)
   displ. norm   :     0.1541184 α      lambda       -0.9511987E-05
   maximum displ.:     0.1063915 α      in ANC's #2, #1, #4, ...

........................................................................
.............................. CYCLE   20 ..............................
........................................................................
   1    -84.3836359 -0.843836E+02  0.310E-03    0.88       0.0  T
   2    -84.3836362 -0.337338E-06  0.206E-03    0.88       7.5  T
   3    -84.3836365 -0.217239E-06  0.497E-04    0.88      31.1  T
   4    -84.3836365 -0.110849E-08  0.241E-04    0.88      64.0  T
   5    -84.3836365 -0.257046E-09  0.536E-05    0.88     287.7  T
   6    -84.3836365 -0.340066E-10  0.141E-05    0.88    1091.3  T
     SCC iter.                  ...        0 min,  0.046 sec
     gradient                   ...        0 min,  0.138 sec
 * total energy  :   -83.6524525 Eh     change       -0.1066356E-04 Eh
   gradient norm :     0.0008465 Eh/α   predicted    -0.4806957E-05 ( -54.92%)
   displ. norm   :     0.0983081 α      lambda       -0.5998779E-05
   maximum displ.:     0.0652081 α      in ANC's #2, #1, #3, ...
 * RMSD in coord.:     0.3463881 α      energy gain  -0.1687905E-01 Eh

generating ANC from model Hessian ...
Using Lindh-Hessian (1995)
 Shifting diagonal of input Hessian by   9.806433450131690E-003
 Lowest  eigenvalues of input Hessian
    0.000000    0.000000    0.000000    0.000000    0.000000    0.000000
    0.010000    0.010198    0.010307    0.010824    0.011742    0.012250
    0.012776    0.013708    0.014479    0.015146    0.016918    0.017557
 Highest eigenvalues
    1.957064    2.112142    2.137493    2.263923    2.281977    2.366418
 

........................................................................
.............................. CYCLE   21 ..............................
........................................................................
   1    -84.3838376 -0.843838E+02  0.130E-03    0.88       0.0  T
   2    -84.3838377 -0.601103E-07  0.756E-04    0.88      20.4  T
   3    -84.3838377 -0.255146E-07  0.271E-04    0.88      56.9  T
   4    -84.3838377 -0.487901E-09  0.129E-04    0.88     119.4  T
   5    -84.3838377 -0.114071E-09  0.341E-05    0.88     453.1  T
     SCC iter.                  ...        0 min,  0.030 sec
     gradient                   ...        0 min,  0.100 sec
 * total energy  :   -83.6524598 Eh     change       -0.7342515E-05 Eh
   gradient norm :     0.0007435 Eh/α   predicted     0.0000000E+00 (-100.00%)
   displ. norm   :     0.0218745 α      lambda       -0.3245952E-05
   maximum displ.:     0.0167728 α      in ANC's #1, #4, #8, ...

........................................................................
.............................. CYCLE   22 ..............................
........................................................................
   1    -84.3837837 -0.843838E+02  0.132E-03    0.88       0.0  T
   2    -84.3837838 -0.459318E-07  0.796E-04    0.88      19.4  T
   3    -84.3837838 -0.300267E-07  0.276E-04    0.88      55.9  T
   4    -84.3837838 -0.367464E-09  0.113E-04    0.88     136.2  T
   5    -84.3837838 -0.811866E-10  0.178E-05    0.88     864.5  T
     SCC iter.                  ...        0 min,  0.048 sec
     gradient                   ...        0 min,  0.158 sec
 * total energy  :   -83.6524642 Eh     change       -0.4346838E-05 Eh
   gradient norm :     0.0003696 Eh/α   predicted    -0.1666299E-05 ( -61.67%)
   displ. norm   :     0.0616144 α      lambda       -0.7313164E-05
   maximum displ.:     0.0429115 α      in ANC's #1, #4, #9, ...

   *** GEOMETRY OPTIMIZATION CONVERGED AFTER 22 ITERATIONS ***

------------------------------------------------------------------------
 total energy gain   :        -0.0168907 Eh      -10.5991 kcal/mol
 total RMSD          :         0.3462689 a0        0.1832 Å
 total power (kW/mol):        -2.0157563 (step)  -12.3832 (real)
------------------------------------------------------------------------

 ANCopt (total)                0 d,  0 h,  0 min,  3.581 sec
 optimizer setup                ...        0 min,  0.001 sec (  0.025%)
 model hessian                  ...        0 min,  0.048 sec (  1.343%)
 ANC generation                 ...        0 min,  0.005 sec (  0.135%)
 coordinate transformation      ...        0 min,  0.001 sec (  0.027%)
 single point calculation       ...        0 min,  3.513 sec ( 98.094%)
 optimization log               ...        0 min,  0.007 sec (  0.195%)
 hessian update                 ...        0 min,  0.001 sec (  0.021%)
 rational function              ...        0 min,  0.003 sec (  0.088%)

================
 final structure:
================
42
 xtb: 6.5.1 (579679a)
C            6.79229893020568        1.04435464527364        0.89166960651779
O            5.52548331427214        1.23558777354817        0.26162865345186
C            4.63622843238994        0.22426749253036        0.41724933645735
O            4.92755931969357       -0.77174569787709        1.04880331615486
C            3.33031032079111        0.46242362854386       -0.22788729064698
N            2.44050110680429       -0.55752033796802       -0.02615870471518
C            1.23469377654246       -0.42277813755732       -0.53575854469605
C            0.25552897710228       -1.58006372381107       -0.33995399179231
C            0.69642817448819       -2.46066391016198        0.83544178057583
C            0.24476432335841       -2.39322677269493       -1.65055614006966
N           -1.05271027573741       -0.99632008715097       -0.07087020915045
C           -2.21082922138487       -1.75699727768781        0.00670765816891
O           -2.18453292660883       -3.00606309922379        0.09976965560238
C           -3.40761952703818       -0.99364754755969        0.03520148336204
N           -4.64283708543021       -1.45070146877808        0.15373638608419
N           -5.51020352576832       -0.47585365824375        0.17224614825983
C           -4.75820801663434        0.78424661223654        0.05605241310082
C           -5.20463828717009        1.54219093315296       -1.20656072459694
C           -4.98706709106831        1.64428949623943        1.31269587325719
O           -3.39011016486840        0.41689075782258       -0.04358846182549
N            0.78185234951120        0.60587457067239       -1.24612993109120
C            1.60012186785680        1.65730239015712       -1.51394903280079
O            1.22634316288529        2.63532992125392       -2.18488275527553
C            2.96420580317790        1.56923404742436       -0.95961640680954
O            3.76449806180611        2.63269117017144       -1.23191837730060
H            7.28704485293158        0.15823468159505        0.48577698944105
H            7.38688189033327        1.93102375328585        0.68562148984297
H            6.66352320609512        0.92127406568489        1.97025604159559
H            0.66760364464939       -1.88462480204461        1.76090530639052
H            1.71708966028552       -2.80546413866944        0.67186298831096
H            0.04232497498461       -3.32587430433838        0.93490135137820
H           -0.42731465062390       -3.24675067783562       -1.56957961680625
H           -0.08039010311726       -1.75863353670216       -2.47537664685268
H            1.25017620692940       -2.75650052532348       -1.86179217188380
H           -1.16099697437534       -0.04900913322123       -0.42180358264558
H           -5.03305175154771        0.91712888107058       -2.08168055193506
H           -6.26604774781658        1.77092064507984       -1.13762959890340
H           -4.64294437862550        2.46882951989406       -1.31346082571638
H           -6.04441311340435        1.88245629302730        1.40643276780988
H           -4.41376086328513        2.56788037875894        1.25043132596630
H           -4.66989520809711        1.08694848442401        2.19300138399521
H            4.65210955550060        2.53305469500374       -0.85930539020985
 
 Bond Distances (Angstroems)
 ---------------------------
C1-O2=1.4277         C1-H26=1.0930        C1-H27=1.0873        C1-H28=1.0932        O2-C1=1.4277         O2-C3=1.3556         
C3-O2=1.3556         C3-O4=1.2148         C3-C5=1.4759         O4-C3=1.2148         C5-C3=1.4759         C5-N6=1.3685         
C5-C24=1.3764        N6-C5=1.3685         N6-C7=1.3160         C7-N6=1.3160         C7-C8=1.5285         C7-N21=1.3296        
C8-C7=1.5285         C8-C9=1.5334         C8-C10=1.5424        C8-N11=1.4576        C9-C8=1.5334         C9-H29=1.0905        
C9-H30=1.0897        C9-H31=1.0892        C10-C8=1.5424        C10-H32=1.0894       C10-H33=1.0903       C10-H34=1.0897       
N11-C8=1.4576        N11-C12=1.3878       N11-H35=1.0160       C12-N11=1.3878       C12-O13=1.2528       C12-C14=1.4198       
O13-C12=1.2528       C14-C12=1.4198       C14-N15=1.3224       C14-O20=1.4128       N15-C14=1.3224       N15-N16=1.3050       
N16-N15=1.3050       N16-C17=1.4720       C17-N16=1.4720       C17-C18=1.5388       C17-C19=1.5399       C17-O20=1.4201       
C18-C17=1.5388       C18-H36=1.0890       C18-H37=1.0880       C18-H38=1.0888       C19-C17=1.5399       C19-H39=1.0879       
C19-H40=1.0888       C19-H41=1.0891       O20-C14=1.4128       O20-C17=1.4201       N21-C7=1.3296        N21-C22=1.3590       
C22-N21=1.3590       C22-O23=1.2435       C22-C24=1.4750       O23-C22=1.2435       C24-C5=1.3764        C24-C22=1.4750       
C24-O25=1.3585       O25-C24=1.3585       O25-H42=0.9678       H26-C1=1.0930        H27-C1=1.0873        H28-C1=1.0932        
H29-C9=1.0905        H30-C9=1.0897        H31-C9=1.0892        H32-C10=1.0894       H33-C10=1.0903       H34-C10=1.0897       
H35-N11=1.0160       H36-C18=1.0890       H37-C18=1.0880       H38-C18=1.0888       H39-C19=1.0879       H40-C19=1.0888       
H41-C19=1.0891       H42-O25=0.9678       
 C  H  Rav=1.0896 sigma=0.0016  Rmin=1.0873  Rmax=1.0932    15
 C  C  Rav=1.4922 sigma=0.0570  Rmin=1.3764  Rmax=1.5424     9
 N  H  Rav=1.0160 sigma=0.0000  Rmin=1.0160  Rmax=1.0160     1
 N  C  Rav=1.3766 sigma=0.0559  Rmin=1.3160  Rmax=1.4720     8
 N  N  Rav=1.3050 sigma=0.0000  Rmin=1.3050  Rmax=1.3050     1
 O  H  Rav=0.9678 sigma=0.0000  Rmin=0.9678  Rmax=0.9678     1
 O  C  Rav=1.3357 sigma=0.0810  Rmin=1.2148  Rmax=1.4277     8
 
 selected bond angles (degree)
 --------------------
H26-C1-O2=110.26               H27-C1-O2=107.00               H27-C1-H26=110.07              H28-C1-O2=110.24               
H28-C1-H26=109.17              H28-C1-H27=110.07              C3-O2-C1=115.56                O4-C3-O2=120.93                
C5-C3-O2=114.20                C5-C3-O4=124.87                N6-C5-C3=112.99                C24-C5-C3=126.69               
C24-C5-N6=120.31               C7-N6-C5=117.54                C8-C7-N6=117.38                N21-C7-N6=126.74               
N21-C7-C8=115.85               C9-C8-C7=110.41                C10-C8-C7=107.14               C10-C8-C9=110.52               
N11-C8-C7=107.18               N11-C8-C9=110.28               N11-C8-C10=111.21              H29-C9-C8=109.85               
H30-C9-C8=109.63               H30-C9-H29=108.62              H31-C9-C8=110.70               H31-C9-H29=109.04              
H31-C9-H30=108.96              H32-C10-C8=110.74              H33-C10-C8=109.76              H33-C10-H32=109.16             
H34-C10-C8=109.51              H34-C10-H32=108.81             H34-C10-H33=108.82             
 
 selected dihedral angles (degree)
 ---------------------------------
C3-O2-C1-H26= 60.66           C3-O2-C1-H27=180.36           C3-O2-C1-H28=300.05           O4-C3-O2-C1=359.53            
C5-C3-O2-C1=179.09            N6-C5-C3-O2=181.60            N6-C5-C3-O4=  1.14            C24-C5-C3-O2=  1.03           
C24-C5-C3-O4=180.56           C7-N6-C5-C3=178.37            C7-N6-C5-C24=358.91           C8-C7-N6-C5=178.42            
N21-C7-N6-C5=  0.64           C9-C8-C7-N6= 20.51            C9-C8-C7-N21=198.54           C10-C8-C7-N6=260.10           
C10-C8-C7-N21= 78.12          N11-C8-C7-N6=140.65           N11-C8-C7-N21=318.68          H29-C9-C8-C7= 63.54           
H29-C9-C8-C10=181.91          H29-C9-C8-N11=305.28          H30-C9-C8-C7=304.25           H30-C9-C8-C10= 62.62          
H30-C9-C8-N11=185.99          H31-C9-C8-C7=184.02           H31-C9-C8-C10=302.39          H31-C9-C8-N11= 65.76          
H32-C10-C8-C7=179.15          H32-C10-C8-C9= 58.80          H32-C10-C8-N11=295.97         H33-C10-C8-C7=299.75          
H33-C10-C8-C9=179.40          H33-C10-C8-N11= 56.57         H34-C10-C8-C7= 59.14          H34-C10-C8-C9=298.80          
H34-C10-C8-N11=175.97         
           -------------------------------------------------
          |                Final Singlepoint                |
           -------------------------------------------------

          ...................................................
          :                      SETUP                      :
          :.................................................:
          :  # basis functions                 134          :
          :  # atomic orbitals                 134          :
          :  # shells                           84          :
          :  # electrons                       136          :
          :  # halogen bonds                     0          :
          :  max. iterations                   250          :
          :  Hamiltonian                  GFN1-xTB          :
          :  restarted?                      false          :
          :  GBSA solvation                   true          :
          :  PC potential                    false          :
          :  electronic temp.          300.0000000     K    :
          :  accuracy                    1.0000000          :
          :  -> integral cutoff          0.2500000E+02      :
          :  -> integral neglect         0.1000000E-07      :
          :  -> SCF convergence          0.1000000E-05 Eh   :
          :  -> wf. convergence          0.2000000E-04 e    :
          :  Broyden damping             0.4000000          :
          ...................................................

 iter      E             dE          RMSdq      gap      omega  full diag
   1    -84.3837838 -0.843838E+02  0.530E-06    0.88       0.0  T
   2    -84.3837838 -0.682121E-12  0.229E-06    0.88    6731.3  T
   3    -84.3837838 -0.113687E-12  0.959E-07    0.88   16088.1  T

   *** convergence criteria satisfied after 3 iterations ***

         #    Occupation            Energy/Eh            Energy/eV
      -------------------------------------------------------------
         1        2.0000           -0.8150807             -22.1795
       ...           ...                  ...                  ...
        62        2.0000           -0.3903756             -10.6227
        63        2.0000           -0.3861941             -10.5089
        64        2.0000           -0.3780014             -10.2859
        65        2.0000           -0.3605134              -9.8101
        66        2.0000           -0.3590885              -9.7713
        67        2.0000           -0.3586288              -9.7588
        68        2.0000           -0.3038782              -8.2689 (HOMO)
        69                         -0.2713795              -7.3846 (LUMO)
        70                         -0.2254978              -6.1361
        71                         -0.2137936              -5.8176
        72                         -0.1817950              -4.9469
        73                         -0.1248431              -3.3972
       ...                                ...                  ...
       134                          0.7427703              20.2118
      -------------------------------------------------------------
                  HL-Gap            0.0324986 Eh            0.8843 eV
             Fermi-level           -0.2876288 Eh           -7.8268 eV

 SCC (total)                   0 d,  0 h,  0 min,  0.126 sec
 SCC setup                      ...        0 min,  0.002 sec (  1.328%)
 Dispersion                     ...        0 min,  0.000 sec (  0.254%)
 classical contributions        ...        0 min,  0.000 sec (  0.083%)
 integral evaluation            ...        0 min,  0.033 sec ( 26.366%)
 iterations                     ...        0 min,  0.011 sec (  8.419%)
 molecular gradient             ...        0 min,  0.080 sec ( 62.929%)
 printout                       ...        0 min,  0.001 sec (  0.593%)

         :::::::::::::::::::::::::::::::::::::::::::::::::::::
         ::                     SUMMARY                     ::
         :::::::::::::::::::::::::::::::::::::::::::::::::::::
         :: total energy             -83.652464188197 Eh    ::
         :: total w/o Gsasa/hb       -83.631051031754 Eh    ::
         :: gradient norm              0.000369905428 Eh/a0 ::
         :: HOMO-LUMO gap              0.884333071980 eV    ::
         ::.................................................::
         :: SCC energy               -84.383783813640 Eh    ::
         :: -> electrostatic           0.669507807126 Eh    ::
         :: -> Gsolv                  -0.268180203689 Eh    ::
         ::    -> Gelec               -0.246767047246 Eh    ::
         ::    -> Gsasa               -0.024965691998 Eh    ::
         ::    -> Ghb                 -0.004071743450 Eh    ::
         ::    -> Gshift               0.007624279005 Eh    ::
         :: repulsion energy           0.756629297273 Eh    ::
         :: dispersion energy         -0.025309671830 Eh    ::
         :: halogen bond corr.         0.000000000000 Eh    ::
         :: add. restraining           0.000000000000 Eh    ::
         :: total charge              -2.000000000000 e     ::
         :::::::::::::::::::::::::::::::::::::::::::::::::::::

           -------------------------------------------------
          |                Property Printout                |
           -------------------------------------------------

    * Orbital Energies and Occupations

         #    Occupation            Energy/Eh            Energy/eV
      -------------------------------------------------------------
         1        2.0000           -0.8150807             -22.1795
       ...           ...                  ...                  ...
        56        2.0000           -0.4453348             -12.1182
        57        2.0000           -0.4390157             -11.9462
        58        2.0000           -0.4227804             -11.5044
        59        2.0000           -0.4202885             -11.4366
        60        2.0000           -0.4089940             -11.1293
        61        2.0000           -0.4019997             -10.9390
        62        2.0000           -0.3903756             -10.6227
        63        2.0000           -0.3861941             -10.5089
        64        2.0000           -0.3780014             -10.2859
        65        2.0000           -0.3605134              -9.8101
        66        2.0000           -0.3590885              -9.7713
        67        2.0000           -0.3586288              -9.7588
        68        2.0000           -0.3038782              -8.2689 (HOMO)
        69                         -0.2713795              -7.3846 (LUMO)
        70                         -0.2254978              -6.1361
        71                         -0.2137936              -5.8176
        72                         -0.1817950              -4.9469
        73                         -0.1248431              -3.3972
        74                         -0.1146914              -3.1209
        75                         -0.1000004              -2.7212
        76                         -0.0963684              -2.6223
        77                         -0.0938986              -2.5551
        78                         -0.0909445              -2.4747
        79                         -0.0866211              -2.3571
       ...                                ...                  ...
       134                          0.7427703              20.2118
      -------------------------------------------------------------
                  HL-Gap            0.0324986 Eh            0.8843 eV
             Fermi-level           -0.2876288 Eh           -7.8268 eV

  Mulliken/CM5 charges         n(s)   n(p)   n(d)
     1C     0.16879  0.04809   0.976  2.855  0.000
     2O    -0.44048 -0.53806   1.694  4.746  0.000
     3C     0.55874  0.62327   0.985  2.456  0.000
     4O    -0.58265 -0.62719   1.729  4.853  0.000
     5C     0.04663  0.12301   1.041  2.913  0.000
     6N    -0.43968 -0.62088   1.545  3.895  0.000
     7C     0.28061  0.43696   1.020  2.700  0.000
     8C     0.15865  0.20141   1.058  2.784  0.000
     9C    -0.08662 -0.22403   1.009  3.077  0.000
    10C    -0.09206 -0.23100   1.014  3.078  0.000
    11N    -0.38301 -0.72312   1.438  3.945  0.000
    12C     0.40174  0.50170   0.984  2.615  0.000
    13O    -0.68737 -0.73043   1.746  4.942  0.000
    14C     0.21627  0.33215   0.987  2.797  0.000
    15N    -0.25543 -0.35397   1.560  3.695  0.000
    16N    -0.42186 -0.51049   1.600  3.822  0.000
    17C     0.35321  0.41695   1.028  2.618  0.000
    18C    -0.10848 -0.24696   1.016  3.093  0.000
    19C    -0.10912 -0.24758   1.016  3.093  0.000
    20O    -0.49571 -0.55288   1.718  4.777  0.000
    21N    -0.48284 -0.66135   1.544  3.939  0.000
    22C     0.43459  0.54327   0.983  2.582  0.000
    23O    -0.67492 -0.70761   1.743  4.932  0.000
    24C     0.19123  0.22458   1.040  2.769  0.000
    25O    -0.53673 -0.73001   1.693  4.843  0.000
    26H     0.04445  0.10638   0.956  0.000  0.000
    27H     0.04516  0.10556   0.955  0.000  0.000
    28H     0.04441  0.10637   0.956  0.000  0.000
    29H     0.01643  0.07411   0.984  0.000  0.000
    30H     0.01600  0.07483   0.984  0.000  0.000
    31H     0.02902  0.08903   0.971  0.000  0.000
    32H     0.03389  0.09342   0.966  0.000  0.000
    33H     0.02276  0.08064   0.977  0.000  0.000
    34H     0.01644  0.07142   0.984  0.000  0.000
    35H     0.21548  0.42566   0.785  0.000  0.000
    36H     0.02604  0.08368   0.974  0.000  0.000
    37H     0.01698  0.07251   0.983  0.000  0.000
    38H     0.02185  0.07654   0.978  0.000  0.000
    39H     0.01709  0.07257   0.983  0.000  0.000
    40H     0.02125  0.07598   0.979  0.000  0.000
    41H     0.02517  0.08290   0.975  0.000  0.000
    42H     0.37410  0.56258   0.626  0.000  0.000

Wiberg/Mayer (AO) data.
largest (>0.10) Wiberg bond orders for each atom

 ---------------------------------------------------------------------------
     #   Z sym  total        # sym  WBO       # sym  WBO       # sym  WBO
 ---------------------------------------------------------------------------
     1   6 C    3.881 --    27 H    0.987    26 H    0.981    28 H    0.981
                             2 O    0.904
     2   8 O    2.180 --     3 C    1.052     1 C    0.904     4 O    0.117
     3   6 C    3.830 --     4 O    1.641     2 O    1.052     5 C    1.039
     4   8 O    1.903 --     3 C    1.641     2 O    0.117
     5   6 C    3.962 --    24 C    1.469     6 N    1.204     3 C    1.039
     6   7 N    2.993 --     7 C    1.456     5 C    1.204
     7   6 C    3.953 --     6 N    1.456    21 N    1.371     8 C    0.970
     8   6 C    3.955 --     9 C    0.997    10 C    0.975     7 C    0.970
                            11 N    0.950
     9   6 C    3.995 --     8 C    0.997    29 H    0.987    30 H    0.986
                            31 H    0.983
    10   6 C    3.993 --    34 H    0.988    33 H    0.986    32 H    0.982
                             8 C    0.975
    11   7 N    3.232 --    12 C    1.119     8 C    0.950    35 H    0.904
                            13 O    0.111
    12   6 C    3.926 --    13 O    1.436    14 C    1.202    11 N    1.119
    13   8 O    1.771 --    12 C    1.436    11 N    0.111
    14   6 C    3.843 --    15 N    1.422    12 C    1.202    20 O    0.921
                            16 N    0.168
    15   7 N    3.021 --    16 N    1.440    14 C    1.422
    16   7 N    2.855 --    15 N    1.440    17 C    0.983    14 C    0.168
    17   6 C    3.901 --    16 N    0.983    18 C    0.977    19 C    0.976
                            20 O    0.926
    18   6 C    3.994 --    37 H    0.988    38 H    0.987    36 H    0.986
                            17 C    0.977
    19   6 C    3.994 --    39 H    0.988    40 H    0.987    41 H    0.986
                            17 C    0.976
    20   8 O    2.052 --    17 C    0.926    14 C    0.921
    21   7 N    2.993 --     7 C    1.371    22 C    1.237    23 O    0.126
    22   6 C    3.931 --    23 O    1.492    21 N    1.237    24 C    1.069
    23   8 O    1.779 --    22 C    1.492    21 N    0.126
    24   6 C    3.899 --     5 C    1.469    22 C    1.069    25 O    1.055
    25   8 O    2.043 --    24 C    1.055    42 H    0.827
    26   1 H    1.011 --     1 C    0.981
    27   1 H    1.012 --     1 C    0.987
    28   1 H    1.011 --     1 C    0.981
    29   1 H    1.013 --     9 C    0.987
    30   1 H    1.023 --     9 C    0.986
    31   1 H    1.024 --     9 C    0.983
    32   1 H    1.019 --    10 C    0.982
    33   1 H    1.012 --    10 C    0.986
    34   1 H    1.008 --    10 C    0.988
    35   1 H    0.985 --    11 N    0.904
    36   1 H    1.016 --    18 C    0.986
    37   1 H    1.012 --    18 C    0.988
    38   1 H    1.009 --    18 C    0.987
    39   1 H    1.012 --    19 C    0.988
    40   1 H    1.009 --    19 C    0.987
    41   1 H    1.016 --    19 C    0.986
    42   1 H    0.878 --    25 O    0.827
 ---------------------------------------------------------------------------

Topologies differ in total number of bonds
Writing topology from bond orders to xtbtopo.mol

 dipole moment from electron density (au)
     X       Y       Z   
   5.9158   2.3976   1.7859  total (Debye):   16.848

           -------------------------------------------------
          |                Geometry Summary                 |
           -------------------------------------------------

      molecular mass/u    :      351.3152409
   center of mass at/Å    :        0.1629073       0.0064804      -0.2333957
  moments of inertia/u·Å² :        0.1148369E+04   0.5067992E+04   0.5711273E+04
rotational constants/cm⁻¹ :        0.1467963E-01   0.3326294E-02   0.2951642E-02

 * 36 selected distances

     #   Z          #   Z                                           value/Å
     1   6 C        2   8 O                                       1.4277058
     2   8 O        3   6 C                                       1.3556405
     3   6 C        4   8 O                                       1.2148155
     5   6 C        6   7 N                                       1.3684812
     6   7 N        7   6 C                                       1.3159860
     8   6 C        9   6 C                                       1.5334290
     8   6 C       11   7 N                                       1.4576190
    11   7 N       12   6 C                                       1.3877637
    12   6 C       14   6 C                                       1.4197965
    14   6 C       15   7 N                                       1.3223886
    15   7 N       16   7 N                                       1.3049888
    17   6 C       18   6 C                                       1.5388216
    17   6 C       19   6 C                                       1.5398712 (max)
    17   6 C       20   8 O                                       1.4200601
     7   6 C       21   7 N                                       1.3295938
    21   7 N       22   6 C                                       1.3589676
    22   6 C       23   8 O                                       1.2435436
     5   6 C       24   6 C                                       1.3764046
    24   6 C       25   8 O                                       1.3585130
     1   6 C       26   1 H                                       1.0930376
     1   6 C       27   1 H                                       1.0872751
     1   6 C       28   1 H                                       1.0931976
     9   6 C       29   1 H                                       1.0904746
     9   6 C       30   1 H                                       1.0896767
     9   6 C       31   1 H                                       1.0891889
    10   6 C       32   1 H                                       1.0893808
    10   6 C       33   1 H                                       1.0903041
    10   6 C       34   1 H                                       1.0896980
    11   7 N       35   1 H                                       1.0160111
    18   6 C       36   1 H                                       1.0890268
    18   6 C       37   1 H                                       1.0879610
    18   6 C       38   1 H                                       1.0888466
    19   6 C       39   1 H                                       1.0878837
    19   6 C       40   1 H                                       1.0888422
    19   6 C       41   1 H                                       1.0891120
    25   8 O       42   1 H                                       0.9677924 (min)

 * 7 distinct bonds (by element types)

   Z      Z             #   av. dist./Å        max./Å        min./Å
   1 H    6 C          15     1.0895937     1.0931976     1.0872751
   6 C    6 C           5     1.4816646     1.5398712     1.3764046
   1 H    7 N           1     1.0160111     1.0160111     1.0160111
   6 C    7 N           7     1.3629714     1.4576190     1.3159860
   7 N    7 N           1     1.3049888     1.3049888     1.3049888
   1 H    8 O           1     0.9677924     0.9677924     0.9677924
   6 C    8 O           6     1.3367131     1.4277058     1.2148155


optimized geometry written to: xtbopt.xyz


           -------------------------------------------------
          | TOTAL ENERGY              -83.652464188197 Eh   |
          | GRADIENT NORM               0.000369905428 Eh/α |
          | HOMO-LUMO GAP               0.884333071980 eV   |
           -------------------------------------------------

------------------------------------------------------------------------
 * finished run on 2023/06/20 at 17:55:18.505     
------------------------------------------------------------------------
 total:
 * wall-time:     0 d,  0 h,  0 min,  4.112 sec
 *  cpu-time:     0 d,  0 h,  0 min,  3.477 sec
 * ratio c/w:     0.845 speedup
 SCF:
 * wall-time:     0 d,  0 h,  0 min,  0.296 sec
 *  cpu-time:     0 d,  0 h,  0 min,  0.162 sec
 * ratio c/w:     0.546 speedup
 ANC optimizer:
 * wall-time:     0 d,  0 h,  0 min,  3.727 sec
 *  cpu-time:     0 d,  0 h,  0 min,  3.266 sec
 * ratio c/w:     0.876 speedup

