42
 energy: -83.010037449174 gnorm: 0.000523543183 xtb: 6.5.1 (579679a)
C           -5.67760210495588        1.96576786960784        1.95002347596568
O           -4.68358218516410        1.78907106861995        0.92898218271767
C           -3.73283039372728        0.88177048267147        1.19299209581501
O           -3.70054027394422        0.24821393027472        2.22036179376453
C           -2.73412157884565        0.74042309733137        0.09787275898293
N           -1.77927708393074       -0.20048209757353        0.36547614985533
C           -0.82482386572588       -0.45416835553567       -0.46812825782762
C            0.13381976383099       -1.56695478934598       -0.05992632015265
C           -0.14480561251278       -1.97005245930819        1.39565047047702
C           -0.06885863773676       -2.78029702927512       -0.97968159572042
N            1.50602731822734       -1.04734628664922       -0.13512070809611
C            2.59692109998555       -1.81771897473722        0.08245318820054
O            2.59942308506453       -3.03005763234490        0.20280658050589
C            3.84917376382104       -1.02268537741233        0.13799522289871
N            5.05191560377039       -1.45976010091480        0.34761625760351
N            5.87398394752500       -0.37389554303744        0.33181048105241
C            5.12321181925409        0.66064490881450        0.11414411367095
C            5.54039545260508        2.07557286659607        0.00984752832348
O            3.82996017001959        0.31976269379628       -0.01731335575143
N           -0.72614455752431        0.20409089407451       -1.66483361532351
C            0.31590730821172       -0.02314398398374       -2.66925506277668
C           -1.65500400822078        1.16514113833211       -2.05780172955483
O           -1.55513616081211        1.71431613287067       -3.14500713101616
C           -2.71189788180262        1.43511790963854       -1.08289611150955
O           -3.58851837499459        2.36972878513036       -1.46812956267690
H           -5.19777583189006        2.24894370413115        2.88922212398256
H           -6.34057889881923        2.75639146126482        1.60840742201777
H           -6.23332540223052        1.03588992337843        2.08936538445403
H            0.55246085542950       -2.75015446500028        1.69624103599390
H           -1.16301196718613       -2.34380377146121        1.48725667051889
H           -0.02510883397049       -1.10910812031925        2.05093746712428
H           -1.13301684111263       -3.00682035547661       -1.03339846539255
H            0.29976394012332       -2.58622506240219       -1.98381595444392
H            0.45354936219821       -3.64696315472259       -0.57909918398568
H            1.62005494907126       -0.05017491671594       -0.04936869827419
H            5.29678933088300        2.46430093176332       -0.97904262098577
H            5.00713434938871        2.67481314536294        0.74765324693605
H            6.61190142814414        2.15441051400593        0.17865882607676
H           -0.12314625780873       -0.54098872900902       -3.52254116174645
H            1.13301191481522       -0.60159967120361       -2.25644462315522
H            0.68536784218186        0.94835211328158       -2.99800663345687
H           -4.28167055163652        2.52967830548299       -0.80527568509141
