      -----------------------------------------------------------      
     |                   =====================                   |     
     |                           x T B                           |     
     |                   =====================                   |     
     |                         S. Grimme                         |     
     |          Mulliken Center for Theoretical Chemistry        |     
     |                    University of Bonn                     |     
      -----------------------------------------------------------      

   * xtb version 6.5.1 (579679a) compiled by 'ehlert@majestix' on 2022-07-11

   xtb is free software: you can redistribute it and/or modify it under
   the terms of the GNU Lesser General Public License as published by
   the Free Software Foundation, either version 3 of the License, or
   (at your option) any later version.
   
   xtb is distributed in the hope that it will be useful,
   but WITHOUT ANY WARRANTY; without even the implied warranty of
   MERCHANTABILITY or FITNESS FOR A PARTICULAR PURPOSE.  See the
   GNU Lesser General Public License for more details.
   
   Cite this work as:
   * C. Bannwarth, E. Caldeweyher, S. Ehlert, A. Hansen, P. Pracht,
     J. Seibert, S. Spicher, S. Grimme, WIREs Comput. Mol. Sci., 2020, 11,
     e01493. DOI: 10.1002/wcms.1493
   
   for GFN2-xTB:
   * C. Bannwarth, S. Ehlert and S. Grimme., J. Chem. Theory Comput., 2019,
     15, 1652-1671. DOI: 10.1021/acs.jctc.8b01176
   for GFN1-xTB:
   * S. Grimme, C. Bannwarth, P. Shushkov, J. Chem. Theory Comput., 2017,
     13, 1989-2009. DOI: 10.1021/acs.jctc.7b00118
   for GFN0-xTB:
   * P. Pracht, E. Caldeweyher, S. Ehlert, S. Grimme, ChemRxiv, 2019, preprint.
     DOI: 10.26434/chemrxiv.8326202.v1
   for GFN-FF:
   * S. Spicher and S. Grimme, Angew. Chem. Int. Ed., 2020, 59, 15665-15673.
     DOI: 10.1002/anie.202004239
   
   for ALPB and GBSA implicit solvation:
   * S. Ehlert, M. Stahn, S. Spicher, S. Grimme, J. Chem. Theory Comput.,
     2021, 17, 4250-4261. DOI: 10.1021/acs.jctc.1c00471
   
   for DFT-D4:
   * E. Caldeweyher, C. Bannwarth and S. Grimme, J. Chem. Phys., 2017,
     147, 034112. DOI: 10.1063/1.4993215
   * E. Caldeweyher, S. Ehlert, A. Hansen, H. Neugebauer, S. Spicher,
     C. Bannwarth and S. Grimme, J. Chem. Phys., 2019, 150, 154122.
     DOI: 10.1063/1.5090222
   * E. Caldeweyher, J.-M. Mewes, S. Ehlert and S. Grimme, Phys. Chem. Chem. Phys.
     2020, 22, 8499-8512. DOI: 10.1039/D0CP00502A
   
   for sTDA-xTB:
   * S. Grimme and C. Bannwarth, J. Chem. Phys., 2016, 145, 054103.
     DOI: 10.1063/1.4959605
   
   in the mass-spec context:
   * V. Asgeirsson, C. Bauer and S. Grimme, Chem. Sci., 2017, 8, 4879.
     DOI: 10.1039/c7sc00601b
   * J. Koopman and S. Grimme, ACS Omega 2019, 4, 12, 15120-15133.
     DOI: 10.1021/acsomega.9b02011
   
   for metadynamics refer to:
   * S. Grimme, J. Chem. Theory Comput., 2019, 155, 2847-2862
     DOI: 10.1021/acs.jctc.9b00143
   
   for SPH calculations refer to:
   * S. Spicher and S. Grimme, J. Chem. Theory Comput., 2021, 17, 1701-1714
     DOI: 10.1021/acs.jctc.0c01306
   
   with help from (in alphabetical order)
   P. Atkinson, C. Bannwarth, F. Bohle, G. Brandenburg, E. Caldeweyher
   M. Checinski, S. Dohm, S. Ehlert, S. Ehrlich, I. Gerasimov, C. Hölzer
   A. Katbashev, J. Koopman, C. Lavigne, S. Lehtola, F. März, M. Müller,
   F. Musil, H. Neugebauer, J. Pisarek, C. Plett, P. Pracht, F. Pultar,
   J. Seibert, P. Shushkov, S. Spicher, M. Stahn, M. Steiner, T. Strunk,
   J. Stückrath, T. Rose, and J. Unsleber
   
 * started run on 2023/06/20 at 15:36:55.237     

           -------------------------------------------------
          |                Calculation Setup                |
           -------------------------------------------------

          program call               : /lustre/hpc/kemi/ree/PhD/git/ReactivityQM/dep/xtb-6.5.1/bin/xtb --gfn 1 /lustre/hpc/kemi/ree/PhD/git/ReactivityQM/calculations/R03/reac02prodN02/conf12/R03_reac02prodN02_conf12_gfn1.xyz --opt --vfukui --chrg 1 --uhf 0 --alpb DMSO
          hostname                   : node068
          coordinate file            : /lustre/hpc/kemi/ree/PhD/git/ReactivityQM/calculations/R03/reac02prodN02/conf12/R03_reac02prodN02_conf12_gfn1.xyz
          omp threads                :                     1

   ID    Z sym.   atoms
    1    6 C      1, 3, 5, 7-10, 12, 14, 15, 18, 19, 22, 23, 25
    2    8 O      2, 4, 13, 20, 24, 26
    3    7 N      6, 11, 16, 17, 21
    4    1 H      27-46

           -------------------------------------------------
          |                 G F N 1 - x T B                 |
           -------------------------------------------------

        Reference                      10.1021/acs.jctc.7b00118
      * Hamiltonian:
        H0-scaling (s, p, d)           1.850000    2.250000    2.000000
        zeta-weighting                 0.000000
      * Dispersion:
        s8                             2.400000
        a1                             0.630000
        a2                             5.000000
        s9                             0.000000
      * Repulsion:
        kExp                           1.500000
        rExp                           1.000000
      * Coulomb:
        alpha                          2.000000
        third order                    atomic
        anisotropic                    false
      * Halogen bond correction:
        rad-scale                      1.300000
        damping                        0.440000

      * Solvation model:               ALPB
        Solvent                        DMSO
        Parameter file                 internal GFN1-xTB/ALPB
        Dielectric constant                4.6680E+01
        Reference state                gsolv [1 M gas/solution]
        Free energy shift                  7.6243E-03 Eh       4.7843E+00 kcal/mol
        Temperature                        2.9815E+02 K
        Density                            1.1000E+00 kg/L
        Solvent mass                       7.8130E+01 g/mol
        Interaction kernel             P16
        Born radius scaling (c1)           1.7672E+00
        Born radii integrator          GBOBC
        Born offset                        0.0000E+00 a0       0.0000E+00 AA
        H-bond correction              true
        Ion screening                  false
        Surface tension                    1.0000E-05 Eh       1.5569E+01 dyn/cm
        Grid points                               230 per atom

          ...................................................
          :                      SETUP                      :
          :.................................................:
          :  # basis functions                 144          :
          :  # atomic orbitals                 144          :
          :  # shells                           92          :
          :  # electrons                       140          :
          :  # halogen bonds                     0          :
          :  max. iterations                   250          :
          :  Hamiltonian                  GFN1-xTB          :
          :  restarted?                      false          :
          :  GBSA solvation                   true          :
          :  PC potential                    false          :
          :  electronic temp.          300.0000000     K    :
          :  accuracy                    1.0000000          :
          :  -> integral cutoff          0.2500000E+02      :
          :  -> integral neglect         0.1000000E-07      :
          :  -> SCF convergence          0.1000000E-05 Eh   :
          :  -> wf. convergence          0.2000000E-04 e    :
          :  Broyden damping             0.4000000          :
          ...................................................

 iter      E             dE          RMSdq      gap      omega  full diag
   1    -86.7501066 -0.867501E+02  0.828E+00    2.68       0.0  T
   2    -87.0877997 -0.337693E+00  0.497E+00    1.68       1.0  T
   3    -87.0635777  0.242221E-01  0.165E+00    1.33       1.0  T
   4    -87.1096070 -0.460293E-01  0.263E-01    0.95       1.0  T
   5    -87.1127000 -0.309304E-02  0.727E-02    1.04       1.0  T
   6    -87.1129006 -0.200515E-03  0.231E-02    1.09       1.0  T
   7    -87.1129134 -0.128511E-04  0.455E-03    1.10       3.2  T
   8    -87.1129137 -0.284164E-06  0.116E-03    1.10      12.7  T
   9    -87.1129137 -0.150538E-07  0.595E-04    1.10      24.8  T
  10    -87.1129137 -0.313827E-08  0.155E-04    1.10      95.3  T
  11    -87.1129137 -0.483624E-09  0.488E-05    1.10     302.1  T

   *** convergence criteria satisfied after 11 iterations ***

         #    Occupation            Energy/Eh            Energy/eV
      -------------------------------------------------------------
         1        2.0000           -0.9058052             -24.6482
       ...           ...                  ...                  ...
        64        2.0000           -0.4931325             -13.4188
        65        2.0000           -0.4925487             -13.4029
        66        2.0000           -0.4895765             -13.3221
        67        2.0000           -0.4852446             -13.2042
        68        2.0000           -0.4716466             -12.8342
        69        2.0000           -0.4592408             -12.4966
        70        2.0000           -0.4414861             -12.0134 (HOMO)
        71                         -0.4009355             -10.9100 (LUMO)
        72                         -0.3400222              -9.2525
        73                         -0.3045894              -8.2883
        74                         -0.3023201              -8.2265
        75                         -0.2745812              -7.4717
       ...                                ...                  ...
       144                          0.6938660              18.8811
      -------------------------------------------------------------
                  HL-Gap            0.0405506 Eh            1.1034 eV
             Fermi-level           -0.4212108 Eh          -11.4617 eV

 SCC (total)                   0 d,  0 h,  0 min,  0.175 sec
 SCC setup                      ...        0 min,  0.002 sec (  1.152%)
 Dispersion                     ...        0 min,  0.000 sec (  0.186%)
 classical contributions        ...        0 min,  0.000 sec (  0.065%)
 integral evaluation            ...        0 min,  0.037 sec ( 21.251%)
 iterations                     ...        0 min,  0.066 sec ( 37.997%)
 molecular gradient             ...        0 min,  0.067 sec ( 38.516%)
 printout                       ...        0 min,  0.001 sec (  0.820%)

         :::::::::::::::::::::::::::::::::::::::::::::::::::::
         ::                     SUMMARY                     ::
         :::::::::::::::::::::::::::::::::::::::::::::::::::::
         :: total energy             -86.318362429064 Eh    ::
         :: total w/o Gsasa/hb       -86.293840110427 Eh    ::
         :: gradient norm              0.152837080171 Eh/a0 ::
         :: HOMO-LUMO gap              1.103438803931 eV    ::
         ::.................................................::
         :: SCC energy               -87.112913714482 Eh    ::
         :: -> electrostatic           0.401302887206 Eh    ::
         :: -> Gsolv                  -0.115279379183 Eh    ::
         ::    -> Gelec               -0.090757060545 Eh    ::
         ::    -> Gsasa               -0.025545856389 Eh    ::
         ::    -> Ghb                 -0.006600741253 Eh    ::
         ::    -> Gshift               0.007624279005 Eh    ::
         :: repulsion energy           0.823610402648 Eh    ::
         :: dispersion energy         -0.029059117230 Eh    ::
         :: halogen bond corr.         0.000000000000 Eh    ::
         :: add. restraining           0.000000000000 Eh    ::
         :: total charge               1.000000000000 e     ::
         :::::::::::::::::::::::::::::::::::::::::::::::::::::

      ----------------------------------------------------------- 
     |                   =====================                   |
     |                        A N C O P T                        |
     |                   =====================                   |
     |               Approximate Normal Coordinate               |
     |                Rational Function Optimizer                |
      ----------------------------------------------------------- 

          ...................................................
          :                      SETUP                      :
          :.................................................:
          :   optimization level            normal          :
          :   max. optcycles                   200          :
          :   ANC micro-cycles                  20          :
          :   degrees of freedom               132          :
          :.................................................:
          :   RF solver                   davidson          :
          :   write xtbopt.log                true          :
          :   linear?                        false          :
          :   energy convergence         0.5000000E-05 Eh   :
          :   grad. convergence          0.1000000E-02 Eh/α :
          :   maximium RF displ.         1.0000000          :
          :   Hlow (freq-cutoff)         0.1000000E-01      :
          :   Hmax (freq-cutoff)         5.0000000          :
          :   S6 in model hess.         20.0000000          :
          ...................................................

generating ANC from model Hessian ...
Using Lindh-Hessian (1995)
 Shifting diagonal of input Hessian by   9.825434666195308E-003
 Lowest  eigenvalues of input Hessian
    0.000000    0.000000    0.000000    0.000000    0.000000    0.000000
    0.010000    0.010215    0.010303    0.010943    0.011662    0.012191
    0.012241    0.013036    0.013652    0.013884    0.014935    0.015519
 Highest eigenvalues
    1.963691    2.038007    2.148896    2.190515    2.303090    2.388458
 

........................................................................
.............................. CYCLE    1 ..............................
........................................................................
   1    -87.1129137 -0.871129E+02  0.230E-05    1.10       0.0  T
   2    -87.1129137 -0.395062E-11  0.105E-05    1.10    1405.4  T
   3    -87.1129137 -0.142109E-12  0.671E-06    1.10    2198.9  T
     SCC iter.                  ...        0 min,  0.019 sec
     gradient                   ...        0 min,  0.067 sec
 * total energy  :   -86.3183624 Eh     change       -0.4963852E-10 Eh
   gradient norm :     0.1528374 Eh/α   predicted     0.0000000E+00 (-100.00%)
   displ. norm   :     0.3556562 α      lambda       -0.2790256E-01
   maximum displ.:     0.1388887 α      in ANC's #33, #41, #27, ...

........................................................................
.............................. CYCLE    2 ..............................
........................................................................
   1    -87.1515920 -0.871516E+02  0.122E-01    1.39       0.0  T
   2    -87.1524206 -0.828615E-03  0.620E-02    1.34       1.0  T
   3    -87.1525539 -0.133337E-03  0.274E-02    1.36       1.0  T
   4    -87.1525545 -0.600195E-06  0.954E-03    1.37       1.5  T
   5    -87.1525553 -0.769834E-06  0.192E-03    1.37       7.7  T
   6    -87.1525554 -0.120529E-06  0.491E-04    1.37      30.0  T
   7    -87.1525554 -0.433113E-08  0.199E-04    1.37      74.0  T
   8    -87.1525554 -0.505821E-09  0.767E-05    1.37     192.3  T
     SCC iter.                  ...        0 min,  0.045 sec
     gradient                   ...        0 min,  0.063 sec
 * total energy  :   -86.3393010 Eh     change       -0.2093857E-01 Eh
   gradient norm :     0.0794583 Eh/α   predicted    -0.1573820E-01 ( -24.84%)
   displ. norm   :     0.3779196 α      lambda       -0.1360401E-01
   maximum displ.:     0.1477239 α      in ANC's #33, #19, #41, ...

........................................................................
.............................. CYCLE    3 ..............................
........................................................................
   1    -87.1774982 -0.871775E+02  0.117E-01    1.67       0.0  T
   2    -87.1783027 -0.804475E-03  0.555E-02    1.62       1.0  T
   3    -87.1784048 -0.102070E-03  0.249E-02    1.64       1.0  T
   4    -87.1784055 -0.768237E-06  0.896E-03    1.65       1.6  T
   5    -87.1784060 -0.528227E-06  0.197E-03    1.65       7.5  T
   6    -87.1784062 -0.129362E-06  0.522E-04    1.65      28.2  T
   7    -87.1784062 -0.551231E-08  0.221E-04    1.65      66.8  T
   8    -87.1784062 -0.832415E-09  0.822E-05    1.65     179.3  T
   9    -87.1784062 -0.814566E-10  0.293E-05    1.65     502.4  T
     SCC iter.                  ...        0 min,  0.053 sec
     gradient                   ...        0 min,  0.064 sec
 * total energy  :   -86.3466727 Eh     change       -0.7371720E-02 Eh
   gradient norm :     0.0256579 Eh/α   predicted    -0.7774671E-02 (   5.47%)
   displ. norm   :     0.2580790 α      lambda       -0.1880719E-02
   maximum displ.:     0.1064224 α      in ANC's #7, #19, #8, ...

........................................................................
.............................. CYCLE    4 ..............................
........................................................................
   1    -87.1767112 -0.871767E+02  0.207E-02    1.64       0.0  T
   2    -87.1767264 -0.152073E-04  0.890E-03    1.64       1.7  T
   3    -87.1767284 -0.199139E-05  0.387E-03    1.64       3.8  T
   4    -87.1767284 -0.341324E-07  0.142E-03    1.64      10.4  T
   5    -87.1767284 -0.148006E-07  0.349E-04    1.64      42.3  T
   6    -87.1767284 -0.298984E-08  0.105E-04    1.64     140.6  T
   7    -87.1767284 -0.203841E-09  0.316E-05    1.64     466.0  T
     SCC iter.                  ...        0 min,  0.041 sec
     gradient                   ...        0 min,  0.065 sec
 * total energy  :   -86.3480867 Eh     change       -0.1413982E-02 Eh
   gradient norm :     0.0149931 Eh/α   predicted    -0.1003015E-02 ( -29.06%)
   displ. norm   :     0.3280103 α      lambda       -0.1348994E-02
   maximum displ.:     0.1527462 α      in ANC's #7, #19, #2, ...

........................................................................
.............................. CYCLE    5 ..............................
........................................................................
   1    -87.1763177 -0.871763E+02  0.217E-02    1.62       0.0  T
   2    -87.1763353 -0.175922E-04  0.103E-02    1.62       1.4  T
   3    -87.1763379 -0.260295E-05  0.452E-03    1.62       3.3  T
   4    -87.1763379 -0.273606E-07  0.173E-03    1.62       8.5  T
   5    -87.1763380 -0.245416E-07  0.367E-04    1.62      40.2  T
   6    -87.1763380 -0.442597E-08  0.109E-04    1.62     135.3  T
   7    -87.1763380 -0.209468E-09  0.335E-05    1.62     440.3  T
     SCC iter.                  ...        0 min,  0.042 sec
     gradient                   ...        0 min,  0.065 sec
 * total energy  :   -86.3489732 Eh     change       -0.8864789E-03 Eh
   gradient norm :     0.0077111 Eh/α   predicted    -0.7470700E-03 ( -15.73%)
   displ. norm   :     0.2373052 α      lambda       -0.4355999E-03
   maximum displ.:     0.1149074 α      in ANC's #7, #2, #10, ...

........................................................................
.............................. CYCLE    6 ..............................
........................................................................
   1    -87.1776141 -0.871776E+02  0.109E-02    1.62       0.0  T
   2    -87.1776193 -0.512171E-05  0.522E-03    1.61       2.8  T
   3    -87.1776199 -0.594001E-06  0.248E-03    1.61       5.9  T
   4    -87.1776199 -0.105774E-07  0.104E-03    1.61      14.2  T
   5    -87.1776199 -0.633494E-08  0.173E-04    1.61      85.0  T
   6    -87.1776199 -0.116785E-08  0.509E-05    1.61     289.9  T
     SCC iter.                  ...        0 min,  0.036 sec
     gradient                   ...        0 min,  0.065 sec
 * total energy  :   -86.3492913 Eh     change       -0.3181288E-03 Eh
   gradient norm :     0.0064452 Eh/α   predicted    -0.2300654E-03 ( -27.68%)
   displ. norm   :     0.2593483 α      lambda       -0.3323589E-03
   maximum displ.:     0.1184345 α      in ANC's #2, #7, #18, ...

........................................................................
.............................. CYCLE    7 ..............................
........................................................................
   1    -87.1795182 -0.871795E+02  0.829E-03    1.61       0.0  T
   2    -87.1795215 -0.328937E-05  0.385E-03    1.61       3.8  T
   3    -87.1795216 -0.181915E-06  0.204E-03    1.61       7.2  T
   4    -87.1795217 -0.634967E-08  0.876E-04    1.61      16.8  T
   5    -87.1795217 -0.548995E-08  0.960E-05    1.61     153.6  T
   6    -87.1795217 -0.339583E-09  0.318E-05    1.61     464.2  T
     SCC iter.                  ...        0 min,  0.035 sec
     gradient                   ...        0 min,  0.063 sec
 * total energy  :   -86.3495338 Eh     change       -0.2424902E-03 Eh
   gradient norm :     0.0059710 Eh/α   predicted    -0.1773573E-03 ( -26.86%)
   displ. norm   :     0.2492756 α      lambda       -0.2452672E-03
   maximum displ.:     0.1311303 α      in ANC's #2, #7, #18, ...

........................................................................
.............................. CYCLE    8 ..............................
........................................................................
   1    -87.1811211 -0.871811E+02  0.601E-03    1.61       0.0  T
   2    -87.1811227 -0.163735E-05  0.261E-03    1.61       5.7  T
   3    -87.1811228 -0.814643E-07  0.144E-03    1.61      10.2  T
   4    -87.1811228 -0.495221E-08  0.584E-04    1.61      25.2  T
   5    -87.1811228 -0.306568E-08  0.876E-05    1.61     168.3  T
   6    -87.1811228 -0.315140E-09  0.237E-05    1.61     622.7  T
     SCC iter.                  ...        0 min,  0.035 sec
     gradient                   ...        0 min,  0.064 sec
 * total energy  :   -86.3497145 Eh     change       -0.1807019E-03 Eh
   gradient norm :     0.0059915 Eh/α   predicted    -0.1302544E-03 ( -27.92%)
   displ. norm   :     0.2283566 α      lambda       -0.1947925E-03
   maximum displ.:     0.1365405 α      in ANC's #2, #18, #3, ...

........................................................................
.............................. CYCLE    9 ..............................
........................................................................
   1    -87.1821324 -0.871821E+02  0.589E-03    1.61       0.0  T
   2    -87.1821338 -0.132410E-05  0.276E-03    1.61       5.3  T
   3    -87.1821340 -0.244521E-06  0.119E-03    1.61      12.4  T
   4    -87.1821340 -0.266735E-08  0.382E-04    1.61      38.6  T
   5    -87.1821340 -0.158968E-08  0.942E-05    1.61     156.5  T
   6    -87.1821340 -0.292857E-09  0.244E-05    1.61     605.2  T
     SCC iter.                  ...        0 min,  0.035 sec
     gradient                   ...        0 min,  0.063 sec
 * total energy  :   -86.3498616 Eh     change       -0.1470841E-03 Eh
   gradient norm :     0.0054345 Eh/α   predicted    -0.1025073E-03 ( -30.31%)
   displ. norm   :     0.2315183 α      lambda       -0.1681529E-03
   maximum displ.:     0.1517502 α      in ANC's #2, #3, #18, ...

........................................................................
.............................. CYCLE   10 ..............................
........................................................................
   1    -87.1820380 -0.871820E+02  0.632E-03    1.62       0.0  T
   2    -87.1820396 -0.163200E-05  0.319E-03    1.62       4.6  T
   3    -87.1820399 -0.317340E-06  0.136E-03    1.62      10.9  T
   4    -87.1820399 -0.389548E-09  0.393E-04    1.62      37.6  T
   5    -87.1820399 -0.257097E-08  0.101E-04    1.62     146.1  T
   6    -87.1820399 -0.315225E-09  0.264E-05    1.62     558.0  T
     SCC iter.                  ...        0 min,  0.035 sec
     gradient                   ...        0 min,  0.064 sec
 * total energy  :   -86.3499891 Eh     change       -0.1275542E-03 Eh
   gradient norm :     0.0046349 Eh/α   predicted    -0.8858351E-04 ( -30.55%)
   displ. norm   :     0.2276181 α      lambda       -0.1434282E-03
   maximum displ.:     0.1614858 α      in ANC's #2, #3, #18, ...

........................................................................
.............................. CYCLE   11 ..............................
........................................................................
   1    -87.1816378 -0.871816E+02  0.579E-03    1.62       0.0  T
   2    -87.1816393 -0.153145E-05  0.301E-03    1.62       4.9  T
   3    -87.1816395 -0.190333E-06  0.149E-03    1.62       9.9  T
   4    -87.1816395  0.231140E-09  0.483E-04    1.62      30.5  T
   5    -87.1816395 -0.278536E-08  0.890E-05    1.62     165.6  T
   6    -87.1816395 -0.272379E-09  0.253E-05    1.62     583.7  T
     SCC iter.                  ...        0 min,  0.035 sec
     gradient                   ...        0 min,  0.064 sec
 * total energy  :   -86.3500977 Eh     change       -0.1086022E-03 Eh
   gradient norm :     0.0037193 Eh/α   predicted    -0.7543331E-04 ( -30.54%)
   displ. norm   :     0.2351146 α      lambda       -0.1172376E-03
   maximum displ.:     0.1697130 α      in ANC's #2, #3, #19, ...

........................................................................
.............................. CYCLE   12 ..............................
........................................................................
   1    -87.1804734 -0.871805E+02  0.449E-03    1.63       0.0  T
   2    -87.1804742 -0.716541E-06  0.230E-03    1.63       6.4  T
   3    -87.1804742 -0.405849E-07  0.121E-03    1.63      12.1  T
   4    -87.1804742 -0.174172E-08  0.371E-04    1.63      39.8  T
   5    -87.1804742 -0.187069E-08  0.784E-05    1.63     188.1  T
   6    -87.1804742 -0.129077E-09  0.208E-05    1.63     709.0  T
     SCC iter.                  ...        0 min,  0.035 sec
     gradient                   ...        0 min,  0.068 sec
 * total energy  :   -86.3501850 Eh     change       -0.8729153E-04 Eh
   gradient norm :     0.0042086 Eh/α   predicted    -0.6185999E-04 ( -29.13%)
   displ. norm   :     0.2324182 α      lambda       -0.1381970E-03
   maximum displ.:     0.1757891 α      in ANC's #2, #3, #5, ...

........................................................................
.............................. CYCLE   13 ..............................
........................................................................
   1    -87.1815178 -0.871815E+02  0.703E-03    1.63       0.0  T
   2    -87.1815189 -0.104678E-05  0.380E-03    1.63       3.9  T
   3    -87.1815190 -0.102983E-06  0.208E-03    1.63       7.1  T
   4    -87.1815190 -0.226658E-07  0.445E-04    1.63      33.1  T
   5    -87.1815190 -0.392774E-08  0.101E-04    1.63     146.0  T
   6    -87.1815190 -0.231395E-09  0.283E-05    1.63     520.4  T
     SCC iter.                  ...        0 min,  0.035 sec
     gradient                   ...        0 min,  0.065 sec
 * total energy  :   -86.3502551 Eh     change       -0.7004667E-04 Eh
   gradient norm :     0.0053407 Eh/α   predicted    -0.7283435E-04 (   3.98%)
   displ. norm   :     0.2588735 α      lambda       -0.1186414E-03
   maximum displ.:     0.1839260 α      in ANC's #2, #3, #19, ...

........................................................................
.............................. CYCLE   14 ..............................
........................................................................
   1    -87.1797343 -0.871797E+02  0.752E-03    1.63       0.0  T
   2    -87.1797352 -0.910763E-06  0.393E-03    1.63       3.8  T
   3    -87.1797354 -0.142865E-06  0.209E-03    1.63       7.0  T
   4    -87.1797354 -0.413299E-07  0.411E-04    1.63      35.8  T
   5    -87.1797354 -0.142923E-08  0.112E-04    1.63     131.4  T
   6    -87.1797354 -0.277026E-09  0.288E-05    1.63     511.1  T
     SCC iter.                  ...        0 min,  0.035 sec
     gradient                   ...        0 min,  0.067 sec
 * total energy  :   -86.3503195 Eh     change       -0.6446075E-04 Eh
   gradient norm :     0.0050941 Eh/α   predicted    -0.6330479E-04 (  -1.79%)
   displ. norm   :     0.0825523 α      lambda       -0.5502631E-04
   maximum displ.:     0.0560162 α      in ANC's #2, #5, #11, ...

........................................................................
.............................. CYCLE   15 ..............................
........................................................................
   1    -87.1808509 -0.871809E+02  0.338E-03    1.63       0.0  T
   2    -87.1808515 -0.545968E-06  0.168E-03    1.63       8.8  T
   3    -87.1808515 -0.467813E-07  0.865E-04    1.63      17.0  T
   4    -87.1808515 -0.461426E-10  0.298E-04    1.63      49.5  T
   5    -87.1808515 -0.905203E-09  0.477E-05    1.63     309.4  T
   6    -87.1808515 -0.752323E-10  0.122E-05    1.63    1204.2  T
     SCC iter.                  ...        0 min,  0.036 sec
     gradient                   ...        0 min,  0.067 sec
 * total energy  :   -86.3503652 Eh     change       -0.4562531E-04 Eh
   gradient norm :     0.0032639 Eh/α   predicted    -0.2770134E-04 ( -39.29%)
   displ. norm   :     0.2128054 α      lambda       -0.8849511E-04
   maximum displ.:     0.1489047 α      in ANC's #2, #5, #11, ...

........................................................................
.............................. CYCLE   16 ..............................
........................................................................
   1    -87.1822347 -0.871822E+02  0.550E-03    1.63       0.0  T
   2    -87.1822362 -0.153937E-05  0.269E-03    1.63       5.5  T
   3    -87.1822363 -0.104010E-06  0.141E-03    1.63      10.5  T
   4    -87.1822363 -0.169436E-09  0.526E-04    1.63      28.0  T
   5    -87.1822363 -0.272873E-08  0.791E-05    1.63     186.3  T
   6    -87.1822363 -0.210662E-09  0.216E-05    1.63     682.2  T
     SCC iter.                  ...        0 min,  0.036 sec
     gradient                   ...        0 min,  0.067 sec
 * total energy  :   -86.3504221 Eh     change       -0.5692911E-04 Eh
   gradient norm :     0.0022320 Eh/α   predicted    -0.4625654E-04 ( -18.75%)
   displ. norm   :     0.1649926 α      lambda       -0.2951319E-04
   maximum displ.:     0.1207429 α      in ANC's #2, #5, #3, ...

........................................................................
.............................. CYCLE   17 ..............................
........................................................................
   1    -87.1821731 -0.871822E+02  0.159E-03    1.63       0.0  T
   2    -87.1821732 -0.823732E-07  0.744E-04    1.63      19.8  T
   3    -87.1821732 -0.469316E-08  0.395E-04    1.63      37.3  T
   4    -87.1821732 -0.409599E-09  0.124E-04    1.63     119.1  T
   5    -87.1821732 -0.144396E-09  0.227E-05    1.63     650.0  T
     SCC iter.                  ...        0 min,  0.031 sec
     gradient                   ...        0 min,  0.066 sec
 * total energy  :   -86.3504446 Eh     change       -0.2255767E-04 Eh
   gradient norm :     0.0024856 Eh/α   predicted    -0.1515890E-04 ( -32.80%)
   displ. norm   :     0.1521784 α      lambda       -0.2839108E-04
   maximum displ.:     0.1108684 α      in ANC's #2, #5, #3, ...

........................................................................
.............................. CYCLE   18 ..............................
........................................................................
   1    -87.1822030 -0.871822E+02  0.233E-03    1.63       0.0  T
   2    -87.1822032 -0.207087E-06  0.102E-03    1.63      14.4  T
   3    -87.1822032 -0.337594E-07  0.450E-04    1.63      32.8  T
   4    -87.1822032 -0.784610E-09  0.174E-04    1.63      84.8  T
   5    -87.1822032 -0.290726E-09  0.325E-05    1.63     454.2  T
     SCC iter.                  ...        0 min,  0.030 sec
     gradient                   ...        0 min,  0.066 sec
 * total energy  :   -86.3504658 Eh     change       -0.2112083E-04 Eh
   gradient norm :     0.0018790 Eh/α   predicted    -0.1452590E-04 ( -31.22%)
   displ. norm   :     0.2132536 α      lambda       -0.2032857E-04
   maximum displ.:     0.1583030 α      in ANC's #2, #5, #3, ...

........................................................................
.............................. CYCLE   19 ..............................
........................................................................
   1    -87.1815207 -0.871815E+02  0.419E-03    1.63       0.0  T
   2    -87.1815215 -0.822111E-06  0.183E-03    1.63       8.0  T
   3    -87.1815216 -0.964102E-07  0.838E-04    1.63      17.6  T
   4    -87.1815216 -0.132411E-08  0.353E-04    1.63      41.8  T
   5    -87.1815216 -0.114547E-08  0.642E-05    1.63     229.7  T
   6    -87.1815216 -0.100343E-09  0.181E-05    1.63     814.7  T
     SCC iter.                  ...        0 min,  0.037 sec
     gradient                   ...        0 min,  0.067 sec
 * total energy  :   -86.3504811 Eh     change       -0.1531305E-04 Eh
   gradient norm :     0.0013269 Eh/α   predicted    -0.1037361E-04 ( -32.26%)
   displ. norm   :     0.0312727 α      lambda       -0.6766795E-05
   maximum displ.:     0.0130934 α      in ANC's #24, #9, #8, ...

........................................................................
.............................. CYCLE   20 ..............................
........................................................................
   1    -87.1823740 -0.871824E+02  0.226E-03    1.63       0.0  T
   2    -87.1823741 -0.746883E-07  0.116E-03    1.63      12.7  T
   3    -87.1823741 -0.778873E-08  0.618E-04    1.63      23.9  T
   4    -87.1823741 -0.530048E-08  0.128E-04    1.63     115.2  T
   5    -87.1823741 -0.866720E-10  0.301E-05    1.63     489.4  T
     SCC iter.                  ...        0 min,  0.030 sec
     gradient                   ...        0 min,  0.066 sec
 * total energy  :   -86.3504856 Eh     change       -0.4566126E-05 Eh
   gradient norm :     0.0015741 Eh/α   predicted    -0.3385665E-05 ( -25.85%)
   displ. norm   :     0.0431026 α      lambda       -0.6705916E-05
   maximum displ.:     0.0285113 α      in ANC's #2, #24, #12, ...
 * RMSD in coord.:     0.4757606 α      energy gain  -0.3212322E-01 Eh

generating ANC from model Hessian ...
Using Lindh-Hessian (1995)
 Shifting diagonal of input Hessian by   9.854208782651882E-003
 Lowest  eigenvalues of input Hessian
    0.000000    0.000000    0.000000    0.000000    0.000000    0.000000
    0.010000    0.010205    0.010326    0.010909    0.011459    0.012145
    0.012457    0.013122    0.013867    0.014416    0.014597    0.015057
 Highest eigenvalues
    2.051564    2.219422    2.265353    2.336315    2.352346    2.424669
 

........................................................................
.............................. CYCLE   21 ..............................
........................................................................
   1    -87.1822823 -0.871823E+02  0.146E-03    1.63       0.0  T
   2    -87.1822823 -0.547478E-07  0.700E-04    1.63      21.1  T
   3    -87.1822823 -0.629592E-08  0.374E-04    1.63      39.4  T
   4    -87.1822823 -0.677588E-09  0.117E-04    1.63     126.4  T
   5    -87.1822823 -0.201908E-09  0.221E-05    1.63     666.0  T
     SCC iter.                  ...        0 min,  0.030 sec
     gradient                   ...        0 min,  0.066 sec
 * total energy  :   -86.3504916 Eh     change       -0.5942395E-05 Eh
   gradient norm :     0.0009327 Eh/α   predicted     0.0000000E+00 (-100.00%)
   displ. norm   :     0.0144153 α      lambda       -0.2725567E-05
   maximum displ.:     0.0081814 α      in ANC's #2, #8, #5, ...

........................................................................
.............................. CYCLE   22 ..............................
........................................................................
   1    -87.1820339 -0.871820E+02  0.836E-04    1.63       0.0  T
   2    -87.1820339 -0.259044E-07  0.412E-04    1.63      35.8  T
   3    -87.1820339 -0.331909E-08  0.216E-04    1.63      68.2  T
   4    -87.1820339 -0.207606E-09  0.746E-05    1.63     197.5  T
   5    -87.1820339 -0.304965E-10  0.135E-05    1.63    1089.8  T
     SCC iter.                  ...        0 min,  0.030 sec
     gradient                   ...        0 min,  0.060 sec
 * total energy  :   -86.3504943 Eh     change       -0.2706541E-05 Eh
   gradient norm :     0.0003282 Eh/α   predicted    -0.1373442E-05 ( -49.25%)
   displ. norm   :     0.0275655 α      lambda       -0.2500252E-05
   maximum displ.:     0.0160528 α      in ANC's #2, #8, #24, ...

   *** GEOMETRY OPTIMIZATION CONVERGED AFTER 22 ITERATIONS ***

------------------------------------------------------------------------
 total energy gain   :        -0.0321319 Eh      -20.1631 kcal/mol
 total RMSD          :         0.4758366 a0        0.2518 Å
 total power (kW/mol):        -3.8346457 (step)  -28.3716 (real)
------------------------------------------------------------------------

 ANCopt (total)                0 d,  0 h,  0 min,  2.973 sec
 optimizer setup                ...        0 min,  0.001 sec (  0.019%)
 model hessian                  ...        0 min,  0.051 sec (  1.723%)
 ANC generation                 ...        0 min,  0.006 sec (  0.216%)
 coordinate transformation      ...        0 min,  0.001 sec (  0.017%)
 single point calculation       ...        0 min,  2.906 sec ( 97.723%)
 optimization log               ...        0 min,  0.005 sec (  0.174%)
 hessian update                 ...        0 min,  0.000 sec (  0.016%)
 rational function              ...        0 min,  0.002 sec (  0.073%)

================
 final structure:
================
46
 xtb: 6.5.1 (579679a)
C           -5.67747307731396       -3.55690544385496        1.65977114651760
O           -4.67797047625031       -3.05431769152367        0.75712666520860
C           -3.88025696338145       -2.09472603251978        1.24120767995604
O           -3.97597013651825       -1.66149579341613        2.36341843267214
C           -2.87091081242456       -1.62115915023854        0.25235068900313
N           -2.08445640415320       -0.60830890061064        0.73183475319984
C           -1.16106588259516       -0.07337504150949        0.00766006322839
C           -0.40106053419777        1.07204944095242        0.66448859481926
C           -0.87646107502626        2.41486756548303        0.09104325992100
C           -0.63104054029410        1.03097225158547        2.18113441729167
N            1.04543729401190        0.85507150152938        0.44468188581700
C            2.00571532379943        1.71326013733927        0.69199243130468
O            1.70741323991357        2.90499374460415        1.10731224666911
C            2.69700615958866        3.91717975235480        1.36031867746949
C            3.35930221963202        1.26547395083869        0.47308334666512
N            4.48852662115309        1.89897327179138        0.63740577960974
N            5.47034281749565        1.04348407042343        0.30767227875149
C            4.90061999706547       -0.07868867981161       -0.04498567030010
C            5.55437378117089       -1.32425499365521       -0.48593566644251
O            3.56745322821314        0.00381367103873        0.03871268936938
N           -0.92773622589077       -0.47324323666493       -1.28025988849558
C            0.08998457292340        0.09377020089365       -2.16577743958352
C           -1.63861573224434       -1.52528852071413       -1.86472230163924
O           -1.38050735400744       -1.88914642188475       -2.99900132029068
C           -2.68135734597330       -2.10496892438444       -1.01556470276224
O           -3.36881883617156       -3.09299732538495       -1.59114009552332
H           -6.32085890436973       -2.73877658996653        1.99037577793805
H           -6.25292179711941       -4.29550183016870        1.10717716134748
H           -5.19474609258833       -4.01603672639510        2.52495596677183
H           -1.95438874077877        2.36552048880530       -0.05969560999089
H           -0.39724114253642        2.63542606491436       -0.85908320920315
H           -0.66006462828489        3.22402349479287        0.78472619467379
H           -1.68896111375021        1.18215913063496        2.38914297073033
H           -0.32596863316201        0.06492599920007        2.57874672833462
H           -0.05199905552625        1.81777757132386        2.65895362470615
H            1.34058986433232       -0.08022429442681        0.19681967068210
H            2.13767595515811        4.79513763666361        1.67796067199932
H            3.25780241209404        4.12229220351506        0.44753994135100
H            3.37660940614937        3.58271592791388        2.14539896441766
H            5.21017632555353       -2.15705250583609        0.12734854756739
H            6.63438541880651       -1.22332264402186       -0.40554421598288
H            5.28171752102438       -1.53738771818820       -1.52021927143617
H            0.42182777940994        1.05697936365847       -1.80312483254848
H            0.93287663127562       -0.59412948168047       -2.22281727586474
H           -0.34817562380384        0.20367174018985       -3.15828866350526
H           -4.05080844040921       -3.46323123357532       -1.00281409442581
 
 Bond Distances (Angstroems)
 ---------------------------
C1-O2=1.4375         C1-H27=1.0921        C1-H28=1.0872        C1-H29=1.0920        O2-C1=1.4375         O2-C3=1.3385         
C3-O2=1.3385         C3-O4=1.2067         C3-C5=1.4903         O4-C3=1.2067         C5-C3=1.4903         C5-N6=1.3690         
C5-C25=1.3703        N6-C5=1.3690         N6-C7=1.2897         C7-N6=1.2897         C7-C8=1.5235         C7-N21=1.3686        
C8-C7=1.5235         C8-C9=1.5356         C8-C10=1.5345        C8-N11=1.4791        C9-C8=1.5356         C9-H30=1.0895        
C9-H31=1.0868        C9-H32=1.0875        C10-C8=1.5345        C10-H33=1.0887       C10-H34=1.0883       C10-H35=1.0875       
N11-C8=1.4791        N11-C12=1.3114       N11-H36=1.0116       C12-N11=1.3114       C12-O13=1.2968       C12-C15=1.4424       
O13-C12=1.2968       O13-C14=1.4380       C14-O13=1.4380       C14-H37=1.0884       C14-H38=1.0907       C14-H39=1.0909       
C15-C12=1.4424       C15-N16=1.3052       C15-O20=1.3505       N16-C15=1.3052       N16-N17=1.3433       N17-N16=1.3433       
N17-C18=1.3070       C18-N17=1.3070       C18-C19=1.4742       C18-O20=1.3383       C19-C18=1.4742       C19-H40=1.0900       
C19-H41=1.0877       C19-H42=1.0906       O20-C15=1.3505       O20-C18=1.3383       N21-C7=1.3686        N21-C22=1.4634       
N21-C23=1.3978       C22-N21=1.4634       C22-H43=1.0814       C22-H44=1.0895       C22-H45=1.0905       C23-N21=1.3978       
C23-O24=1.2189       C23-C25=1.4644       O24-C23=1.2189       C25-C5=1.3703        C25-C23=1.4644       C25-O26=1.3342       
O26-C25=1.3342       O26-H46=0.9738       H27-C1=1.0921        H28-C1=1.0872        H29-C1=1.0920        H30-C9=1.0895        
H31-C9=1.0868        H32-C9=1.0875        H33-C10=1.0887       H34-C10=1.0883       H35-C10=1.0875       H36-N11=1.0116       
H37-C14=1.0884       H38-C14=1.0907       H39-C14=1.0909       H40-C19=1.0900       H41-C19=1.0877       H42-C19=1.0906       
H43-C22=1.0814       H44-C22=1.0895       H45-C22=1.0905       H46-O26=0.9738       
 C  H  Rav=1.0889 sigma=0.0024  Rmin=1.0814  Rmax=1.0921    18
 C  C  Rav=1.4794 sigma=0.0522  Rmin=1.3703  Rmax=1.5356     8
 N  H  Rav=1.0116 sigma=0.0000  Rmin=1.0116  Rmax=1.0116     1
 N  C  Rav=1.3657 sigma=0.0661  Rmin=1.2897  Rmax=1.4791     9
 N  N  Rav=1.3433 sigma=0.0000  Rmin=1.3433  Rmax=1.3433     1
 O  H  Rav=0.9738 sigma=0.0000  Rmin=0.9738  Rmax=0.9738     1
 O  C  Rav=1.3288 sigma=0.0763  Rmin=1.2067  Rmax=1.4380     9
 
 selected bond angles (degree)
 --------------------
H27-C1-O2=109.74               H28-C1-O2=106.64               H28-C1-H27=110.55              H29-C1-O2=109.70               
H29-C1-H27=109.61              H29-C1-H28=110.55              C3-O2-C1=115.97                O4-C3-O2=123.12                
C5-C3-O2=113.05                C5-C3-O4=123.83                N6-C5-C3=113.07                C25-C5-C3=126.55               
C25-C5-N6=120.39               C7-N6-C5=121.43                C8-C7-N6=115.27                N21-C7-N6=121.96               
N21-C7-C8=122.71               C9-C8-C7=110.00                C10-C8-C7=109.34               C10-C8-C9=110.25               
N11-C8-C7=108.27               N11-C8-C9=112.06               N11-C8-C10=106.83              H30-C9-C8=108.56               
H31-C9-C8=111.56               H31-C9-H30=108.94              H32-C9-C8=110.54               H32-C9-H30=108.59              
H32-C9-H31=108.60              H33-C10-C8=109.31              H34-C10-C8=110.05              H34-C10-H33=109.02             
H35-C10-C8=109.58              H35-C10-H33=109.45             H35-C10-H34=109.42             
 
 selected dihedral angles (degree)
 ---------------------------------
C3-O2-C1-H27= 58.40           C3-O2-C1-H28=178.16           C3-O2-C1-H29=297.92           O4-C3-O2-C1=359.96            
C5-C3-O2-C1=180.05            N6-C5-C3-O2=177.92            N6-C5-C3-O4=358.02            C25-C5-C3-O2=357.38           
C25-C5-C3-O4=177.48           C7-N6-C5-C3=180.31            C7-N6-C5-C25=  0.80           C8-C7-N6-C5=178.09            
N21-C7-N6-C5=  0.88           C9-C8-C7-N6=256.06            C9-C8-C7-N21= 73.24           C10-C8-C7-N6= 17.26           
C10-C8-C7-N21=194.45          N11-C8-C7-N6=133.31           N11-C8-C7-N21=310.49          H30-C9-C8-C7= 38.61           
H30-C9-C8-C10=277.94          H30-C9-C8-N11=159.10          H31-C9-C8-C7=278.56           H31-C9-C8-C10=157.90          
H31-C9-C8-N11= 39.05          H32-C9-C8-C7=157.61           H32-C9-C8-C10= 36.95          H32-C9-C8-N11=278.11          
H33-C10-C8-C7=297.24          H33-C10-C8-C9= 58.29          H33-C10-C8-N11=180.28         H34-C10-C8-C7= 56.94          
H34-C10-C8-C9=177.99          H34-C10-C8-N11=299.98         H35-C10-C8-C7=177.29          H35-C10-C8-C9=298.35          
H35-C10-C8-N11= 60.34         
           -------------------------------------------------
          |                Final Singlepoint                |
           -------------------------------------------------

          ...................................................
          :                      SETUP                      :
          :.................................................:
          :  # basis functions                 144          :
          :  # atomic orbitals                 144          :
          :  # shells                           92          :
          :  # electrons                       140          :
          :  # halogen bonds                     0          :
          :  max. iterations                   250          :
          :  Hamiltonian                  GFN1-xTB          :
          :  restarted?                      false          :
          :  GBSA solvation                   true          :
          :  PC potential                    false          :
          :  electronic temp.          300.0000000     K    :
          :  accuracy                    1.0000000          :
          :  -> integral cutoff          0.2500000E+02      :
          :  -> integral neglect         0.1000000E-07      :
          :  -> SCF convergence          0.1000000E-05 Eh   :
          :  -> wf. convergence          0.2000000E-04 e    :
          :  Broyden damping             0.4000000          :
          ...................................................

 iter      E             dE          RMSdq      gap      omega  full diag
   1    -87.1820339 -0.871820E+02  0.433E-06    1.63       0.0  T
   2    -87.1820339 -0.994760E-13  0.196E-06    1.63    7520.3  T
   3    -87.1820339 -0.184741E-12  0.955E-07    1.63   15434.5  T

   *** convergence criteria satisfied after 3 iterations ***

         #    Occupation            Energy/Eh            Energy/eV
      -------------------------------------------------------------
         1        2.0000           -0.9066432             -24.6710
       ...           ...                  ...                  ...
        64        2.0000           -0.4923764             -13.3982
        65        2.0000           -0.4906334             -13.3508
        66        2.0000           -0.4887020             -13.2983
        67        2.0000           -0.4852743             -13.2050
        68        2.0000           -0.4698096             -12.7842
        69        2.0000           -0.4577272             -12.4554
        70        2.0000           -0.4387775             -11.9397 (HOMO)
        71                         -0.3788918             -10.3102 (LUMO)
        72                         -0.3325787              -9.0499
        73                         -0.2966569              -8.0724
        74                         -0.2915660              -7.9339
        75                         -0.2585470              -7.0354
       ...                                ...                  ...
       144                          0.7298545              19.8604
      -------------------------------------------------------------
                  HL-Gap            0.0598858 Eh            1.6296 eV
             Fermi-level           -0.4088346 Eh          -11.1250 eV

 SCC (total)                   0 d,  0 h,  0 min,  0.129 sec
 SCC setup                      ...        0 min,  0.002 sec (  1.488%)
 Dispersion                     ...        0 min,  0.000 sec (  0.231%)
 classical contributions        ...        0 min,  0.000 sec (  0.082%)
 integral evaluation            ...        0 min,  0.030 sec ( 23.449%)
 iterations                     ...        0 min,  0.021 sec ( 16.619%)
 molecular gradient             ...        0 min,  0.073 sec ( 56.958%)
 printout                       ...        0 min,  0.001 sec (  1.151%)

         :::::::::::::::::::::::::::::::::::::::::::::::::::::
         ::                     SUMMARY                     ::
         :::::::::::::::::::::::::::::::::::::::::::::::::::::
         :: total energy             -86.350494296328 Eh    ::
         :: total w/o Gsasa/hb       -86.325712710024 Eh    ::
         :: gradient norm              0.000329870857 Eh/a0 ::
         :: HOMO-LUMO gap              1.629574703051 eV    ::
         ::.................................................::
         :: SCC energy               -87.182033949798 Eh    ::
         :: -> electrostatic           0.400112521502 Eh    ::
         :: -> Gsolv                  -0.115103530584 Eh    ::
         ::    -> Gelec               -0.090321944281 Eh    ::
         ::    -> Gsasa               -0.025656312293 Eh    ::
         ::    -> Ghb                 -0.006749553015 Eh    ::
         ::    -> Gshift               0.007624279005 Eh    ::
         :: repulsion energy           0.860646232257 Eh    ::
         :: dispersion energy         -0.029106578786 Eh    ::
         :: halogen bond corr.         0.000000000000 Eh    ::
         :: add. restraining           0.000000000000 Eh    ::
         :: total charge               1.000000000000 e     ::
         :::::::::::::::::::::::::::::::::::::::::::::::::::::

           -------------------------------------------------
          |                Property Printout                |
           -------------------------------------------------

    * Orbital Energies and Occupations

         #    Occupation            Energy/Eh            Energy/eV
      -------------------------------------------------------------
         1        2.0000           -0.9066432             -24.6710
       ...           ...                  ...                  ...
        58        2.0000           -0.5272275             -14.3466
        59        2.0000           -0.5220483             -14.2057
        60        2.0000           -0.5193708             -14.1328
        61        2.0000           -0.5152354             -14.0203
        62        2.0000           -0.5112860             -13.9128
        63        2.0000           -0.5033878             -13.6979
        64        2.0000           -0.4923764             -13.3982
        65        2.0000           -0.4906334             -13.3508
        66        2.0000           -0.4887020             -13.2983
        67        2.0000           -0.4852743             -13.2050
        68        2.0000           -0.4698096             -12.7842
        69        2.0000           -0.4577272             -12.4554
        70        2.0000           -0.4387775             -11.9397 (HOMO)
        71                         -0.3788918             -10.3102 (LUMO)
        72                         -0.3325787              -9.0499
        73                         -0.2966569              -8.0724
        74                         -0.2915660              -7.9339
        75                         -0.2585470              -7.0354
        76                         -0.2491604              -6.7800
        77                         -0.1682067              -4.5771
        78                         -0.1638432              -4.4584
        79                         -0.1562759              -4.2525
        80                         -0.1549418              -4.2162
        81                         -0.1476655              -4.0182
       ...                                ...                  ...
       144                          0.7298545              19.8604
      -------------------------------------------------------------
                  HL-Gap            0.0598858 Eh            1.6296 eV
             Fermi-level           -0.4088346 Eh          -11.1250 eV

  Mulliken/CM5 charges         n(s)   n(p)   n(d)
     1C     0.16244  0.04085   0.984  2.853  0.000
     2O    -0.42743 -0.52601   1.692  4.735  0.000
     3C     0.57875  0.64487   0.969  2.452  0.000
     4O    -0.54745 -0.59228   1.722  4.825  0.000
     5C     0.06636  0.14287   1.045  2.888  0.000
     6N    -0.35837 -0.54789   1.521  3.838  0.000
     7C     0.26404  0.41705   1.013  2.723  0.000
     8C     0.14487  0.18316   1.076  2.779  0.000
     9C    -0.10956 -0.25034   1.024  3.085  0.000
    10C    -0.09950 -0.23698   1.023  3.077  0.000
    11N    -0.25659 -0.62103   1.440  3.817  0.000
    12C     0.44737  0.55450   0.979  2.573  0.000
    13O    -0.35324 -0.44613   1.662  4.691  0.000
    14C     0.14966  0.02928   0.997  2.853  0.000
    15C     0.33275  0.45553   0.981  2.686  0.000
    16N    -0.17688 -0.28977   1.561  3.616  0.000
    17N    -0.22225 -0.32844   1.555  3.667  0.000
    18C     0.41299  0.51976   1.019  2.568  0.000
    19C    -0.11176 -0.24903   1.015  3.097  0.000
    20O    -0.33993 -0.39830   1.692  4.648  0.000
    21N    -0.22185 -0.47032   1.456  3.766  0.000
    22C     0.04291 -0.04483   0.995  2.962  0.000
    23C     0.45102  0.55323   0.986  2.563  0.000
    24O    -0.56297 -0.60641   1.725  4.838  0.000
    25C     0.23866  0.27323   1.027  2.734  0.000
    26O    -0.49723 -0.68996   1.688  4.809  0.000
    27H     0.05908  0.12107   0.941  0.000  0.000
    28H     0.06093  0.12123   0.939  0.000  0.000
    29H     0.05892  0.12056   0.941  0.000  0.000
    30H     0.06660  0.12228   0.933  0.000  0.000
    31H     0.06051  0.11920   0.939  0.000  0.000
    32H     0.06940  0.12890   0.931  0.000  0.000
    33H     0.06777  0.12675   0.932  0.000  0.000
    34H     0.05910  0.11846   0.941  0.000  0.000
    35H     0.05785  0.11740   0.942  0.000  0.000
    36H     0.29596  0.50368   0.704  0.000  0.000
    37H     0.08963  0.15025   0.910  0.000  0.000
    38H     0.07357  0.13768   0.926  0.000  0.000
    39H     0.07316  0.13752   0.927  0.000  0.000
    40H     0.09648  0.15119   0.904  0.000  0.000
    41H     0.08563  0.14136   0.914  0.000  0.000
    42H     0.09813  0.15251   0.902  0.000  0.000
    43H     0.05182  0.12415   0.948  0.000  0.000
    44H     0.07256  0.13800   0.927  0.000  0.000
    45H     0.08828  0.15653   0.912  0.000  0.000
    46H     0.40781  0.59467   0.592  0.000  0.000

Wiberg/Mayer (AO) data.
largest (>0.10) Wiberg bond orders for each atom

 ---------------------------------------------------------------------------
     #   Z sym  total        # sym  WBO       # sym  WBO       # sym  WBO
 ---------------------------------------------------------------------------
     1   6 C    3.858 --    28 H    0.986    27 H    0.980    29 H    0.980
                             2 O    0.881
     2   8 O    2.206 --     3 C    1.094     1 C    0.881     4 O    0.131
     3   6 C    3.849 --     4 O    1.674     2 O    1.094     5 C    1.002
     4   8 O    1.935 --     3 C    1.674     2 O    0.131
     5   6 C    3.960 --    25 C    1.491     6 N    1.179     3 C    1.002
     6   7 N    3.037 --     7 C    1.582     5 C    1.179
     7   6 C    3.939 --     6 N    1.582    21 N    1.174     8 C    0.976
     8   6 C    3.898 --    10 C    0.982     9 C    0.980     7 C    0.976
                            11 N    0.887
     9   6 C    3.981 --    30 H    0.981     8 C    0.980    32 H    0.979
                            31 H    0.978
    10   6 C    3.978 --    35 H    0.984    34 H    0.983     8 C    0.982
                            33 H    0.979
    11   7 N    3.477 --    12 C    1.439     8 C    0.887    36 H    0.874
                            13 O    0.109
    12   6 C    3.895 --    11 N    1.439    13 O    1.206    15 C    1.090
    13   8 O    2.285 --    12 C    1.206    14 C    0.857    11 N    0.109
    14   6 C    3.823 --    37 H    0.980    38 H    0.973    39 H    0.973
                            13 O    0.857
    15   6 C    3.887 --    16 N    1.544    12 C    1.090    20 O    1.046
    16   7 N    3.032 --    15 C    1.544    17 N    1.258
    17   7 N    2.989 --    18 C    1.543    16 N    1.258
    18   6 C    3.848 --    17 N    1.543    20 O    1.088    19 C    1.041
    19   6 C    3.978 --    18 C    1.041    41 H    0.979    40 H    0.956
                            42 H    0.951
    20   8 O    2.333 --    18 C    1.088    15 C    1.046
    21   7 N    3.497 --     7 C    1.174    23 C    1.099    22 C    0.929
                            24 O    0.136
    22   6 C    3.920 --    43 H    0.979    44 H    0.974    45 H    0.972
                            21 N    0.929
    23   6 C    3.910 --    24 O    1.601    21 N    1.099    25 C    1.063
    24   8 O    1.912 --    23 C    1.601    21 N    0.136
    25   6 C    3.921 --     5 C    1.491    26 O    1.118    23 C    1.063
    26   8 O    2.098 --    25 C    1.118    46 H    0.797
    27   1 H    1.006 --     1 C    0.980
    28   1 H    1.008 --     1 C    0.986
    29   1 H    1.005 --     1 C    0.980
    30   1 H    0.998 --     9 C    0.981
    31   1 H    1.000 --     9 C    0.978
    32   1 H    1.003 --     9 C    0.979
    33   1 H    1.008 --    10 C    0.979
    34   1 H    1.003 --    10 C    0.983
    35   1 H    1.000 --    10 C    0.984
    36   1 H    0.922 --    11 N    0.874
    37   1 H    1.001 --    14 C    0.980
    38   1 H    1.006 --    14 C    0.973
    39   1 H    1.008 --    14 C    0.973
    40   1 H    0.992 --    19 C    0.956
    41   1 H    0.994 --    19 C    0.979
    42   1 H    0.992 --    19 C    0.951
    43   1 H    1.005 --    22 C    0.979
    44   1 H    0.999 --    22 C    0.974
    45   1 H    1.003 --    22 C    0.972
    46   1 H    0.849 --    26 O    0.797
 ---------------------------------------------------------------------------

Topologies differ in total number of bonds
Writing topology from bond orders to xtbtopo.mol

 dipole moment from electron density (au)
     X       Y       Z   
   3.4504   1.4088   1.0712  total (Debye):    9.856

           -------------------------------------------------
          |                Geometry Summary                 |
           -------------------------------------------------

      molecular mass/u    :      366.3497991
   center of mass at/Å    :       -0.0854267      -0.2076353       0.1388038
  moments of inertia/u·Å² :        0.1359209E+04   0.5004058E+04   0.5525855E+04
rotational constants/cm⁻¹ :        0.1240253E-01   0.3368793E-02   0.3050683E-02

 * 43 selected distances

     #   Z          #   Z                                           value/Å
     1   6 C        2   8 O                                       1.4374865
     2   8 O        3   6 C                                       1.3384684
     3   6 C        4   8 O                                       1.2067339
     5   6 C        6   7 N                                       1.3690440
     6   7 N        7   6 C                                       1.2896641
     8   6 C        9   6 C                                       1.5355801 (max)
     8   6 C       10   6 C                                       1.5345335
     8   6 C       11   7 N                                       1.4791047
    11   7 N       12   6 C                                       1.3114055
    12   6 C       13   8 O                                       1.2968053
    13   8 O       14   6 C                                       1.4379942
    12   6 C       15   6 C                                       1.4424394
    15   6 C       16   7 N                                       1.3051710
    17   7 N       18   6 C                                       1.3069903
    18   6 C       19   6 C                                       1.4742004
    15   6 C       20   8 O                                       1.3504783
    18   6 C       20   8 O                                       1.3383370
     7   6 C       21   7 N                                       1.3686035
    21   7 N       22   6 C                                       1.4633529
    21   7 N       23   6 C                                       1.3977645
    23   6 C       24   8 O                                       1.2188526
     5   6 C       25   6 C                                       1.3702599
    25   6 C       26   8 O                                       1.3342004
     1   6 C       27   1 H                                       1.0920530
     1   6 C       28   1 H                                       1.0872103
     1   6 C       29   1 H                                       1.0919578
     9   6 C       30   1 H                                       1.0895346
     9   6 C       31   1 H                                       1.0867559
     9   6 C       32   1 H                                       1.0875463
    10   6 C       33   1 H                                       1.0887246
    10   6 C       34   1 H                                       1.0883060
    10   6 C       35   1 H                                       1.0875031
    11   7 N       36   1 H                                       1.0115973
    14   6 C       37   1 H                                       1.0883735
    14   6 C       38   1 H                                       1.0907469
    14   6 C       39   1 H                                       1.0909069
    19   6 C       40   1 H                                       1.0900190
    19   6 C       41   1 H                                       1.0876927
    19   6 C       42   1 H                                       1.0906465
    22   6 C       43   1 H                                       1.0813921
    22   6 C       44   1 H                                       1.0894617
    22   6 C       45   1 H                                       1.0904776
    26   8 O       46   1 H                                       0.9738124 (min)

 * 6 distinct bonds (by element types)

   Z      Z             #   av. dist./Å        max./Å        min./Å
   1 H    6 C          18     1.0888505     1.0920530     1.0813921
   6 C    6 C           5     1.4714027     1.5355801     1.3702599
   1 H    7 N           1     1.0115973     1.0115973     1.0115973
   6 C    7 N           9     1.3656778     1.4791047     1.2896641
   1 H    8 O           1     0.9738124     0.9738124     0.9738124
   6 C    8 O           9     1.3288174     1.4379942     1.2067339


optimized geometry written to: xtbopt.xyz


           -------------------------------------------------
          | TOTAL ENERGY              -86.350494296328 Eh   |
          | GRADIENT NORM               0.000329870857 Eh/α |
          | HOMO-LUMO GAP               1.629574703051 eV   |
           -------------------------------------------------

------------------------------------------------------------------------
 * finished run on 2023/06/20 at 15:36:58.576     
------------------------------------------------------------------------
 total:
 * wall-time:     0 d,  0 h,  0 min,  3.339 sec
 *  cpu-time:     0 d,  0 h,  0 min,  3.314 sec
 * ratio c/w:     0.993 speedup
 SCF:
 * wall-time:     0 d,  0 h,  0 min,  0.175 sec
 *  cpu-time:     0 d,  0 h,  0 min,  0.166 sec
 * ratio c/w:     0.949 speedup
 ANC optimizer:
 * wall-time:     0 d,  0 h,  0 min,  3.107 sec
 *  cpu-time:     0 d,  0 h,  0 min,  3.103 sec
 * ratio c/w:     0.999 speedup

