42
 energy: -82.950159222432 gnorm: 0.000857839587 xtb: 6.5.1 (579679a)
C           -6.68172531840356        1.27508878238301        0.43287796832365
O           -5.46991335032952        0.90965392197656       -0.22512628590317
C           -4.35580811923854        0.95751137361718        0.52292509639566
O           -4.37666118789472        1.28727094606457        1.69524881735170
C           -3.13700699897029        0.56850294565320       -0.19663976205355
C           -3.07734373746613        0.28147901862629       -1.57510896836384
O           -3.99231202482537        0.25285657772418       -2.40061136115817
C           -1.66665743216477        0.06725354402974       -2.10910630206301
O           -1.26186427723941        0.18170465892114       -3.22115081155089
N           -0.67234685836431       -0.41857537554702       -1.07952206673174
C           -0.86633033977064       -1.89793702748268       -1.01744122369581
C           -0.86376099145204        0.21855285972797        0.25019983508971
C            0.34546594637461        0.35557021781120        1.15354811765667
C            0.26550189258095        1.72844203279027        1.83626928082711
C            0.34457099953499       -0.74324848643955        2.22566647679316
N            1.57929381257473        0.34872161827732        0.36113612877055
C            2.33314711703365       -0.73439067072507        0.05473429093958
O            2.00214181628707       -1.89819049256847        0.19628784537068
C            3.63125021711503       -0.32093394722607       -0.52788993637876
N            4.03042697760569        0.89975422304104       -0.72614986004512
N            5.27702491071948        0.82173257670089       -1.26515627462372
C            5.56183718110973       -0.44319357769479       -1.35946973036830
C            6.80844821063553       -1.05301062544750       -1.87109766578584
O            4.56093051850124       -1.21383888982757       -0.91140194324159
N           -2.00512106972577        0.62450931676695        0.59442161933761
H           -7.48254241787834        1.16281837390598       -0.29623510430001
H           -6.86006642821724        0.62149190737041        1.29115158485931
H           -6.62963166461448        2.31162220744543        0.77763923741706
H            0.26571461952209       -0.22523971442536       -1.43188520732447
H           -0.78849480834761       -2.28935632673469       -2.02912309869032
H           -1.84636950883679       -2.10611229285103       -0.59506774427387
H           -0.08124338536985       -2.31350340148518       -0.39248821944536
H           -0.66945972986488        1.80260044562058        2.39024751168991
H            0.29420858742447        2.52178565563364        1.09170610486869
H            1.10123074053270        1.84859537020038        2.52267042222090
H            1.25536739892720       -0.67919361699301        2.81789299355343
H           -0.51676815507905       -0.59266108324038        2.87513241901590
H            0.27749275042929       -1.73363811792003        1.78382593367696
H            2.01035202857060        1.24930103207617        0.20181279602134
H            6.57603075428514       -1.78218981889010       -2.64744767481896
H            7.32456584353783       -1.57355676796223       -1.06296289975605
H            7.45642548075971       -0.27804737290263       -2.27390433960387
