      -----------------------------------------------------------      
     |                   =====================                   |     
     |                           x T B                           |     
     |                   =====================                   |     
     |                         S. Grimme                         |     
     |          Mulliken Center for Theoretical Chemistry        |     
     |                    University of Bonn                     |     
      -----------------------------------------------------------      

   * xtb version 6.5.1 (579679a) compiled by 'ehlert@majestix' on 2022-07-11

   xtb is free software: you can redistribute it and/or modify it under
   the terms of the GNU Lesser General Public License as published by
   the Free Software Foundation, either version 3 of the License, or
   (at your option) any later version.
   
   xtb is distributed in the hope that it will be useful,
   but WITHOUT ANY WARRANTY; without even the implied warranty of
   MERCHANTABILITY or FITNESS FOR A PARTICULAR PURPOSE.  See the
   GNU Lesser General Public License for more details.
   
   Cite this work as:
   * C. Bannwarth, E. Caldeweyher, S. Ehlert, A. Hansen, P. Pracht,
     J. Seibert, S. Spicher, S. Grimme, WIREs Comput. Mol. Sci., 2020, 11,
     e01493. DOI: 10.1002/wcms.1493
   
   for GFN2-xTB:
   * C. Bannwarth, S. Ehlert and S. Grimme., J. Chem. Theory Comput., 2019,
     15, 1652-1671. DOI: 10.1021/acs.jctc.8b01176
   for GFN1-xTB:
   * S. Grimme, C. Bannwarth, P. Shushkov, J. Chem. Theory Comput., 2017,
     13, 1989-2009. DOI: 10.1021/acs.jctc.7b00118
   for GFN0-xTB:
   * P. Pracht, E. Caldeweyher, S. Ehlert, S. Grimme, ChemRxiv, 2019, preprint.
     DOI: 10.26434/chemrxiv.8326202.v1
   for GFN-FF:
   * S. Spicher and S. Grimme, Angew. Chem. Int. Ed., 2020, 59, 15665-15673.
     DOI: 10.1002/anie.202004239
   
   for ALPB and GBSA implicit solvation:
   * S. Ehlert, M. Stahn, S. Spicher, S. Grimme, J. Chem. Theory Comput.,
     2021, 17, 4250-4261. DOI: 10.1021/acs.jctc.1c00471
   
   for DFT-D4:
   * E. Caldeweyher, C. Bannwarth and S. Grimme, J. Chem. Phys., 2017,
     147, 034112. DOI: 10.1063/1.4993215
   * E. Caldeweyher, S. Ehlert, A. Hansen, H. Neugebauer, S. Spicher,
     C. Bannwarth and S. Grimme, J. Chem. Phys., 2019, 150, 154122.
     DOI: 10.1063/1.5090222
   * E. Caldeweyher, J.-M. Mewes, S. Ehlert and S. Grimme, Phys. Chem. Chem. Phys.
     2020, 22, 8499-8512. DOI: 10.1039/D0CP00502A
   
   for sTDA-xTB:
   * S. Grimme and C. Bannwarth, J. Chem. Phys., 2016, 145, 054103.
     DOI: 10.1063/1.4959605
   
   in the mass-spec context:
   * V. Asgeirsson, C. Bauer and S. Grimme, Chem. Sci., 2017, 8, 4879.
     DOI: 10.1039/c7sc00601b
   * J. Koopman and S. Grimme, ACS Omega 2019, 4, 12, 15120-15133.
     DOI: 10.1021/acsomega.9b02011
   
   for metadynamics refer to:
   * S. Grimme, J. Chem. Theory Comput., 2019, 155, 2847-2862
     DOI: 10.1021/acs.jctc.9b00143
   
   for SPH calculations refer to:
   * S. Spicher and S. Grimme, J. Chem. Theory Comput., 2021, 17, 1701-1714
     DOI: 10.1021/acs.jctc.0c01306
   
   with help from (in alphabetical order)
   P. Atkinson, C. Bannwarth, F. Bohle, G. Brandenburg, E. Caldeweyher
   M. Checinski, S. Dohm, S. Ehlert, S. Ehrlich, I. Gerasimov, C. Hölzer
   A. Katbashev, J. Koopman, C. Lavigne, S. Lehtola, F. März, M. Müller,
   F. Musil, H. Neugebauer, J. Pisarek, C. Plett, P. Pracht, F. Pultar,
   J. Seibert, P. Shushkov, S. Spicher, M. Stahn, M. Steiner, T. Strunk,
   J. Stückrath, T. Rose, and J. Unsleber
   
 * started run on 2023/06/20 at 15:20:11.220     

           -------------------------------------------------
          |                Calculation Setup                |
           -------------------------------------------------

          program call               : /lustre/hpc/kemi/ree/PhD/git/ReactivityQM/dep/xtb-6.5.1/bin/xtb --gfn 1 /lustre/hpc/kemi/ree/PhD/git/ReactivityQM/calculations/R03/reac02prodE06/conf12/R03_reac02prodE06_conf12_gfn1.xyz --opt --vfukui --chrg -1 --uhf 0 --alpb DMSO
          hostname                   : node068
          coordinate file            : /lustre/hpc/kemi/ree/PhD/git/ReactivityQM/calculations/R03/reac02prodE06/conf12/R03_reac02prodE06_conf12_gfn1.xyz
          omp threads                :                     1

   ID    Z sym.   atoms
    1    6 C      1, 3, 5, 6, 8, 11-16, 18, 20, 23, 24
    2    8 O      2, 4, 7, 9, 19, 25
    3    7 N      10, 17, 21, 22, 26
    4    1 H      27-46

           -------------------------------------------------
          |                 G F N 1 - x T B                 |
           -------------------------------------------------

        Reference                      10.1021/acs.jctc.7b00118
      * Hamiltonian:
        H0-scaling (s, p, d)           1.850000    2.250000    2.000000
        zeta-weighting                 0.000000
      * Dispersion:
        s8                             2.400000
        a1                             0.630000
        a2                             5.000000
        s9                             0.000000
      * Repulsion:
        kExp                           1.500000
        rExp                           1.000000
      * Coulomb:
        alpha                          2.000000
        third order                    atomic
        anisotropic                    false
      * Halogen bond correction:
        rad-scale                      1.300000
        damping                        0.440000

      * Solvation model:               ALPB
        Solvent                        DMSO
        Parameter file                 internal GFN1-xTB/ALPB
        Dielectric constant                4.6680E+01
        Reference state                gsolv [1 M gas/solution]
        Free energy shift                  7.6243E-03 Eh       4.7843E+00 kcal/mol
        Temperature                        2.9815E+02 K
        Density                            1.1000E+00 kg/L
        Solvent mass                       7.8130E+01 g/mol
        Interaction kernel             P16
        Born radius scaling (c1)           1.7672E+00
        Born radii integrator          GBOBC
        Born offset                        0.0000E+00 a0       0.0000E+00 AA
        H-bond correction              true
        Ion screening                  false
        Surface tension                    1.0000E-05 Eh       1.5569E+01 dyn/cm
        Grid points                               230 per atom

          ...................................................
          :                      SETUP                      :
          :.................................................:
          :  # basis functions                 144          :
          :  # atomic orbitals                 144          :
          :  # shells                           92          :
          :  # electrons                       142          :
          :  # halogen bonds                     0          :
          :  max. iterations                   250          :
          :  Hamiltonian                  GFN1-xTB          :
          :  restarted?                      false          :
          :  GBSA solvation                   true          :
          :  PC potential                    false          :
          :  electronic temp.          300.0000000     K    :
          :  accuracy                    1.0000000          :
          :  -> integral cutoff          0.2500000E+02      :
          :  -> integral neglect         0.1000000E-07      :
          :  -> SCF convergence          0.1000000E-05 Eh   :
          :  -> wf. convergence          0.2000000E-04 e    :
          :  Broyden damping             0.4000000          :
          ...................................................

 iter      E             dE          RMSdq      gap      omega  full diag
   1    -87.5270287 -0.875270E+02  0.845E+00    1.62       0.0  T
   2    -87.8011461 -0.274117E+00  0.506E+00    0.69       1.0  T
   3    -87.7902605  0.108856E-01  0.146E+00    0.32       1.0  T
   4    -87.8155161 -0.252556E-01  0.169E-01    0.30       1.0  T
   5    -87.8162832 -0.767033E-03  0.782E-02    0.43       1.0  T
   6    -87.8166119 -0.328711E-03  0.325E-02    0.36       1.0  T
   7    -87.8166649 -0.530556E-04  0.103E-02    0.37       1.4  T
   8    -87.8166694 -0.450807E-05  0.475E-03    0.37       3.1  T
   9    -87.8166705 -0.111125E-05  0.141E-03    0.37      10.5  T
  10    -87.8166707 -0.150431E-06  0.592E-04    0.37      24.9  T
  11    -87.8166707 -0.166287E-07  0.153E-04    0.37      96.6  T
  12    -87.8166707 -0.571930E-09  0.496E-05    0.37     297.5  T

   *** convergence criteria satisfied after 12 iterations ***

         #    Occupation            Energy/Eh            Energy/eV
      -------------------------------------------------------------
         1        2.0000           -0.8500053             -23.1298
       ...           ...                  ...                  ...
        65        2.0000           -0.4320123             -11.7557
        66        2.0000           -0.4297703             -11.6946
        67        2.0000           -0.4181897             -11.3795
        68        2.0000           -0.3981065             -10.8330
        69        2.0000           -0.3865479             -10.5185
        70        2.0000           -0.3689862             -10.0406
        71        1.9984           -0.3152836              -8.5793 (HOMO)
        72        0.0016           -0.3017803              -8.2119 (LUMO)
        73                         -0.2725327              -7.4160
        74                         -0.2496487              -6.7933
        75                         -0.1896674              -5.1611
        76                         -0.1873254              -5.0974
       ...                                ...                  ...
       144                          0.7290269              19.8378
      -------------------------------------------------------------
                  HL-Gap            0.0135033 Eh            0.3674 eV
             Fermi-level           -0.3085320 Eh           -8.3956 eV

 SCC (total)                   0 d,  0 h,  0 min,  0.193 sec
 SCC setup                      ...        0 min,  0.002 sec (  1.111%)
 Dispersion                     ...        0 min,  0.000 sec (  0.189%)
 classical contributions        ...        0 min,  0.000 sec (  0.063%)
 integral evaluation            ...        0 min,  0.039 sec ( 20.178%)
 iterations                     ...        0 min,  0.078 sec ( 40.589%)
 molecular gradient             ...        0 min,  0.071 sec ( 37.045%)
 printout                       ...        0 min,  0.002 sec (  0.815%)

         :::::::::::::::::::::::::::::::::::::::::::::::::::::
         ::                     SUMMARY                     ::
         :::::::::::::::::::::::::::::::::::::::::::::::::::::
         :: total energy             -87.041942927500 Eh    ::
         :: total w/o Gsasa/hb       -87.021368900686 Eh    ::
         :: gradient norm              0.112155127647 Eh/a0 ::
         :: HOMO-LUMO gap              0.367442299428 eV    ::
         ::.................................................::
         :: SCC energy               -87.816670706422 Eh    ::
         :: -> electrostatic           0.442939818186 Eh    ::
         :: -> Gsolv                  -0.105956823662 Eh    ::
         ::    -> Gelec               -0.085382796848 Eh    ::
         ::    -> Gsasa               -0.023883908492 Eh    ::
         ::    -> Ghb                 -0.004314397327 Eh    ::
         ::    -> Gshift               0.007624279005 Eh    ::
         :: repulsion energy           0.806232900413 Eh    ::
         :: dispersion energy         -0.031505121491 Eh    ::
         :: halogen bond corr.         0.000000000000 Eh    ::
         :: add. restraining           0.000000000000 Eh    ::
         :: total charge              -1.000000000000 e     ::
         :::::::::::::::::::::::::::::::::::::::::::::::::::::

      ----------------------------------------------------------- 
     |                   =====================                   |
     |                        A N C O P T                        |
     |                   =====================                   |
     |               Approximate Normal Coordinate               |
     |                Rational Function Optimizer                |
      ----------------------------------------------------------- 

          ...................................................
          :                      SETUP                      :
          :.................................................:
          :   optimization level            normal          :
          :   max. optcycles                   200          :
          :   ANC micro-cycles                  20          :
          :   degrees of freedom               132          :
          :.................................................:
          :   RF solver                   davidson          :
          :   write xtbopt.log                true          :
          :   linear?                        false          :
          :   energy convergence         0.5000000E-05 Eh   :
          :   grad. convergence          0.1000000E-02 Eh/α :
          :   maximium RF displ.         1.0000000          :
          :   Hlow (freq-cutoff)         0.1000000E-01      :
          :   Hmax (freq-cutoff)         5.0000000          :
          :   S6 in model hess.         20.0000000          :
          ...................................................

generating ANC from model Hessian ...
Using Lindh-Hessian (1995)
 Shifting diagonal of input Hessian by   9.831298057809754E-003
 Lowest  eigenvalues of input Hessian
    0.000000    0.000000    0.000000    0.000000    0.000000    0.000000
    0.010000    0.010013    0.010367    0.011283    0.011782    0.012257
    0.013129    0.014011    0.014292    0.014762    0.015428    0.015829
 Highest eigenvalues
    1.938503    2.007282    2.107811    2.270218    2.304636    2.306651
 

........................................................................
.............................. CYCLE    1 ..............................
........................................................................
   1    -87.8166707 -0.878167E+02  0.149E-05    0.37       0.0  T
   2    -87.8166707 -0.274269E-11  0.765E-06    0.37    1926.4  T
   3    -87.8166707 -0.298428E-12  0.636E-06    0.37    2319.3  T
     SCC iter.                  ...        0 min,  0.019 sec
     gradient                   ...        0 min,  0.072 sec
 * total energy  :   -87.0419429 Eh     change       -0.3714717E-10 Eh
   gradient norm :     0.1121555 Eh/α   predicted     0.0000000E+00 (-100.00%)
   displ. norm   :     0.3103612 α      lambda       -0.1484275E-01
   maximum displ.:     0.1137827 α      in ANC's #6, #24, #27, ...

........................................................................
.............................. CYCLE    2 ..............................
........................................................................
   1    -87.8290839 -0.878291E+02  0.914E-02    0.55       0.0  T
   2    -87.8294209 -0.337046E-03  0.696E-02    0.48       1.0  T
   3    -87.8296943 -0.273386E-03  0.214E-02    0.48       1.0  T
   4    -87.8297068 -0.124201E-04  0.115E-02    0.48       1.3  T
   5    -87.8297084 -0.163432E-05  0.412E-03    0.48       3.6  T
   6    -87.8297086 -0.176287E-06  0.637E-04    0.48      23.2  T
   7    -87.8297086 -0.115845E-07  0.274E-04    0.48      53.8  T
   8    -87.8297086 -0.263232E-08  0.920E-05    0.48     160.3  T
   9    -87.8297086 -0.102801E-09  0.255E-05    0.48     577.2  T
     SCC iter.                  ...        0 min,  0.057 sec
     gradient                   ...        0 min,  0.073 sec
 * total energy  :   -87.0527738 Eh     change       -0.1083089E-01 Eh
   gradient norm :     0.0575991 Eh/α   predicted    -0.8149543E-02 ( -24.76%)
   displ. norm   :     0.3327742 α      lambda       -0.7108683E-02
   maximum displ.:     0.1429168 α      in ANC's #6, #24, #27, ...

........................................................................
.............................. CYCLE    3 ..............................
........................................................................
   1    -87.8396248 -0.878396E+02  0.849E-02    0.66       0.0  T
   2    -87.8399539 -0.329056E-03  0.502E-02    0.63       1.0  T
   3    -87.8400762 -0.122301E-03  0.204E-02    0.62       1.0  T
   4    -87.8400869 -0.107438E-04  0.103E-02    0.62       1.4  T
   5    -87.8400875 -0.550658E-06  0.382E-03    0.62       3.9  T
   6    -87.8400877 -0.233393E-06  0.511E-04    0.62      28.8  T
   7    -87.8400877 -0.517821E-08  0.171E-04    0.62      86.1  T
   8    -87.8400877 -0.486736E-09  0.560E-05    0.62     263.5  T
     SCC iter.                  ...        0 min,  0.050 sec
     gradient                   ...        0 min,  0.073 sec
 * total energy  :   -87.0569502 Eh     change       -0.4176387E-02 Eh
   gradient norm :     0.0189953 Eh/α   predicted    -0.3949994E-02 (  -5.42%)
   displ. norm   :     0.2445802 α      lambda       -0.1198753E-02
   maximum displ.:     0.1540695 α      in ANC's #6, #8, #7, ...

........................................................................
.............................. CYCLE    4 ..............................
........................................................................
   1    -87.8419660 -0.878420E+02  0.232E-02    0.66       0.0  T
   2    -87.8419857 -0.196392E-04  0.125E-02    0.65       1.2  T
   3    -87.8419924 -0.673564E-05  0.655E-03    0.65       2.3  T
   4    -87.8419933 -0.899452E-06  0.308E-03    0.65       4.8  T
   5    -87.8419933 -0.297006E-07  0.106E-03    0.65      14.0  T
   6    -87.8419933 -0.219540E-07  0.153E-04    0.65      96.1  T
   7    -87.8419933 -0.520458E-09  0.507E-05    0.65     290.6  T
     SCC iter.                  ...        0 min,  0.044 sec
     gradient                   ...        0 min,  0.073 sec
 * total energy  :   -87.0578691 Eh     change       -0.9189089E-03 Eh
   gradient norm :     0.0130476 Eh/α   predicted    -0.6352960E-03 ( -30.86%)
   displ. norm   :     0.3989162 α      lambda       -0.1269092E-02
   maximum displ.:     0.2640482 α      in ANC's #6, #8, #9, ...

........................................................................
.............................. CYCLE    5 ..............................
........................................................................
   1    -87.8431864 -0.878432E+02  0.221E-02    0.67       0.0  T
   2    -87.8431988 -0.124158E-04  0.122E-02    0.67       1.2  T
   3    -87.8432052 -0.638196E-05  0.698E-03    0.67       2.1  T
   4    -87.8432063 -0.110472E-05  0.301E-03    0.67       4.9  T
   5    -87.8432063 -0.639028E-07  0.850E-04    0.67      17.3  T
   6    -87.8432064 -0.159974E-07  0.135E-04    0.67     109.5  T
   7    -87.8432064 -0.560647E-09  0.481E-05    0.67     306.6  T
     SCC iter.                  ...        0 min,  0.044 sec
     gradient                   ...        0 min,  0.072 sec
 * total energy  :   -87.0587579 Eh     change       -0.8887800E-03 Eh
   gradient norm :     0.0106831 Eh/α   predicted    -0.7355285E-03 ( -17.24%)
   displ. norm   :     0.3500947 α      lambda       -0.6729648E-03
   maximum displ.:     0.2356799 α      in ANC's #6, #8, #9, ...

........................................................................
.............................. CYCLE    6 ..............................
........................................................................
   1    -87.8443320 -0.878443E+02  0.155E-02    0.66       0.0  T
   2    -87.8443346 -0.264803E-05  0.124E-02    0.66       1.2  T
   3    -87.8443441 -0.948842E-05  0.334E-03    0.66       4.4  T
   4    -87.8443443 -0.209993E-06  0.156E-03    0.66       9.4  T
   5    -87.8443444 -0.122869E-07  0.361E-04    0.66      40.8  T
   6    -87.8443444 -0.406817E-08  0.930E-05    0.66     158.5  T
   7    -87.8443444 -0.191733E-09  0.279E-05    0.66     528.5  T
     SCC iter.                  ...        0 min,  0.043 sec
     gradient                   ...        0 min,  0.069 sec
 * total energy  :   -87.0592546 Eh     change       -0.4966594E-03 Eh
   gradient norm :     0.0108610 Eh/α   predicted    -0.3777247E-03 ( -23.95%)
   displ. norm   :     0.3414599 α      lambda       -0.5041442E-03
   maximum displ.:     0.2275217 α      in ANC's #6, #9, #8, ...

........................................................................
.............................. CYCLE    7 ..............................
........................................................................
   1    -87.8457640 -0.878458E+02  0.118E-02    0.65       0.0  T
   2    -87.8457654 -0.139864E-05  0.124E-02    0.66       1.2  T
   3    -87.8457746 -0.915203E-05  0.273E-03    0.66       5.4  T
   4    -87.8457746  0.232413E-08  0.141E-03    0.66      10.4  T
   5    -87.8457746 -0.249544E-07  0.326E-04    0.66      45.2  T
   6    -87.8457746 -0.192114E-08  0.681E-05    0.66     216.4  T
   7    -87.8457746 -0.782734E-10  0.211E-05    0.66     697.6  T
     SCC iter.                  ...        0 min,  0.044 sec
     gradient                   ...        0 min,  0.070 sec
 * total energy  :   -87.0596279 Eh     change       -0.3733761E-03 Eh
   gradient norm :     0.0094758 Eh/α   predicted    -0.2814648E-03 ( -24.62%)
   displ. norm   :     0.3046975 α      lambda       -0.3480574E-03
   maximum displ.:     0.2071005 α      in ANC's #6, #3, #9, ...

........................................................................
.............................. CYCLE    8 ..............................
........................................................................
   1    -87.8474555 -0.878475E+02  0.113E-02    0.64       0.0  T
   2    -87.8474568 -0.124913E-05  0.126E-02    0.65       1.2  T
   3    -87.8474658 -0.897383E-05  0.318E-03    0.65       4.6  T
   4    -87.8474658 -0.193408E-07  0.146E-03    0.65      10.1  T
   5    -87.8474658 -0.353325E-07  0.317E-04    0.65      46.5  T
   6    -87.8474658 -0.222261E-08  0.588E-05    0.65     251.0  T
   7    -87.8474658 -0.440821E-10  0.150E-05    0.65     985.8  T
     SCC iter.                  ...        0 min,  0.045 sec
     gradient                   ...        0 min,  0.071 sec
 * total energy  :   -87.0598719 Eh     change       -0.2439967E-03 Eh
   gradient norm :     0.0063302 Eh/α   predicted    -0.1901893E-03 ( -22.05%)
   displ. norm   :     0.2107589 α      lambda       -0.1614820E-03
   maximum displ.:     0.1446466 α      in ANC's #6, #3, #2, ...

........................................................................
.............................. CYCLE    9 ..............................
........................................................................
   1    -87.8482760 -0.878483E+02  0.715E-03    0.65       0.0  T
   2    -87.8482775 -0.144864E-05  0.655E-03    0.65       2.3  T
   3    -87.8482798 -0.227651E-05  0.193E-03    0.65       7.6  T
   4    -87.8482797  0.380861E-08  0.130E-03    0.65      11.3  T
   5    -87.8482798 -0.278416E-07  0.207E-04    0.65      71.3  T
   6    -87.8482798 -0.970658E-09  0.457E-05    0.65     322.6  T
   7    -87.8482798 -0.598277E-10  0.106E-05    0.65    1389.3  T
     SCC iter.                  ...        0 min,  0.045 sec
     gradient                   ...        0 min,  0.072 sec
 * total energy  :   -87.0599834 Eh     change       -0.1115215E-03 Eh
   gradient norm :     0.0033960 Eh/α   predicted    -0.8433935E-04 ( -24.37%)
   displ. norm   :     0.1382132 α      lambda       -0.7834973E-04
   maximum displ.:     0.0891816 α      in ANC's #6, #3, #2, ...

........................................................................
.............................. CYCLE   10 ..............................
........................................................................
   1    -87.8488973 -0.878489E+02  0.439E-03    0.65       0.0  T
   2    -87.8488981 -0.802366E-06  0.254E-03    0.65       5.8  T
   3    -87.8488984 -0.221015E-06  0.118E-03    0.65      12.4  T
   4    -87.8488984 -0.213025E-07  0.803E-04    0.65      18.4  T
   5    -87.8488984 -0.146148E-07  0.160E-04    0.65      92.0  T
   6    -87.8488984 -0.430546E-09  0.334E-05    0.65     441.4  T
     SCC iter.                  ...        0 min,  0.039 sec
     gradient                   ...        0 min,  0.072 sec
 * total energy  :   -87.0600404 Eh     change       -0.5697073E-04 Eh
   gradient norm :     0.0029120 Eh/α   predicted    -0.3992444E-04 ( -29.92%)
   displ. norm   :     0.1378114 α      lambda       -0.6479446E-04
   maximum displ.:     0.0747246 α      in ANC's #6, #2, #3, ...

........................................................................
.............................. CYCLE   11 ..............................
........................................................................
   1    -87.8486851 -0.878487E+02  0.323E-03    0.65       0.0  T
   2    -87.8486856 -0.423368E-06  0.150E-03    0.65       9.8  T
   3    -87.8486856 -0.456659E-07  0.810E-04    0.65      18.2  T
   4    -87.8486856  0.694655E-09  0.497E-04    0.65      29.7  T
   5    -87.8486856 -0.853227E-08  0.148E-04    0.65      99.9  T
   6    -87.8486856 -0.843258E-09  0.287E-05    0.65     513.1  T
     SCC iter.                  ...        0 min,  0.039 sec
     gradient                   ...        0 min,  0.072 sec
 * total energy  :   -87.0600887 Eh     change       -0.4833263E-04 Eh
   gradient norm :     0.0033485 Eh/α   predicted    -0.3303080E-04 ( -31.66%)
   displ. norm   :     0.1574949 α      lambda       -0.6398445E-04
   maximum displ.:     0.0676474 α      in ANC's #2, #6, #3, ...

........................................................................
.............................. CYCLE   12 ..............................
........................................................................
   1    -87.8484227 -0.878484E+02  0.330E-03    0.65       0.0  T
   2    -87.8484229 -0.184638E-06  0.277E-03    0.65       5.3  T
   3    -87.8484233 -0.356748E-06  0.983E-04    0.65      15.0  T
   4    -87.8484233 -0.591010E-08  0.463E-04    0.65      31.8  T
   5    -87.8484233 -0.406219E-08  0.123E-04    0.65     119.8  T
   6    -87.8484233 -0.168413E-09  0.319E-05    0.65     462.5  T
     SCC iter.                  ...        0 min,  0.039 sec
     gradient                   ...        0 min,  0.072 sec
 * total energy  :   -87.0601352 Eh     change       -0.4640302E-04 Eh
   gradient norm :     0.0036223 Eh/α   predicted    -0.3278646E-04 ( -29.34%)
   displ. norm   :     0.1502232 α      lambda       -0.5431804E-04
   maximum displ.:     0.0698559 α      in ANC's #2, #3, #1, ...

........................................................................
.............................. CYCLE   13 ..............................
........................................................................
   1    -87.8477176 -0.878477E+02  0.351E-03    0.65       0.0  T
   2    -87.8477178 -0.241920E-06  0.283E-03    0.65       5.2  T
   3    -87.8477182 -0.340711E-06  0.106E-03    0.65      13.9  T
   4    -87.8477182 -0.799577E-08  0.575E-04    0.65      25.6  T
   5    -87.8477182 -0.627166E-08  0.105E-04    0.65     140.6  T
   6    -87.8477182 -0.148802E-09  0.289E-05    0.65     510.6  T
     SCC iter.                  ...        0 min,  0.039 sec
     gradient                   ...        0 min,  0.072 sec
 * total energy  :   -87.0601755 Eh     change       -0.4030867E-04 Eh
   gradient norm :     0.0029587 Eh/α   predicted    -0.2777663E-04 ( -31.09%)
   displ. norm   :     0.1551820 α      lambda       -0.5280107E-04
   maximum displ.:     0.0739379 α      in ANC's #2, #3, #1, ...

........................................................................
.............................. CYCLE   14 ..............................
........................................................................
   1    -87.8475541 -0.878476E+02  0.398E-03    0.65       0.0  T
   2    -87.8475546 -0.511902E-06  0.257E-03    0.65       5.7  T
   3    -87.8475548 -0.236291E-06  0.107E-03    0.65      13.7  T
   4    -87.8475549 -0.208151E-07  0.687E-04    0.65      21.5  T
   5    -87.8475549 -0.103965E-07  0.133E-04    0.65     111.1  T
   6    -87.8475549 -0.195442E-09  0.364E-05    0.65     404.7  T
     SCC iter.                  ...        0 min,  0.039 sec
     gradient                   ...        0 min,  0.073 sec
 * total energy  :   -87.0602137 Eh     change       -0.3826598E-04 Eh
   gradient norm :     0.0024560 Eh/α   predicted    -0.2703895E-04 ( -29.34%)
   displ. norm   :     0.1573344 α      lambda       -0.5146252E-04
   maximum displ.:     0.0762816 α      in ANC's #2, #3, #7, ...

........................................................................
.............................. CYCLE   15 ..............................
........................................................................
   1    -87.8472960 -0.878473E+02  0.355E-03    0.65       0.0  T
   2    -87.8472966 -0.520388E-06  0.152E-03    0.65       9.7  T
   3    -87.8472966 -0.306378E-07  0.760E-04    0.65      19.4  T
   4    -87.8472966  0.219842E-10  0.295E-04    0.65      50.0  T
   5    -87.8472966 -0.855124E-09  0.129E-04    0.65     113.9  T
   6    -87.8472966 -0.883432E-09  0.434E-05    0.65     339.9  T
     SCC iter.                  ...        0 min,  0.038 sec
     gradient                   ...        0 min,  0.073 sec
 * total energy  :   -87.0602535 Eh     change       -0.3978776E-04 Eh
   gradient norm :     0.0031894 Eh/α   predicted    -0.2637169E-04 ( -33.72%)
   displ. norm   :     0.2272088 α      lambda       -0.7214666E-04
   maximum displ.:     0.1084805 α      in ANC's #2, #3, #7, ...

........................................................................
.............................. CYCLE   16 ..............................
........................................................................
   1    -87.8472071 -0.878472E+02  0.417E-03    0.64       0.0  T
   2    -87.8472078 -0.652214E-06  0.228E-03    0.65       6.5  T
   3    -87.8472079 -0.141855E-06  0.116E-03    0.64      12.8  T
   4    -87.8472079 -0.204810E-07  0.721E-04    0.64      20.5  T
   5    -87.8472079 -0.159884E-07  0.158E-04    0.64      93.3  T
   6    -87.8472079 -0.260300E-09  0.457E-05    0.64     322.3  T
     SCC iter.                  ...        0 min,  0.037 sec
     gradient                   ...        0 min,  0.070 sec
 * total energy  :   -87.0603081 Eh     change       -0.5461113E-04 Eh
   gradient norm :     0.0045489 Eh/α   predicted    -0.3793685E-04 ( -30.53%)
   displ. norm   :     0.2709241 α      lambda       -0.8674664E-04
   maximum displ.:     0.1274778 α      in ANC's #2, #3, #7, ...

........................................................................
.............................. CYCLE   17 ..............................
........................................................................
   1    -87.8473044 -0.878473E+02  0.457E-03    0.64       0.0  T
   2    -87.8473051 -0.739814E-06  0.305E-03    0.65       4.8  T
   3    -87.8473055 -0.387097E-06  0.127E-03    0.64      11.6  T
   4    -87.8473055 -0.281438E-07  0.750E-04    0.64      19.7  T
   5    -87.8473055 -0.136990E-07  0.165E-04    0.64      89.3  T
   6    -87.8473055 -0.336186E-09  0.528E-05    0.64     279.3  T
     SCC iter.                  ...        0 min,  0.037 sec
     gradient                   ...        0 min,  0.071 sec
 * total energy  :   -87.0603746 Eh     change       -0.6645555E-04 Eh
   gradient norm :     0.0052779 Eh/α   predicted    -0.4656082E-04 ( -29.94%)
   displ. norm   :     0.2808669 α      lambda       -0.9976993E-04
   maximum displ.:     0.1306079 α      in ANC's #2, #3, #7, ...

........................................................................
.............................. CYCLE   18 ..............................
........................................................................
   1    -87.8481250 -0.878481E+02  0.501E-03    0.65       0.0  T
   2    -87.8481260 -0.947612E-06  0.305E-03    0.65       4.8  T
   3    -87.8481263 -0.327948E-06  0.142E-03    0.65      10.4  T
   4    -87.8481263 -0.413962E-07  0.862E-04    0.65      17.1  T
   5    -87.8481264 -0.169020E-07  0.170E-04    0.65      86.6  T
   6    -87.8481264 -0.491582E-09  0.552E-05    0.65     267.1  T
     SCC iter.                  ...        0 min,  0.037 sec
     gradient                   ...        0 min,  0.071 sec
 * total energy  :   -87.0604487 Eh     change       -0.7409407E-04 Eh
   gradient norm :     0.0046129 Eh/α   predicted    -0.5382548E-04 ( -27.36%)
   displ. norm   :     0.2861548 α      lambda       -0.8882101E-04
   maximum displ.:     0.1392435 α      in ANC's #2, #3, #11, ...

........................................................................
.............................. CYCLE   19 ..............................
........................................................................
   1    -87.8477718 -0.878478E+02  0.509E-03    0.65       0.0  T
   2    -87.8477729 -0.111552E-05  0.198E-03    0.65       7.4  T
   3    -87.8477730 -0.857616E-07  0.904E-04    0.65      16.3  T
   4    -87.8477730  0.593950E-08  0.576E-04    0.65      25.6  T
   5    -87.8477730 -0.139213E-07  0.179E-04    0.65      82.3  T
   6    -87.8477730 -0.109816E-08  0.519E-05    0.65     284.3  T
     SCC iter.                  ...        0 min,  0.037 sec
     gradient                   ...        0 min,  0.072 sec
 * total energy  :   -87.0605130 Eh     change       -0.6433109E-04 Eh
   gradient norm :     0.0041654 Eh/α   predicted    -0.4805174E-04 ( -25.31%)
   displ. norm   :     0.1746439 α      lambda       -0.9353008E-04
   maximum displ.:     0.0794825 α      in ANC's #2, #11, #4, ...

........................................................................
.............................. CYCLE   20 ..............................
........................................................................
   1    -87.8519336 -0.878519E+02  0.833E-03    0.66       0.0  T
   2    -87.8519350 -0.131149E-05  0.421E-03    0.65       3.5  T
   3    -87.8519350 -0.746806E-07  0.225E-03    0.65       6.6  T
   4    -87.8519351 -0.174916E-07  0.395E-04    0.65      37.3  T
   5    -87.8519351 -0.188018E-08  0.942E-05    0.65     156.6  T
   6    -87.8519351 -0.131834E-09  0.257E-05    0.65     574.5  T
     SCC iter.                  ...        0 min,  0.038 sec
     gradient                   ...        0 min,  0.073 sec
 * total energy  :   -87.0605324 Eh     change       -0.1944008E-04 Eh
   gradient norm :     0.0052389 Eh/α   predicted    -0.4819647E-04 ( 147.92%)
   displ. norm   :     0.3554125 α      lambda       -0.1128747E-03
   maximum displ.:     0.1833515 α      in ANC's #2, #3, #1, ...
 * RMSD in coord.:     0.5161731 α      energy gain  -0.1858952E-01 Eh

generating ANC from model Hessian ...
Using Lindh-Hessian (1995)
 Shifting diagonal of input Hessian by   9.821211302472691E-003
 Lowest  eigenvalues of input Hessian
    0.000000    0.000000    0.000000    0.000000    0.000000    0.000000
    0.010000    0.010012    0.010387    0.011212    0.011644    0.012233
    0.012973    0.013625    0.014239    0.014968    0.015572    0.015778
 Highest eigenvalues
    1.994419    2.019704    2.167334    2.264823    2.331886    2.398183
 

........................................................................
.............................. CYCLE   21 ..............................
........................................................................
   1    -87.8469834 -0.878470E+02  0.102E-02    0.65       0.0  T
   2    -87.8469843 -0.881370E-06  0.535E-03    0.65       2.8  T
   3    -87.8469842  0.771847E-07  0.334E-03    0.65       4.4  T
   4    -87.8469845 -0.307314E-06  0.130E-03    0.65      11.3  T
   5    -87.8469846 -0.695097E-07  0.274E-04    0.65      53.9  T
   6    -87.8469846 -0.145147E-08  0.607E-05    0.65     243.1  T
   7    -87.8469846 -0.436273E-10  0.165E-05    0.65     891.8  T
     SCC iter.                  ...        0 min,  0.044 sec
     gradient                   ...        0 min,  0.073 sec
 * total energy  :   -87.0605646 Eh     change       -0.3215376E-04 Eh
   gradient norm :     0.0062315 Eh/α   predicted     0.0000000E+00 (-100.00%)
   displ. norm   :     0.0307635 α      lambda       -0.7083156E-04
   maximum displ.:     0.0117501 α      in ANC's #8, #10, #5, ...

........................................................................
.............................. CYCLE   22 ..............................
........................................................................
   1    -87.8491312 -0.878491E+02  0.477E-03    0.65       0.0  T
   2    -87.8491316 -0.402047E-06  0.262E-03    0.65       5.6  T
   3    -87.8491316 -0.445001E-07  0.164E-03    0.65       9.0  T
   4    -87.8491317 -0.488052E-07  0.736E-04    0.65      20.0  T
   5    -87.8491317 -0.212526E-07  0.141E-04    0.65     104.5  T
   6    -87.8491317 -0.586454E-09  0.324E-05    0.65     454.8  T
     SCC iter.                  ...        0 min,  0.038 sec
     gradient                   ...        0 min,  0.073 sec
 * total energy  :   -87.0606134 Eh     change       -0.4883587E-04 Eh
   gradient norm :     0.0025412 Eh/α   predicted    -0.3602601E-04 ( -26.23%)
   displ. norm   :     0.0425348 α      lambda       -0.2830283E-04
   maximum displ.:     0.0168435 α      in ANC's #10, #8, #5, ...

........................................................................
.............................. CYCLE   23 ..............................
........................................................................
   1    -87.8501251 -0.878501E+02  0.333E-03    0.65       0.0  T
   2    -87.8501255 -0.365656E-06  0.192E-03    0.65       7.7  T
   3    -87.8501256 -0.118560E-06  0.995E-04    0.65      14.8  T
   4    -87.8501256 -0.183941E-07  0.529E-04    0.65      27.9  T
   5    -87.8501256 -0.560188E-08  0.112E-04    0.65     132.2  T
   6    -87.8501256 -0.342268E-09  0.241E-05    0.65     611.9  T
     SCC iter.                  ...        0 min,  0.038 sec
     gradient                   ...        0 min,  0.073 sec
 * total energy  :   -87.0606329 Eh     change       -0.1950208E-04 Eh
   gradient norm :     0.0012605 Eh/α   predicted    -0.1417744E-04 ( -27.30%)
   displ. norm   :     0.0829854 α      lambda       -0.1899600E-04
   maximum displ.:     0.0333560 α      in ANC's #10, #5, #17, ...

........................................................................
.............................. CYCLE   24 ..............................
........................................................................
   1    -87.8503605 -0.878504E+02  0.377E-03    0.65       0.0  T
   2    -87.8503610 -0.568782E-06  0.211E-03    0.65       7.0  T
   3    -87.8503612 -0.190428E-06  0.951E-04    0.65      15.5  T
   4    -87.8503613 -0.220362E-07  0.504E-04    0.65      29.3  T
   5    -87.8503613 -0.335997E-08  0.140E-04    0.65     105.3  T
   6    -87.8503613 -0.458002E-09  0.240E-05    0.65     613.8  T
     SCC iter.                  ...        0 min,  0.038 sec
     gradient                   ...        0 min,  0.072 sec
 * total energy  :   -87.0606509 Eh     change       -0.1793439E-04 Eh
   gradient norm :     0.0022926 Eh/α   predicted    -0.9544700E-05 ( -46.78%)
   displ. norm   :     0.0497949 α      lambda       -0.1364437E-04
   maximum displ.:     0.0201260 α      in ANC's #10, #17, #5, ...

........................................................................
.............................. CYCLE   25 ..............................
........................................................................
   1    -87.8498998 -0.878499E+02  0.136E-03    0.65       0.0  T
   2    -87.8498998 -0.291309E-07  0.678E-04    0.65      21.7  T
   3    -87.8498998 -0.233061E-08  0.367E-04    0.65      40.2  T
   4    -87.8498998 -0.521752E-09  0.125E-04    0.65     117.7  T
   5    -87.8498998 -0.722252E-09  0.519E-05    0.65     284.0  T
     SCC iter.                  ...        0 min,  0.043 sec
     gradient                   ...        0 min,  0.072 sec
 * total energy  :   -87.0606622 Eh     change       -0.1128749E-04 Eh
   gradient norm :     0.0019380 Eh/α   predicted    -0.6886787E-05 ( -38.99%)
   displ. norm   :     0.1722080 α      lambda       -0.2442461E-04
   maximum displ.:     0.0641446 α      in ANC's #11, #17, #10, ...

........................................................................
.............................. CYCLE   26 ..............................
........................................................................
   1    -87.8482219 -0.878482E+02  0.438E-03    0.65       0.0  T
   2    -87.8482222 -0.261375E-06  0.248E-03    0.65       5.9  T
   3    -87.8482222 -0.165282E-07  0.162E-03    0.65       9.1  T
   4    -87.8482223 -0.919399E-07  0.606E-04    0.65      24.3  T
   5    -87.8482223 -0.101739E-07  0.124E-04    0.65     119.0  T
   6    -87.8482223 -0.214612E-09  0.335E-05    0.65     440.3  T
     SCC iter.                  ...        0 min,  0.038 sec
     gradient                   ...        0 min,  0.072 sec
 * total energy  :   -87.0606716 Eh     change       -0.9469574E-05 Eh
   gradient norm :     0.0028314 Eh/α   predicted    -0.1237577E-04 (  30.69%)
   displ. norm   :     0.0293251 α      lambda       -0.1224474E-04
   maximum displ.:     0.0122516 α      in ANC's #10, #5, #4, ...

........................................................................
.............................. CYCLE   27 ..............................
........................................................................
   1    -87.8488777 -0.878489E+02  0.167E-03    0.65       0.0  T
   2    -87.8488777 -0.312199E-07  0.883E-04    0.65      16.7  T
   3    -87.8488777 -0.159172E-08  0.595E-04    0.65      24.8  T
   4    -87.8488777 -0.845502E-08  0.220E-04    0.65      67.0  T
   5    -87.8488777 -0.197664E-08  0.445E-05    0.65     331.3  T
   6    -87.8488777 -0.461000E-10  0.903E-06    0.65    1633.4  T
     SCC iter.                  ...        0 min,  0.038 sec
     gradient                   ...        0 min,  0.072 sec
 * total energy  :   -87.0606808 Eh     change       -0.9133089E-05 Eh
   gradient norm :     0.0016241 Eh/α   predicted    -0.6128487E-05 ( -32.90%)
   displ. norm   :     0.0438983 α      lambda       -0.1181038E-04
   maximum displ.:     0.0208800 α      in ANC's #8, #11, #2, ...

........................................................................
.............................. CYCLE   28 ..............................
........................................................................
   1    -87.8499234 -0.878499E+02  0.316E-03    0.65       0.0  T
   2    -87.8499235 -0.152263E-06  0.185E-03    0.65       8.0  T
   3    -87.8499236 -0.914226E-07  0.113E-03    0.65      13.0  T
   4    -87.8499236 -0.274004E-07  0.425E-04    0.65      34.7  T
   5    -87.8499236 -0.407267E-08  0.802E-05    0.65     183.9  T
   6    -87.8499236 -0.166224E-09  0.141E-05    0.65    1047.4  T
     SCC iter.                  ...        0 min,  0.039 sec
     gradient                   ...        0 min,  0.072 sec
 * total energy  :   -87.0606903 Eh     change       -0.9526523E-05 Eh
   gradient norm :     0.0008523 Eh/α   predicted    -0.5913145E-05 ( -37.93%)
   displ. norm   :     0.0629566 α      lambda       -0.5438828E-05
   maximum displ.:     0.0327450 α      in ANC's #11, #2, #1, ...

........................................................................
.............................. CYCLE   29 ..............................
........................................................................
   1    -87.8498452 -0.878498E+02  0.900E-04    0.65       0.0  T
   2    -87.8498452 -0.126904E-07  0.497E-04    0.65      29.7  T
   3    -87.8498452 -0.774067E-08  0.312E-04    0.65      47.3  T
   4    -87.8498452 -0.293488E-08  0.993E-05    0.65     148.5  T
   5    -87.8498452 -0.143629E-09  0.284E-05    0.65     519.4  T
     SCC iter.                  ...        0 min,  0.032 sec
     gradient                   ...        0 min,  0.072 sec
 * total energy  :   -87.0606975 Eh     change       -0.7206224E-05 Eh
   gradient norm :     0.0009022 Eh/α   predicted    -0.2751906E-05 ( -61.81%)
   displ. norm   :     0.2161199 α      lambda       -0.1601856E-04
   maximum displ.:     0.1111528 α      in ANC's #11, #2, #1, ...

........................................................................
.............................. CYCLE   30 ..............................
........................................................................
   1    -87.8489712 -0.878490E+02  0.330E-03    0.65       0.0  T
   2    -87.8489713 -0.116630E-06  0.157E-03    0.65       9.4  T
   3    -87.8489713  0.669129E-08  0.102E-03    0.65      14.5  T
   4    -87.8489713 -0.280348E-07  0.372E-04    0.65      39.6  T
   5    -87.8489713 -0.593705E-08  0.103E-04    0.65     143.8  T
   6    -87.8489713 -0.197147E-09  0.265E-05    0.65     555.4  T
     SCC iter.                  ...        0 min,  0.038 sec
     gradient                   ...        0 min,  0.072 sec
 * total energy  :   -87.0607101 Eh     change       -0.1263642E-04 Eh
   gradient norm :     0.0020365 Eh/α   predicted    -0.8175991E-05 ( -35.30%)
   displ. norm   :     0.0340074 α      lambda       -0.6072665E-05
   maximum displ.:     0.0196856 α      in ANC's #2, #1, #11, ...

........................................................................
.............................. CYCLE   31 ..............................
........................................................................
   1    -87.8491636 -0.878492E+02  0.777E-04    0.65       0.0  T
   2    -87.8491636 -0.125337E-07  0.468E-04    0.65      31.5  T
   3    -87.8491636 -0.698103E-08  0.254E-04    0.65      58.0  T
   4    -87.8491636 -0.139818E-08  0.111E-04    0.65     132.4  T
   5    -87.8491636 -0.276330E-09  0.245E-05    0.65     602.2  T
     SCC iter.                  ...        0 min,  0.032 sec
     gradient                   ...        0 min,  0.072 sec
 * total energy  :   -87.0607154 Eh     change       -0.5311519E-05 Eh
   gradient norm :     0.0014988 Eh/α   predicted    -0.3040220E-05 ( -42.76%)
   displ. norm   :     0.1372863 α      lambda       -0.1460094E-04
   maximum displ.:     0.0834992 α      in ANC's #2, #1, #11, ...

........................................................................
.............................. CYCLE   32 ..............................
........................................................................
   1    -87.8501746 -0.878502E+02  0.330E-03    0.65       0.0  T
   2    -87.8501749 -0.264278E-06  0.182E-03    0.65       8.1  T
   3    -87.8501749 -0.835912E-07  0.105E-03    0.65      14.1  T
   4    -87.8501750 -0.169594E-07  0.506E-04    0.65      29.1  T
   5    -87.8501750 -0.803111E-08  0.113E-04    0.65     130.8  T
   6    -87.8501750 -0.296851E-09  0.205E-05    0.65     719.4  T
     SCC iter.                  ...        0 min,  0.039 sec
     gradient                   ...        0 min,  0.074 sec
 * total energy  :   -87.0607283 Eh     change       -0.1285490E-04 Eh
   gradient norm :     0.0011134 Eh/α   predicted    -0.7365159E-05 ( -42.71%)
   displ. norm   :     0.1708327 α      lambda       -0.8429986E-05
   maximum displ.:     0.0886593 α      in ANC's #2, #11, #1, ...

........................................................................
.............................. CYCLE   33 ..............................
........................................................................
   1    -87.8495827 -0.878496E+02  0.279E-03    0.65       0.0  T
   2    -87.8495828 -0.105349E-06  0.134E-03    0.65      11.0  T
   3    -87.8495829 -0.945630E-08  0.700E-04    0.65      21.1  T
   4    -87.8495829 -0.282284E-08  0.256E-04    0.65      57.6  T
   5    -87.8495829 -0.284059E-08  0.109E-04    0.65     134.9  T
   6    -87.8495829 -0.441460E-09  0.221E-05    0.65     668.1  T
     SCC iter.                  ...        0 min,  0.038 sec
     gradient                   ...        0 min,  0.072 sec
 * total energy  :   -87.0607356 Eh     change       -0.7290180E-05 Eh
   gradient norm :     0.0014451 Eh/α   predicted    -0.4272170E-05 ( -41.40%)
   displ. norm   :     0.0543017 α      lambda       -0.7156236E-05
   maximum displ.:     0.0405015 α      in ANC's #2, #1, #5, ...

........................................................................
.............................. CYCLE   34 ..............................
........................................................................
   1    -87.8499243 -0.878499E+02  0.104E-03    0.65       0.0  T
   2    -87.8499243 -0.172734E-07  0.703E-04    0.65      21.0  T
   3    -87.8499243 -0.165117E-07  0.363E-04    0.65      40.6  T
   4    -87.8499243 -0.269995E-08  0.141E-04    0.65     104.4  T
   5    -87.8499243 -0.391296E-09  0.275E-05    0.65     535.4  T
     SCC iter.                  ...        0 min,  0.033 sec
     gradient                   ...        0 min,  0.072 sec
 * total energy  :   -87.0607443 Eh     change       -0.8751433E-05 Eh
   gradient norm :     0.0009049 Eh/α   predicted    -0.3585124E-05 ( -59.03%)
   displ. norm   :     0.1017432 α      lambda       -0.1048254E-04
   maximum displ.:     0.0754888 α      in ANC's #2, #1, #5, ...

........................................................................
.............................. CYCLE   35 ..............................
........................................................................
   1    -87.8502723 -0.878503E+02  0.161E-03    0.66       0.0  T
   2    -87.8502724 -0.467614E-07  0.102E-03    0.65      14.5  T
   3    -87.8502724 -0.346928E-07  0.526E-04    0.65      28.1  T
   4    -87.8502724 -0.670143E-08  0.233E-04    0.65      63.3  T
   5    -87.8502724 -0.910404E-09  0.437E-05    0.65     337.4  T
   6    -87.8502724 -0.296581E-10  0.119E-05    0.65    1233.9  T
     SCC iter.                  ...        0 min,  0.038 sec
     gradient                   ...        0 min,  0.072 sec
 * total energy  :   -87.0607565 Eh     change       -0.1217568E-04 Eh
   gradient norm :     0.0010621 Eh/α   predicted    -0.5266378E-05 ( -56.75%)
   displ. norm   :     0.1369002 α      lambda       -0.9333558E-05
   maximum displ.:     0.0985342 α      in ANC's #2, #1, #5, ...

........................................................................
.............................. CYCLE   36 ..............................
........................................................................
   1    -87.8500757 -0.878501E+02  0.155E-03    0.65       0.0  T
   2    -87.8500757 -0.444967E-07  0.981E-04    0.65      15.0  T
   3    -87.8500758 -0.412698E-07  0.447E-04    0.65      33.0  T
   4    -87.8500758 -0.492183E-08  0.192E-04    0.65      76.9  T
   5    -87.8500758 -0.747008E-09  0.520E-05    0.65     283.4  T
     SCC iter.                  ...        0 min,  0.033 sec
     gradient                   ...        0 min,  0.074 sec
 * total energy  :   -87.0607680 Eh     change       -0.1147954E-04 Eh
   gradient norm :     0.0009947 Eh/α   predicted    -0.4710471E-05 ( -58.97%)
   displ. norm   :     0.1256004 α      lambda       -0.7512007E-05
   maximum displ.:     0.0920141 α      in ANC's #2, #1, #5, ...

........................................................................
.............................. CYCLE   37 ..............................
........................................................................
   1    -87.8498272 -0.878498E+02  0.133E-03    0.65       0.0  T
   2    -87.8498273 -0.669892E-07  0.666E-04    0.65      22.1  T
   3    -87.8498273 -0.924088E-08  0.358E-04    0.65      41.2  T
   4    -87.8498273  0.178488E-09  0.186E-04    0.65      79.1  T
   5    -87.8498273 -0.172275E-08  0.621E-05    0.65     237.2  T
     SCC iter.                  ...        0 min,  0.032 sec
     gradient                   ...        0 min,  0.073 sec
 * total energy  :   -87.0607775 Eh     change       -0.9508484E-05 Eh
   gradient norm :     0.0007569 Eh/α   predicted    -0.3786483E-05 ( -60.18%)
   displ. norm   :     0.1098117 α      lambda       -0.6600845E-05
   maximum displ.:     0.0824471 α      in ANC's #2, #5, #1, ...

........................................................................
.............................. CYCLE   38 ..............................
........................................................................
   1    -87.8497560 -0.878498E+02  0.951E-04    0.65       0.0  T
   2    -87.8497561 -0.377017E-07  0.469E-04    0.65      31.4  T
   3    -87.8497561 -0.301202E-08  0.234E-04    0.65      63.1  T
   4    -87.8497561 -0.214513E-09  0.642E-05    0.65     229.8  T
   5    -87.8497561 -0.439684E-10  0.199E-05    0.65     741.6  T
     SCC iter.                  ...        0 min,  0.033 sec
     gradient                   ...        0 min,  0.072 sec
 * total energy  :   -87.0607861 Eh     change       -0.8639091E-05 Eh
   gradient norm :     0.0006816 Eh/α   predicted    -0.3320609E-05 ( -61.56%)
   displ. norm   :     0.1089129 α      lambda       -0.6761574E-05
   maximum displ.:     0.0820450 α      in ANC's #2, #1, #5, ...

........................................................................
.............................. CYCLE   39 ..............................
........................................................................
   1    -87.8496207 -0.878496E+02  0.130E-03    0.65       0.0  T
   2    -87.8496208 -0.661881E-07  0.641E-04    0.65      23.0  T
   3    -87.8496208 -0.992573E-08  0.305E-04    0.65      48.4  T
   4    -87.8496208  0.736804E-09  0.223E-04    0.65      66.1  T
   5    -87.8496208 -0.227939E-08  0.397E-05    0.65     371.3  T
   6    -87.8496208 -0.129745E-10  0.130E-05    0.65    1137.2  T
     SCC iter.                  ...        0 min,  0.038 sec
     gradient                   ...        0 min,  0.073 sec
 * total energy  :   -87.0607953 Eh     change       -0.9145773E-05 Eh
   gradient norm :     0.0006924 Eh/α   predicted    -0.3399247E-05 ( -62.83%)
   displ. norm   :     0.1218490 α      lambda       -0.7908537E-05
   maximum displ.:     0.0923234 α      in ANC's #2, #9, #1, ...

........................................................................
.............................. CYCLE   40 ..............................
........................................................................
   1    -87.8496078 -0.878496E+02  0.126E-03    0.65       0.0  T
   2    -87.8496078 -0.443348E-07  0.661E-04    0.65      22.3  T
   3    -87.8496078 -0.860393E-08  0.339E-04    0.65      43.5  T
   4    -87.8496078 -0.334580E-09  0.220E-04    0.65      66.9  T
   5    -87.8496078 -0.224654E-08  0.380E-05    0.65     387.9  T
   6    -87.8496078 -0.126050E-10  0.130E-05    0.65    1137.8  T
     SCC iter.                  ...        0 min,  0.038 sec
     gradient                   ...        0 min,  0.072 sec
 * total energy  :   -87.0608063 Eh     change       -0.1099538E-04 Eh
   gradient norm :     0.0008215 Eh/α   predicted    -0.3981210E-05 ( -63.79%)
   displ. norm   :     0.1464149 α      lambda       -0.9993026E-05
   maximum displ.:     0.1104925 α      in ANC's #2, #1, #9, ...

........................................................................
.............................. CYCLE   41 ..............................
........................................................................
   1    -87.8495380 -0.878495E+02  0.159E-03    0.65       0.0  T
   2    -87.8495381 -0.582834E-07  0.843E-04    0.65      17.5  T
   3    -87.8495381 -0.140874E-07  0.446E-04    0.65      33.1  T
   4    -87.8495381 -0.185733E-08  0.259E-04    0.65      56.9  T
   5    -87.8495381 -0.314837E-08  0.440E-05    0.65     335.5  T
   6    -87.8495381 -0.135572E-10  0.142E-05    0.65    1040.8  T
     SCC iter.                  ...        0 min,  0.038 sec
     gradient                   ...        0 min,  0.073 sec
 * total energy  :   -87.0608202 Eh     change       -0.1388302E-04 Eh
   gradient norm :     0.0010965 Eh/α   predicted    -0.5047906E-05 ( -63.64%)
   displ. norm   :     0.1675938 α      lambda       -0.1241651E-04
   maximum displ.:     0.1263197 α      in ANC's #2, #1, #9, ...

........................................................................
.............................. CYCLE   42 ..............................
........................................................................
   1    -87.8495485 -0.878495E+02  0.174E-03    0.65       0.0  T
   2    -87.8495485 -0.600583E-07  0.970E-04    0.65      15.2  T
   3    -87.8495485 -0.212928E-07  0.534E-04    0.65      27.6  T
   4    -87.8495486 -0.544118E-08  0.261E-04    0.65      56.6  T
   5    -87.8495486 -0.284371E-08  0.472E-05    0.65     312.5  T
   6    -87.8495486 -0.155183E-10  0.152E-05    0.65     968.4  T
     SCC iter.                  ...        0 min,  0.038 sec
     gradient                   ...        0 min,  0.071 sec
 * total energy  :   -87.0608376 Eh     change       -0.1741094E-04 Eh
   gradient norm :     0.0012837 Eh/α   predicted    -0.6290606E-05 ( -63.87%)
   displ. norm   :     0.2104205 α      lambda       -0.1665450E-04
   maximum displ.:     0.1570661 α      in ANC's #2, #1, #6, ...
 * RMSD in coord.:     0.2808288 α      energy gain  -0.3051314E-03 Eh

generating ANC from model Hessian ...
Using Lindh-Hessian (1995)
 Shifting diagonal of input Hessian by   9.830170793529812E-003
 Lowest  eigenvalues of input Hessian
    0.000000    0.000000    0.000000    0.000000    0.000000    0.000000
    0.010000    0.010029    0.010402    0.011204    0.011604    0.012166
    0.012989    0.013691    0.014267    0.014951    0.015592    0.015797
 Highest eigenvalues
    1.999703    2.022837    2.169574    2.265242    2.336108    2.401823
 

........................................................................
.............................. CYCLE   43 ..............................
........................................................................
   1    -87.8494653 -0.878495E+02  0.219E-03    0.66       0.0  T
   2    -87.8494654 -0.904279E-07  0.115E-03    0.66      12.8  T
   3    -87.8494654 -0.206855E-07  0.666E-04    0.66      22.2  T
   4    -87.8494654 -0.867689E-08  0.319E-04    0.66      46.2  T
   5    -87.8494654 -0.456320E-08  0.631E-05    0.66     233.7  T
   6    -87.8494654 -0.334808E-10  0.202E-05    0.66     729.9  T
     SCC iter.                  ...        0 min,  0.040 sec
     gradient                   ...        0 min,  0.072 sec
 * total energy  :   -87.0608606 Eh     change       -0.2297746E-04 Eh
   gradient norm :     0.0015941 Eh/α   predicted     0.0000000E+00 (-100.00%)
   displ. norm   :     0.0290010 α      lambda       -0.8496029E-05
   maximum displ.:     0.0234569 α      in ANC's #2, #10, #28, ...

........................................................................
.............................. CYCLE   44 ..............................
........................................................................
   1    -87.8503564 -0.878504E+02  0.198E-03    0.66       0.0  T
   2    -87.8503564 -0.639649E-07  0.108E-03    0.66      13.7  T
   3    -87.8503564 -0.144881E-07  0.654E-04    0.66      22.5  T
   4    -87.8503564 -0.482436E-08  0.340E-04    0.66      43.4  T
   5    -87.8503564 -0.511712E-08  0.449E-05    0.66     328.6  T
   6    -87.8503564 -0.241016E-10  0.852E-06    0.66    1730.4  T
     SCC iter.                  ...        0 min,  0.022 sec
     gradient                   ...        0 min,  0.063 sec
 * total energy  :   -87.0608698 Eh     change       -0.9243781E-05 Eh
   gradient norm :     0.0005765 Eh/α   predicted    -0.4281905E-05 ( -53.68%)
   displ. norm   :     0.0525140 α      lambda       -0.8279851E-05
   maximum displ.:     0.0412464 α      in ANC's #2, #10, #15, ...

........................................................................
.............................. CYCLE   45 ..............................
........................................................................
   1    -87.8506289 -0.878506E+02  0.138E-03    0.66       0.0  T
   2    -87.8506290 -0.519307E-07  0.778E-04    0.66      19.0  T
   3    -87.8506290 -0.203635E-07  0.389E-04    0.66      37.9  T
   4    -87.8506290 -0.272318E-08  0.215E-04    0.66      68.6  T
   5    -87.8506290 -0.110501E-08  0.470E-05    0.66     313.8  T
   6    -87.8506290 -0.300133E-10  0.898E-06    0.66    1642.1  T
     SCC iter.                  ...        0 min,  0.034 sec
     gradient                   ...        0 min,  0.043 sec
 * total energy  :   -87.0608802 Eh     change       -0.1038458E-04 Eh
   gradient norm :     0.0009887 Eh/α   predicted    -0.4162475E-05 ( -59.92%)
   displ. norm   :     0.0813740 α      lambda       -0.1079431E-04
   maximum displ.:     0.0626446 α      in ANC's #2, #15, #28, ...

........................................................................
.............................. CYCLE   46 ..............................
........................................................................
   1    -87.8504195 -0.878504E+02  0.144E-03    0.66       0.0  T
   2    -87.8504196 -0.503604E-07  0.983E-04    0.66      15.0  T
   3    -87.8504196 -0.471579E-07  0.400E-04    0.66      36.9  T
   4    -87.8504196 -0.362536E-08  0.196E-04    0.66      75.2  T
   5    -87.8504196 -0.483652E-09  0.504E-05    0.66     292.8  T
     SCC iter.                  ...        0 min,  0.033 sec
     gradient                   ...        0 min,  0.073 sec
 * total energy  :   -87.0608931 Eh     change       -0.1291137E-04 Eh
   gradient norm :     0.0012543 Eh/α   predicted    -0.5429243E-05 ( -57.95%)
   displ. norm   :     0.0902043 α      lambda       -0.1026173E-04
   maximum displ.:     0.0702963 α      in ANC's #2, #15, #3, ...

........................................................................
.............................. CYCLE   47 ..............................
........................................................................
   1    -87.8500751 -0.878501E+02  0.118E-03    0.66       0.0  T
   2    -87.8500751 -0.227747E-07  0.780E-04    0.66      18.9  T
   3    -87.8500751 -0.215329E-07  0.401E-04    0.66      36.8  T
   4    -87.8500751 -0.433805E-08  0.150E-04    0.66      98.3  T
   5    -87.8500751 -0.302862E-09  0.355E-05    0.66     415.8  T
     SCC iter.                  ...        0 min,  0.032 sec
     gradient                   ...        0 min,  0.071 sec
 * total energy  :   -87.0609050 Eh     change       -0.1189729E-04 Eh
   gradient norm :     0.0011447 Eh/α   predicted    -0.5175826E-05 ( -56.50%)
   displ. norm   :     0.0784041 α      lambda       -0.8106063E-05
   maximum displ.:     0.0628110 α      in ANC's #2, #15, #3, ...

........................................................................
.............................. CYCLE   48 ..............................
........................................................................
   1    -87.8498851 -0.878499E+02  0.133E-03    0.66       0.0  T
   2    -87.8498851 -0.400594E-07  0.872E-04    0.66      16.9  T
   3    -87.8498852 -0.338268E-07  0.358E-04    0.66      41.2  T
   4    -87.8498852 -0.238754E-08  0.193E-04    0.66      76.3  T
   5    -87.8498852 -0.866436E-09  0.369E-05    0.66     399.5  T
     SCC iter.                  ...        0 min,  0.032 sec
     gradient                   ...        0 min,  0.072 sec
 * total energy  :   -87.0609156 Eh     change       -0.1059666E-04 Eh
   gradient norm :     0.0007566 Eh/α   predicted    -0.4064705E-05 ( -61.64%)
   displ. norm   :     0.0796351 α      lambda       -0.8404071E-05
   maximum displ.:     0.0645107 α      in ANC's #2, #15, #3, ...

........................................................................
.............................. CYCLE   49 ..............................
........................................................................
   1    -87.8498816 -0.878499E+02  0.148E-03    0.66       0.0  T
   2    -87.8498817 -0.730491E-07  0.862E-04    0.66      17.1  T
   3    -87.8498817 -0.281190E-07  0.361E-04    0.66      40.8  T
   4    -87.8498817 -0.155457E-08  0.224E-04    0.66      65.7  T
   5    -87.8498817 -0.146895E-08  0.470E-05    0.66     313.9  T
   6    -87.8498817 -0.193836E-10  0.881E-06    0.66    1673.5  T
     SCC iter.                  ...        0 min,  0.039 sec
     gradient                   ...        0 min,  0.072 sec
 * total energy  :   -87.0609267 Eh     change       -0.1108106E-04 Eh
   gradient norm :     0.0005167 Eh/α   predicted    -0.4219399E-05 ( -61.92%)
   displ. norm   :     0.0845583 α      lambda       -0.8396427E-05
   maximum displ.:     0.0692423 α      in ANC's #2, #15, #3, ...

........................................................................
.............................. CYCLE   50 ..............................
........................................................................
   1    -87.8499697 -0.878500E+02  0.141E-03    0.66       0.0  T
   2    -87.8499697 -0.579594E-07  0.856E-04    0.66      17.2  T
   3    -87.8499698 -0.320970E-07  0.380E-04    0.66      38.8  T
   4    -87.8499698 -0.255370E-08  0.195E-04    0.66      75.7  T
   5    -87.8499698 -0.896819E-09  0.430E-05    0.66     342.6  T
     SCC iter.                  ...        0 min,  0.033 sec
     gradient                   ...        0 min,  0.072 sec
 * total energy  :   -87.0609376 Eh     change       -0.1093717E-04 Eh
   gradient norm :     0.0006964 Eh/α   predicted    -0.4212843E-05 ( -61.48%)
   displ. norm   :     0.0808169 α      lambda       -0.7314032E-05
   maximum displ.:     0.0670742 α      in ANC's #2, #15, #3, ...

........................................................................
.............................. CYCLE   51 ..............................
........................................................................
   1    -87.8500653 -0.878501E+02  0.113E-03    0.67       0.0  T
   2    -87.8500653 -0.304975E-07  0.719E-04    0.66      20.5  T
   3    -87.8500653 -0.244666E-07  0.330E-04    0.66      44.7  T
   4    -87.8500653 -0.234948E-08  0.145E-04    0.66     101.9  T
   5    -87.8500653 -0.424478E-09  0.358E-05    0.66     412.2  T
     SCC iter.                  ...        0 min,  0.020 sec
     gradient                   ...        0 min,  0.042 sec
 * total energy  :   -87.0609475 Eh     change       -0.9853511E-05 Eh
   gradient norm :     0.0008071 Eh/α   predicted    -0.3669221E-05 ( -62.76%)
   displ. norm   :     0.0768198 α      lambda       -0.7038985E-05
   maximum displ.:     0.0642135 α      in ANC's #2, #15, #11, ...

........................................................................
.............................. CYCLE   52 ..............................
........................................................................
   1    -87.8501611 -0.878502E+02  0.971E-04    0.67       0.0  T
   2    -87.8501611 -0.128580E-07  0.659E-04    0.67      22.4  T
   3    -87.8501611 -0.252055E-07  0.308E-04    0.67      47.8  T
   4    -87.8501611 -0.207216E-08  0.961E-05    0.67     153.4  T
   5    -87.8501611 -0.123791E-09  0.259E-05    0.67     568.8  T
     SCC iter.                  ...        0 min,  0.019 sec
     gradient                   ...        0 min,  0.045 sec
 * total energy  :   -87.0609574 Eh     change       -0.9904708E-05 Eh
   gradient norm :     0.0006945 Eh/α   predicted    -0.3530603E-05 ( -64.35%)
   displ. norm   :     0.0890833 α      lambda       -0.8812352E-05
   maximum displ.:     0.0734584 α      in ANC's #2, #18, #11, ...

........................................................................
.............................. CYCLE   53 ..............................
........................................................................
   1    -87.8502174 -0.878502E+02  0.102E-03    0.67       0.0  T
   2    -87.8502174 -0.168655E-07  0.626E-04    0.67      23.6  T
   3    -87.8502174 -0.182241E-07  0.365E-04    0.67      40.4  T
   4    -87.8502174 -0.343678E-08  0.110E-04    0.67     133.7  T
   5    -87.8502174 -0.675158E-10  0.250E-05    0.67     590.8  T
     SCC iter.                  ...        0 min,  0.019 sec
     gradient                   ...        0 min,  0.043 sec
 * total energy  :   -87.0609702 Eh     change       -0.1287007E-04 Eh
   gradient norm :     0.0004988 Eh/α   predicted    -0.4422804E-05 ( -65.63%)
   displ. norm   :     0.1267027 α      lambda       -0.1348247E-04
   maximum displ.:     0.1018532 α      in ANC's #2, #5, #18, ...

........................................................................
.............................. CYCLE   54 ..............................
........................................................................
   1    -87.8501999 -0.878502E+02  0.131E-03    0.67       0.0  T
   2    -87.8501999 -0.356046E-07  0.750E-04    0.67      19.6  T
   3    -87.8501999 -0.195553E-07  0.492E-04    0.67      30.0  T
   4    -87.8501999 -0.624784E-08  0.164E-04    0.67      89.9  T
   5    -87.8501999 -0.235090E-09  0.365E-05    0.67     403.8  T
     SCC iter.                  ...        0 min,  0.019 sec
     gradient                   ...        0 min,  0.043 sec
 * total energy  :   -87.0609899 Eh     change       -0.1967620E-04 Eh
   gradient norm :     0.0004369 Eh/α   predicted    -0.6791733E-05 ( -65.48%)
   displ. norm   :     0.1798541 α      lambda       -0.1958113E-04
   maximum displ.:     0.1409850 α      in ANC's #2, #5, #4, ...

........................................................................
.............................. CYCLE   55 ..............................
........................................................................
   1    -87.8500153 -0.878500E+02  0.185E-03    0.67       0.0  T
   2    -87.8500154 -0.107277E-06  0.899E-04    0.67      16.4  T
   3    -87.8500154 -0.143842E-07  0.623E-04    0.67      23.7  T
   4    -87.8500154 -0.772067E-08  0.267E-04    0.67      55.2  T
   5    -87.8500154 -0.186581E-08  0.503E-05    0.67     293.1  T
   6    -87.8500154 -0.304112E-10  0.146E-05    0.67    1007.0  T
     SCC iter.                  ...        0 min,  0.022 sec
     gradient                   ...        0 min,  0.043 sec
 * total energy  :   -87.0610179 Eh     change       -0.2796553E-04 Eh
   gradient norm :     0.0008451 Eh/α   predicted    -0.9931662E-05 ( -64.49%)
   displ. norm   :     0.2378955 α      lambda       -0.2613114E-04
   maximum displ.:     0.1831106 α      in ANC's #2, #5, #4, ...

........................................................................
.............................. CYCLE   56 ..............................
........................................................................
   1    -87.8495953 -0.878496E+02  0.233E-03    0.67       0.0  T
   2    -87.8495955 -0.158632E-06  0.112E-03    0.67      13.1  T
   3    -87.8495955 -0.129044E-07  0.748E-04    0.67      19.7  T
   4    -87.8495955 -0.669006E-08  0.369E-04    0.67      40.0  T
   5    -87.8495955 -0.572739E-08  0.688E-05    0.67     214.3  T
   6    -87.8495955 -0.607088E-10  0.207E-05    0.67     712.2  T
     SCC iter.                  ...        0 min,  0.022 sec
     gradient                   ...        0 min,  0.041 sec
 * total energy  :   -87.0610558 Eh     change       -0.3790629E-04 Eh
   gradient norm :     0.0015556 Eh/α   predicted    -0.1339469E-04 ( -64.66%)
   displ. norm   :     0.2923207 α      lambda       -0.3264558E-04
   maximum displ.:     0.2227712 α      in ANC's #2, #5, #4, ...

........................................................................
.............................. CYCLE   57 ..............................
........................................................................
   1    -87.8489318 -0.878489E+02  0.294E-03    0.67       0.0  T
   2    -87.8489321 -0.279234E-06  0.134E-03    0.67      11.0  T
   3    -87.8489321 -0.128008E-07  0.786E-04    0.67      18.8  T
   4    -87.8489321  0.630207E-08  0.458E-04    0.67      32.2  T
   5    -87.8489321 -0.127647E-07  0.937E-05    0.67     157.4  T
   6    -87.8489321 -0.197204E-09  0.233E-05    0.67     633.4  T
     SCC iter.                  ...        0 min,  0.022 sec
     gradient                   ...        0 min,  0.042 sec
 * total energy  :   -87.0610990 Eh     change       -0.4323478E-04 Eh
   gradient norm :     0.0025394 Eh/α   predicted    -0.1694298E-04 ( -60.81%)
   displ. norm   :     0.1975153 α      lambda       -0.3418101E-04
   maximum displ.:     0.1514130 α      in ANC's #2, #5, #4, ...

........................................................................
.............................. CYCLE   58 ..............................
........................................................................
   1    -87.8488602 -0.878489E+02  0.167E-03    0.67       0.0  T
   2    -87.8488603 -0.927550E-07  0.814E-04    0.67      18.1  T
   3    -87.8488603 -0.548027E-08  0.421E-04    0.67      35.0  T
   4    -87.8488603 -0.548965E-10  0.120E-04    0.67     123.0  T
   5    -87.8488603 -0.325727E-09  0.729E-05    0.67     202.2  T
     SCC iter.                  ...        0 min,  0.019 sec
     gradient                   ...        0 min,  0.042 sec
 * total energy  :   -87.0611300 Eh     change       -0.3101887E-04 Eh
   gradient norm :     0.0026851 Eh/α   predicted    -0.1775802E-04 ( -42.75%)
   displ. norm   :     0.2497457 α      lambda       -0.4558657E-04
   maximum displ.:     0.1926022 α      in ANC's #2, #5, #4, ...

........................................................................
.............................. CYCLE   59 ..............................
........................................................................
   1    -87.8488255 -0.878488E+02  0.205E-03    0.67       0.0  T
   2    -87.8488256 -0.145628E-06  0.981E-04    0.67      15.0  T
   3    -87.8488256 -0.792788E-08  0.514E-04    0.67      28.7  T
   4    -87.8488256  0.129870E-08  0.338E-04    0.67      43.6  T
   5    -87.8488256 -0.513798E-08  0.673E-05    0.67     219.1  T
   6    -87.8488256 -0.129560E-09  0.216E-05    0.67     683.3  T
     SCC iter.                  ...        0 min,  0.022 sec
     gradient                   ...        0 min,  0.042 sec
 * total energy  :   -87.0611713 Eh     change       -0.4128487E-04 Eh
   gradient norm :     0.0027621 Eh/α   predicted    -0.2421619E-04 ( -41.34%)
   displ. norm   :     0.3218503 α      lambda       -0.5964334E-04
   maximum displ.:     0.2511935 α      in ANC's #2, #5, #4, ...

........................................................................
.............................. CYCLE   60 ..............................
........................................................................
   1    -87.8487019 -0.878487E+02  0.245E-03    0.67       0.0  T
   2    -87.8487021 -0.183013E-06  0.124E-03    0.67      11.9  T
   3    -87.8487021 -0.141339E-07  0.679E-04    0.67      21.7  T
   4    -87.8487021 -0.490026E-08  0.411E-04    0.67      35.8  T
   5    -87.8487021 -0.700564E-08  0.849E-05    0.67     173.6  T
   6    -87.8487021 -0.144226E-09  0.257E-05    0.67     573.6  T
     SCC iter.                  ...        0 min,  0.022 sec
     gradient                   ...        0 min,  0.041 sec
 * total energy  :   -87.0612219 Eh     change       -0.5060832E-04 Eh
   gradient norm :     0.0027811 Eh/α   predicted    -0.3291319E-04 ( -34.96%)
   displ. norm   :     0.3700589 α      lambda       -0.6723873E-04
   maximum displ.:     0.2945912 α      in ANC's #2, #5, #4, ...

........................................................................
.............................. CYCLE   61 ..............................
........................................................................
   1    -87.8485502 -0.878486E+02  0.284E-03    0.67       0.0  T
   2    -87.8485505 -0.240594E-06  0.149E-03    0.67       9.9  T
   3    -87.8485505 -0.319381E-07  0.820E-04    0.67      18.0  T
   4    -87.8485505 -0.119617E-07  0.465E-04    0.67      31.7  T
   5    -87.8485505 -0.822126E-08  0.104E-04    0.67     141.8  T
   6    -87.8485505 -0.133255E-09  0.284E-05    0.67     520.0  T
     SCC iter.                  ...        0 min,  0.022 sec
     gradient                   ...        0 min,  0.042 sec
 * total energy  :   -87.0612839 Eh     change       -0.6199497E-04 Eh
   gradient norm :     0.0028246 Eh/α   predicted    -0.3822637E-04 ( -38.34%)
   displ. norm   :     0.6140910 α      lambda       -0.1226893E-03
   maximum displ.:     0.4988596 α      in ANC's #2, #5, #4, ...

........................................................................
.............................. CYCLE   62 ..............................
........................................................................
   1    -87.8473927 -0.878474E+02  0.474E-03    0.68       0.0  T
   2    -87.8473931 -0.423350E-06  0.250E-03    0.68       5.9  T
   3    -87.8473931 -0.999881E-08  0.154E-03    0.68       9.6  T
   4    -87.8473932 -0.661025E-07  0.689E-04    0.68      21.4  T
   5    -87.8473932 -0.176680E-07  0.167E-04    0.68      88.5  T
   6    -87.8473932 -0.495731E-09  0.414E-05    0.68     356.2  T
     SCC iter.                  ...        0 min,  0.022 sec
     gradient                   ...        0 min,  0.042 sec
 * total energy  :   -87.0613817 Eh     change       -0.9781162E-04 Eh
   gradient norm :     0.0041315 Eh/α   predicted    -0.8448437E-04 ( -13.63%)
   displ. norm   :     0.4934514 α      lambda       -0.1320386E-03
   maximum displ.:     0.4183352 α      in ANC's #2, #5, #4, ...

........................................................................
.............................. CYCLE   63 ..............................
........................................................................
   1    -87.8492258 -0.878492E+02  0.607E-03    0.69       0.0  T
   2    -87.8492269 -0.113345E-05  0.289E-03    0.69       5.1  T
   3    -87.8492272 -0.242797E-06  0.140E-03    0.69      10.5  T
   4    -87.8492272 -0.639358E-08  0.930E-04    0.69      15.9  T
   5    -87.8492272 -0.354752E-07  0.165E-04    0.69      89.5  T
   6    -87.8492272 -0.326494E-09  0.351E-05    0.69     419.7  T
     SCC iter.                  ...        0 min,  0.022 sec
     gradient                   ...        0 min,  0.042 sec
 * total energy  :   -87.0614779 Eh     change       -0.9616495E-04 Eh
   gradient norm :     0.0029974 Eh/α   predicted    -0.8209799E-04 ( -14.63%)
   displ. norm   :     0.6107067 α      lambda       -0.1147484E-03
   maximum displ.:     0.5147740 α      in ANC's #2, #5, #4, ...

........................................................................
.............................. CYCLE   64 ..............................
........................................................................
   1    -87.8456779 -0.878457E+02  0.110E-02    0.67       0.0  T
   2    -87.8456822 -0.423731E-05  0.515E-03    0.68       2.9  T
   3    -87.8456825 -0.333075E-06  0.287E-03    0.68       5.1  T
   4    -87.8456824  0.762366E-07  0.179E-03    0.68       8.2  T
   5    -87.8456826 -0.149080E-06  0.396E-04    0.68      37.2  T
   6    -87.8456826 -0.468783E-08  0.830E-05    0.68     177.6  T
   7    -87.8456826 -0.217597E-09  0.215E-05    0.68     685.3  T
     SCC iter.                  ...        0 min,  0.026 sec
     gradient                   ...        0 min,  0.043 sec
[...]
N26-C5-C6=124.30               O7-C6-C5=123.78                C8-C6-C5=119.47                C8-C6-O7=116.56                
H30-O7-C6=108.80               O9-C8-C6=125.39                N10-C8-C6=115.43               N10-C8-O9=119.13               
C11-N10-C8=113.92              C12-N10-C8=124.15              C12-N10-C11=121.70             
 
 selected dihedral angles (degree)
 ---------------------------------
C3-O2-C1-H27=180.19           C3-O2-C1-H28= 60.54           C3-O2-C1-H29=299.81           O4-C3-O2-C1=  0.46            
C5-C3-O2-C1=179.80            C6-C5-C3-O2=179.39            C6-C5-C3-O4=358.70            N26-C5-C3-O2=  1.20           
N26-C5-C3-O4=180.52           O7-C6-C5-C3=  2.21            O7-C6-C5-N26=180.23           C8-C6-C5-C3=187.29            
C8-C6-C5-N26=  5.31           H30-O7-C6-C5=358.61           H30-O7-C6-C8=173.67           O9-C8-C6-C5=171.80            
O9-C8-C6-O7=356.52            N10-C8-C6-C5=354.63           N10-C8-C6-O7=179.35           C11-N10-C8-C6=176.25          
C11-N10-C8-O9=358.89          C12-N10-C8-C6=350.80          C12-N10-C8-O9=173.44          
           -------------------------------------------------
          |                Final Singlepoint                |
           -------------------------------------------------

          ...................................................
          :                      SETUP                      :
          :.................................................:
          :  # basis functions                 144          :
          :  # atomic orbitals                 144          :
          :  # shells                           92          :
          :  # electrons                       142          :
          :  # halogen bonds                     0          :
          :  max. iterations                   250          :
          :  Hamiltonian                  GFN1-xTB          :
          :  restarted?                      false          :
          :  GBSA solvation                   true          :
          :  PC potential                    false          :
          :  electronic temp.          300.0000000     K    :
          :  accuracy                    1.0000000          :
          :  -> integral cutoff          0.2500000E+02      :
          :  -> integral neglect         0.1000000E-07      :
          :  -> SCF convergence          0.1000000E-05 Eh   :
          :  -> wf. convergence          0.2000000E-04 e    :
          :  Broyden damping             0.4000000          :
          ...................................................

 iter      E             dE          RMSdq      gap      omega  full diag
   1    -87.8515170 -0.878515E+02  0.866E-06    0.71       0.0  T
   2    -87.8515170 -0.895284E-12  0.518E-06    0.71    2845.5  T
   3    -87.8515170 -0.426326E-12  0.312E-06    0.71    4731.0  T

   *** convergence criteria satisfied after 3 iterations ***

         #    Occupation            Energy/Eh            Energy/eV
      -------------------------------------------------------------
         1        2.0000           -0.8536200             -23.2282
       ...           ...                  ...                  ...
        65        2.0000           -0.4373595             -11.9012
        66        2.0000           -0.4294482             -11.6859
        67        2.0000           -0.4219093             -11.4807
        68        2.0000           -0.3989280             -10.8554
        69        2.0000           -0.3872874             -10.5386
        70        2.0000           -0.3749278             -10.2023
        71        2.0000           -0.3194960              -8.6939 (HOMO)
        72        0.0000           -0.2935639              -7.9883 (LUMO)
        73                         -0.2699730              -7.3463
        74                         -0.2473782              -6.7315
        75                         -0.1886669              -5.1339
        76                         -0.1823110              -4.9609
       ...                                ...                  ...
       144                          0.7329763              19.9453
      -------------------------------------------------------------
                  HL-Gap            0.0259321 Eh            0.7056 eV
             Fermi-level           -0.3065299 Eh           -8.3411 eV

 SCC (total)                   0 d,  0 h,  0 min,  0.074 sec
 SCC setup                      ...        0 min,  0.001 sec (  1.678%)
 Dispersion                     ...        0 min,  0.000 sec (  0.240%)
 classical contributions        ...        0 min,  0.000 sec (  0.105%)
 integral evaluation            ...        0 min,  0.019 sec ( 25.595%)
 iterations                     ...        0 min,  0.011 sec ( 15.055%)
 molecular gradient             ...        0 min,  0.042 sec ( 56.347%)
 printout                       ...        0 min,  0.001 sec (  0.963%)

         :::::::::::::::::::::::::::::::::::::::::::::::::::::
         ::                     SUMMARY                     ::
         :::::::::::::::::::::::::::::::::::::::::::::::::::::
         :: total energy             -87.063695521439 Eh    ::
         :: total w/o Gsasa/hb       -87.044453933437 Eh    ::
         :: gradient norm              0.000837807125 Eh/a0 ::
         :: HOMO-LUMO gap              0.705648314087 eV    ::
         ::.................................................::
         :: SCC energy               -87.851516959521 Eh    ::
         :: -> electrostatic           0.452255347146 Eh    ::
         :: -> Gsolv                  -0.105387021329 Eh    ::
         ::    -> Gelec               -0.086145433327 Eh    ::
         ::    -> Gsasa               -0.022810476691 Eh    ::
         ::    -> Ghb                 -0.004055390316 Eh    ::
         ::    -> Gshift               0.007624279005 Eh    ::
         :: repulsion energy           0.819938413259 Eh    ::
         :: dispersion energy         -0.032116975177 Eh    ::
         :: halogen bond corr.         0.000000000000 Eh    ::
         :: add. restraining           0.000000000000 Eh    ::
         :: total charge              -1.000000000000 e     ::
         :::::::::::::::::::::::::::::::::::::::::::::::::::::

           -------------------------------------------------
          |                Property Printout                |
           -------------------------------------------------

    * Orbital Energies and Occupations

         #    Occupation            Energy/Eh            Energy/eV
      -------------------------------------------------------------
         1        2.0000           -0.8536200             -23.2282
       ...           ...                  ...                  ...
        59        2.0000           -0.4729150             -12.8687
        60        2.0000           -0.4688293             -12.7575
        61        2.0000           -0.4627910             -12.5932
        62        2.0000           -0.4492417             -12.2245
        63        2.0000           -0.4468083             -12.1583
        64        2.0000           -0.4424843             -12.0406
        65        2.0000           -0.4373595             -11.9012
        66        2.0000           -0.4294482             -11.6859
        67        2.0000           -0.4219093             -11.4807
        68        2.0000           -0.3989280             -10.8554
        69        2.0000           -0.3872874             -10.5386
        70        2.0000           -0.3749278             -10.2023
        71        2.0000           -0.3194960              -8.6939 (HOMO)
        72        0.0000           -0.2935639              -7.9883 (LUMO)
        73                         -0.2699730              -7.3463
        74                         -0.2473782              -6.7315
        75                         -0.1886669              -5.1339
        76                         -0.1823110              -4.9609
        77                         -0.1472674              -4.0073
        78                         -0.1237125              -3.3664
        79                         -0.1217884              -3.3140
        80                         -0.1121726              -3.0524
        81                         -0.1096757              -2.9844
        82                         -0.0986987              -2.6857
       ...                                ...                  ...
       144                          0.7329763              19.9453
      -------------------------------------------------------------
                  HL-Gap            0.0259321 Eh            0.7056 eV
             Fermi-level           -0.3065299 Eh           -8.3411 eV

  Mulliken/CM5 charges         n(s)   n(p)   n(d)
     1C     0.17016  0.05020   0.974  2.856  0.000
     2O    -0.41458 -0.49735   1.685  4.729  0.000
     3C     0.55783  0.62156   0.988  2.454  0.000
     4O    -0.59593 -0.65851   1.732  4.864  0.000
     5C     0.07934  0.16076   1.039  2.882  0.000
     6C     0.10694  0.13716   1.007  2.886  0.000
     7O    -0.57482 -0.76350   1.706  4.869  0.000
     8C     0.42029  0.52075   0.986  2.594  0.000
     9O    -0.66553 -0.70632   1.742  4.923  0.000
    10N    -0.31656 -0.56513   1.446  3.871  0.000
    11C     0.06751 -0.02106   0.980  2.953  0.000
    12C     0.26011  0.36265   1.049  2.691  0.000
    13C    -0.10517 -0.24071   1.020  3.086  0.000
    14C     0.14011  0.17851   1.079  2.781  0.000
    15C    -0.09674 -0.23479   1.014  3.083  0.000
    16C    -0.10580 -0.24732   1.016  3.090  0.000
    17N    -0.32140 -0.67312   1.438  3.883  0.000
    18C     0.45599  0.56668   0.973  2.571  0.000
    19O    -0.60540 -0.64921   1.731  4.875  0.000
    20C     0.33041  0.45594   1.015  2.655  0.000
    21N    -0.24028 -0.34382   1.569  3.672  0.000
    22N    -0.27944 -0.38735   1.566  3.713  0.000
    23C     0.38699  0.49589   1.004  2.609  0.000
    24C    -0.10651 -0.24400   1.010  3.096  0.000
    25O    -0.35499 -0.41124   1.696  4.659  0.000
    26N    -0.52465 -0.71665   1.547  3.978  0.000
    27H     0.03694  0.09755   0.963  0.000  0.000
    28H     0.04309  0.10491   0.957  0.000  0.000
    29H     0.04246  0.10436   0.958  0.000  0.000
    30H     0.36387  0.55261   0.636  0.000  0.000
    31H     0.02977  0.09376   0.970  0.000  0.000
    32H     0.02423  0.08818   0.976  0.000  0.000
    33H     0.03508  0.09982   0.965  0.000  0.000
    34H     0.03192  0.09265   0.968  0.000  0.000
    35H     0.03304  0.09159   0.967  0.000  0.000
    36H     0.02541  0.08194   0.975  0.000  0.000
    37H     0.03759  0.09662   0.962  0.000  0.000
    38H     0.03142  0.09285   0.969  0.000  0.000
    39H     0.03227  0.09106   0.968  0.000  0.000
    40H     0.03118  0.08725   0.969  0.000  0.000
    41H     0.04634  0.10677   0.954  0.000  0.000
    42H     0.03230  0.08940   0.968  0.000  0.000
    43H     0.24474  0.46319   0.755  0.000  0.000
    44H     0.06491  0.12079   0.935  0.000  0.000
    45H     0.07089  0.12548   0.929  0.000  0.000
    46H     0.07467  0.12923   0.925  0.000  0.000

Wiberg/Mayer (AO) data.
largest (>0.10) Wiberg bond orders for each atom

 ---------------------------------------------------------------------------
     #   Z sym  total        # sym  WBO       # sym  WBO       # sym  WBO
 ---------------------------------------------------------------------------
     1   6 C    3.889 --    27 H    0.985    29 H    0.980    28 H    0.979
                             2 O    0.914
     2   8 O    2.192 --     3 C    1.092     1 C    0.914     4 O    0.118
     3   6 C    3.822 --     4 O    1.597     2 O    1.092     5 C    1.028
     4   8 O    1.919 --     3 C    1.597     2 O    0.118
     5   6 C    3.971 --    26 N    1.362     6 C    1.353     3 C    1.028
     6   6 C    3.879 --     5 C    1.353     8 C    1.151     7 O    0.997
                            26 N    0.184
     7   8 O    1.967 --     6 C    0.997    30 H    0.825
     8   6 C    3.917 --     9 O    1.478     6 C    1.151    10 N    1.131
     9   8 O    1.794 --     8 C    1.478    10 N    0.126
    10   7 N    3.292 --     8 C    1.131    11 C    0.957    12 C    0.929
                             9 O    0.126
    11   6 C    3.963 --    32 H    0.982    31 H    0.982    33 H    0.981
                            10 N    0.957
    12   6 C    3.941 --    26 N    1.014    13 C    0.987    10 N    0.929
                            14 C    0.913
    13   6 C    3.995 --    12 C    0.987    35 H    0.984    34 H    0.984
                            36 H    0.979
    14   6 C    3.923 --    16 C    1.000    15 C    0.993    17 N    0.922
                            12 C    0.913
    15   6 C    3.994 --    14 C    0.993    39 H    0.985    37 H    0.984
                            38 H    0.983
    16   6 C    3.994 --    14 C    1.000    42 H    0.983    40 H    0.983
                            41 H    0.978
    17   7 N    3.392 --    18 C    1.310    14 C    0.922    43 H    0.861
                            19 O    0.186
    18   6 C    3.924 --    19 O    1.544    17 N    1.310    20 C    0.983
    19   8 O    1.867 --    18 C    1.544    17 N    0.186
    20   6 C    3.865 --    21 N    1.623    25 O    1.050    18 C    0.983
    21   7 N    2.987 --    20 C    1.623    22 N    1.190
    22   7 N    2.979 --    23 C    1.619    21 N    1.190
    23   6 C    3.873 --    22 N    1.619    25 O    1.074    24 C    1.030
    24   6 C    3.989 --    23 C    1.030    44 H    0.983    46 H    0.966
                            45 H    0.963
    25   8 O    2.317 --    23 C    1.074    20 C    1.050
    26   7 N    2.927 --     5 C    1.362    12 C    1.014     6 C    0.184
    27   1 H    1.017 --     1 C    0.985
    28   1 H    1.011 --     1 C    0.979
    29   1 H    1.011 --     1 C    0.980
    30   1 H    0.889 --     7 O    0.825
    31   1 H    1.016 --    11 C    0.982
    32   1 H    1.011 --    11 C    0.982
    33   1 H    1.016 --    11 C    0.981
    34   1 H    1.013 --    13 C    0.984
    35   1 H    1.014 --    13 C    0.984
    36   1 H    1.008 --    13 C    0.979
    37   1 H    1.010 --    15 C    0.984
    38   1 H    1.012 --    15 C    0.983
    39   1 H    1.006 --    15 C    0.985
    40   1 H    1.006 --    16 C    0.983
    41   1 H    1.015 --    16 C    0.978
    42   1 H    1.006 --    16 C    0.983
    43   1 H    0.976 --    17 N    0.861
    44   1 H    1.000 --    24 C    0.983
    45   1 H    1.001 --    24 C    0.963
    46   1 H    0.998 --    24 C    0.966
 ---------------------------------------------------------------------------

Topologies differ in total number of bonds
Writing topology from bond orders to xtbtopo.mol

 dipole moment from electron density (au)
     X       Y       Z   
   3.6375   0.4873   3.7747  total (Debye):   13.382

           -------------------------------------------------
          |                Geometry Summary                 |
           -------------------------------------------------

      molecular mass/u    :      366.3497991
   center of mass at/Å    :       -0.0856207       0.2613745       0.1847444
  moments of inertia/u·Å² :        0.1692164E+04   0.3189018E+04   0.4271700E+04
rotational constants/cm⁻¹ :        0.9962172E-02   0.5286151E-02   0.3946352E-02

 * 40 selected distances

     #   Z          #   Z                                           value/Å
     1   6 C        2   8 O                                       1.4234335
     2   8 O        3   6 C                                       1.3424998
     3   6 C        4   8 O                                       1.2230607
     5   6 C        6   6 C                                       1.3916302
     6   6 C        7   8 O                                       1.3885903
     8   6 C        9   8 O                                       1.2447972
     8   6 C       10   7 N                                       1.3861047
    10   7 N       11   6 C                                       1.4621396
    10   7 N       12   6 C                                       1.4631786
    14   6 C       15   6 C                                       1.5348828 (max)
    14   6 C       16   6 C                                       1.5314340
    14   6 C       17   7 N                                       1.4666989
    17   7 N       18   6 C                                       1.3344907
    18   6 C       19   8 O                                       1.2276232
    20   6 C       21   7 N                                       1.2983759
    22   7 N       23   6 C                                       1.2955908
    23   6 C       24   6 C                                       1.4797295
    20   6 C       25   8 O                                       1.3507595
    23   6 C       25   8 O                                       1.3430696
     5   6 C       26   7 N                                       1.3331794
     1   6 C       27   1 H                                       1.0887358
     1   6 C       28   1 H                                       1.0935499
     1   6 C       29   1 H                                       1.0937250
     7   8 O       30   1 H                                       0.9752038 (min)
    11   6 C       31   1 H                                       1.0947274
    11   6 C       32   1 H                                       1.0853194
    11   6 C       33   1 H                                       1.0944381
    13   6 C       34   1 H                                       1.0884868
    13   6 C       35   1 H                                       1.0889219
    13   6 C       36   1 H                                       1.0865268
    15   6 C       37   1 H                                       1.0897901
    15   6 C       38   1 H                                       1.0895489
    15   6 C       39   1 H                                       1.0890828
    16   6 C       40   1 H                                       1.0875735
    16   6 C       41   1 H                                       1.0899668
    16   6 C       42   1 H                                       1.0883235
    17   7 N       43   1 H                                       1.0233008
    24   6 C       44   1 H                                       1.0870082
    24   6 C       45   1 H                                       1.0902976
    24   6 C       46   1 H                                       1.0896536

 * 6 distinct bonds (by element types)

   Z      Z             #   av. dist./Å        max./Å        min./Å
   1 H    6 C          18     1.0897598     1.0947274     1.0853194
   6 C    6 C           4     1.4844191     1.5348828     1.3916302
   1 H    7 N           1     1.0233008     1.0233008     1.0233008
   6 C    7 N           8     1.3799698     1.4666989     1.2955908
   1 H    8 O           1     0.9752038     0.9752038     0.9752038
   6 C    8 O           8     1.3179792     1.4234335     1.2230607


optimized geometry written to: xtbopt.xyz


           -------------------------------------------------
          | TOTAL ENERGY              -87.063695521439 Eh   |
          | GRADIENT NORM               0.000837807125 Eh/α |
          | HOMO-LUMO GAP               0.705648314087 eV   |
           -------------------------------------------------

------------------------------------------------------------------------
 * finished run on 2023/06/20 at 15:20:26.056     
------------------------------------------------------------------------
 total:
 * wall-time:     0 d,  0 h,  0 min, 14.836 sec
 *  cpu-time:     0 d,  0 h,  0 min, 14.776 sec
 * ratio c/w:     0.996 speedup
 SCF:
 * wall-time:     0 d,  0 h,  0 min,  0.193 sec
 *  cpu-time:     0 d,  0 h,  0 min,  0.185 sec
 * ratio c/w:     0.957 speedup
 ANC optimizer:
 * wall-time:     0 d,  0 h,  0 min, 14.580 sec
 *  cpu-time:     0 d,  0 h,  0 min, 14.559 sec
 * ratio c/w:     0.999 speedup

