      -----------------------------------------------------------      
     |                   =====================                   |     
     |                           x T B                           |     
     |                   =====================                   |     
     |                         S. Grimme                         |     
     |          Mulliken Center for Theoretical Chemistry        |     
     |                    University of Bonn                     |     
      -----------------------------------------------------------      

   * xtb version 6.5.1 (579679a) compiled by 'ehlert@majestix' on 2022-07-11

   xtb is free software: you can redistribute it and/or modify it under
   the terms of the GNU Lesser General Public License as published by
   the Free Software Foundation, either version 3 of the License, or
   (at your option) any later version.
   
   xtb is distributed in the hope that it will be useful,
   but WITHOUT ANY WARRANTY; without even the implied warranty of
   MERCHANTABILITY or FITNESS FOR A PARTICULAR PURPOSE.  See the
   GNU Lesser General Public License for more details.
   
   Cite this work as:
   * C. Bannwarth, E. Caldeweyher, S. Ehlert, A. Hansen, P. Pracht,
     J. Seibert, S. Spicher, S. Grimme, WIREs Comput. Mol. Sci., 2020, 11,
     e01493. DOI: 10.1002/wcms.1493
   
   for GFN2-xTB:
   * C. Bannwarth, S. Ehlert and S. Grimme., J. Chem. Theory Comput., 2019,
     15, 1652-1671. DOI: 10.1021/acs.jctc.8b01176
   for GFN1-xTB:
   * S. Grimme, C. Bannwarth, P. Shushkov, J. Chem. Theory Comput., 2017,
     13, 1989-2009. DOI: 10.1021/acs.jctc.7b00118
   for GFN0-xTB:
   * P. Pracht, E. Caldeweyher, S. Ehlert, S. Grimme, ChemRxiv, 2019, preprint.
     DOI: 10.26434/chemrxiv.8326202.v1
   for GFN-FF:
   * S. Spicher and S. Grimme, Angew. Chem. Int. Ed., 2020, 59, 15665-15673.
     DOI: 10.1002/anie.202004239
   
   for ALPB and GBSA implicit solvation:
   * S. Ehlert, M. Stahn, S. Spicher, S. Grimme, J. Chem. Theory Comput.,
     2021, 17, 4250-4261. DOI: 10.1021/acs.jctc.1c00471
   
   for DFT-D4:
   * E. Caldeweyher, C. Bannwarth and S. Grimme, J. Chem. Phys., 2017,
     147, 034112. DOI: 10.1063/1.4993215
   * E. Caldeweyher, S. Ehlert, A. Hansen, H. Neugebauer, S. Spicher,
     C. Bannwarth and S. Grimme, J. Chem. Phys., 2019, 150, 154122.
     DOI: 10.1063/1.5090222
   * E. Caldeweyher, J.-M. Mewes, S. Ehlert and S. Grimme, Phys. Chem. Chem. Phys.
     2020, 22, 8499-8512. DOI: 10.1039/D0CP00502A
   
   for sTDA-xTB:
   * S. Grimme and C. Bannwarth, J. Chem. Phys., 2016, 145, 054103.
     DOI: 10.1063/1.4959605
   
   in the mass-spec context:
   * V. Asgeirsson, C. Bauer and S. Grimme, Chem. Sci., 2017, 8, 4879.
     DOI: 10.1039/c7sc00601b
   * J. Koopman and S. Grimme, ACS Omega 2019, 4, 12, 15120-15133.
     DOI: 10.1021/acsomega.9b02011
   
   for metadynamics refer to:
   * S. Grimme, J. Chem. Theory Comput., 2019, 155, 2847-2862
     DOI: 10.1021/acs.jctc.9b00143
   
   for SPH calculations refer to:
   * S. Spicher and S. Grimme, J. Chem. Theory Comput., 2021, 17, 1701-1714
     DOI: 10.1021/acs.jctc.0c01306
   
   with help from (in alphabetical order)
   P. Atkinson, C. Bannwarth, F. Bohle, G. Brandenburg, E. Caldeweyher
   M. Checinski, S. Dohm, S. Ehlert, S. Ehrlich, I. Gerasimov, C. Hölzer
   A. Katbashev, J. Koopman, C. Lavigne, S. Lehtola, F. März, M. Müller,
   F. Musil, H. Neugebauer, J. Pisarek, C. Plett, P. Pracht, F. Pultar,
   J. Seibert, P. Shushkov, S. Spicher, M. Stahn, M. Steiner, T. Strunk,
   J. Stückrath, T. Rose, and J. Unsleber
   
 * started run on 2023/06/20 at 18:18:04.583     

           -------------------------------------------------
          |                Calculation Setup                |
           -------------------------------------------------

          program call               : /lustre/hpc/kemi/ree/PhD/git/ReactivityQM/dep/xtb-6.5.1/bin/xtb --gfn 1 /lustre/hpc/kemi/ree/PhD/git/ReactivityQM/calculations/R02deprot/reac01prodN10/conf20/R02deprot_reac01prodN10_conf20_gfn1.xyz --opt --vfukui --chrg 0 --uhf 0 --alpb DMSO
          hostname                   : node308
          coordinate file            : /lustre/hpc/kemi/ree/PhD/git/ReactivityQM/calculations/R02deprot/reac01prodN10/conf20/R02deprot_reac01prodN10_conf20_gfn1.xyz
          omp threads                :                     1

   ID    Z sym.   atoms
    1    6 C      1, 3, 5, 6, 8-11, 13, 15, 18, 19, 22, 24
    2    8 O      2, 4, 14, 20, 23, 25
    3    7 N      7, 12, 16, 17, 21
    4    1 H      26-42

           -------------------------------------------------
          |                 G F N 1 - x T B                 |
           -------------------------------------------------

        Reference                      10.1021/acs.jctc.7b00118
      * Hamiltonian:
        H0-scaling (s, p, d)           1.850000    2.250000    2.000000
        zeta-weighting                 0.000000
      * Dispersion:
        s8                             2.400000
        a1                             0.630000
        a2                             5.000000
        s9                             0.000000
      * Repulsion:
        kExp                           1.500000
        rExp                           1.000000
      * Coulomb:
        alpha                          2.000000
        third order                    atomic
        anisotropic                    false
      * Halogen bond correction:
        rad-scale                      1.300000
        damping                        0.440000

      * Solvation model:               ALPB
        Solvent                        DMSO
        Parameter file                 internal GFN1-xTB/ALPB
        Dielectric constant                4.6680E+01
        Reference state                gsolv [1 M gas/solution]
        Free energy shift                  7.6243E-03 Eh       4.7843E+00 kcal/mol
        Temperature                        2.9815E+02 K
        Density                            1.1000E+00 kg/L
        Solvent mass                       7.8130E+01 g/mol
        Interaction kernel             P16
        Born radius scaling (c1)           1.7672E+00
        Born radii integrator          GBOBC
        Born offset                        0.0000E+00 a0       0.0000E+00 AA
        H-bond correction              true
        Ion screening                  false
        Surface tension                    1.0000E-05 Eh       1.5569E+01 dyn/cm
        Grid points                               230 per atom

          ...................................................
          :                      SETUP                      :
          :.................................................:
          :  # basis functions                 134          :
          :  # atomic orbitals                 134          :
          :  # shells                           84          :
          :  # electrons                       134          :
          :  # halogen bonds                     0          :
          :  max. iterations                   250          :
          :  Hamiltonian                  GFN1-xTB          :
          :  restarted?                      false          :
          :  GBSA solvation                   true          :
          :  PC potential                    false          :
          :  electronic temp.          300.0000000     K    :
          :  accuracy                    1.0000000          :
          :  -> integral cutoff          0.2500000E+02      :
          :  -> integral neglect         0.1000000E-07      :
          :  -> SCF convergence          0.1000000E-05 Eh   :
          :  -> wf. convergence          0.2000000E-04 e    :
          :  Broyden damping             0.4000000          :
          ...................................................

 iter      E             dE          RMSdq      gap      omega  full diag
   1    -83.3395642 -0.833396E+02  0.843E+00    1.95       0.0  T
   2    -83.6500573 -0.310493E+00  0.507E+00    0.86       1.0  T
   3    -83.5961424  0.539149E-01  0.209E+00    1.71       1.0  T
   4    -83.6608764 -0.647340E-01  0.607E-01    0.85       1.0  T
   5    -83.6791403 -0.182640E-01  0.307E-01    1.21       1.0  T
   6    -83.6841537 -0.501336E-02  0.651E-02    1.08       1.0  T
   7    -83.6843029 -0.149145E-03  0.125E-02    1.04       1.2  T
   8    -83.6843100 -0.716971E-05  0.804E-03    1.05       1.9  T
   9    -83.6843113 -0.123158E-05  0.301E-03    1.05       5.1  T
  10    -83.6843114 -0.142317E-06  0.157E-03    1.05       9.9  T
  11    -83.6843115 -0.826657E-07  0.474E-04    1.04      32.5  T
  12    -83.6843115 -0.853457E-08  0.482E-05    1.04     320.4  T
  13    -83.6843115 -0.911200E-10  0.183E-05    1.04     845.1  T

   *** convergence criteria satisfied after 13 iterations ***

         #    Occupation            Energy/Eh            Energy/eV
      -------------------------------------------------------------
         1        2.0000           -0.8748988             -23.8072
       ...           ...                  ...                  ...
        61        2.0000           -0.4623792             -12.5820
        62        2.0000           -0.4536953             -12.3457
        63        2.0000           -0.4518850             -12.2964
        64        2.0000           -0.4434398             -12.0666
        65        2.0000           -0.4367876             -11.8856
        66        2.0000           -0.4358583             -11.8603
        67        2.0000           -0.4326118             -11.7720 (HOMO)
        68                         -0.3942203             -10.7273 (LUMO)
        69                         -0.3148065              -8.5663
        70                         -0.3089067              -8.4058
        71                         -0.2756737              -7.5015
        72                         -0.2587407              -7.0407
       ...                                ...                  ...
       134                          0.6955814              18.9277
      -------------------------------------------------------------
                  HL-Gap            0.0383916 Eh            1.0447 eV
             Fermi-level           -0.4133951 Eh          -11.2491 eV

 SCC (total)                   0 d,  0 h,  0 min,  0.168 sec
 SCC setup                      ...        0 min,  0.002 sec (  1.237%)
 Dispersion                     ...        0 min,  0.000 sec (  0.244%)
 classical contributions        ...        0 min,  0.000 sec (  0.076%)
 integral evaluation            ...        0 min,  0.035 sec ( 21.047%)
 iterations                     ...        0 min,  0.047 sec ( 27.821%)
 molecular gradient             ...        0 min,  0.082 sec ( 49.030%)
 printout                       ...        0 min,  0.001 sec (  0.516%)

         :::::::::::::::::::::::::::::::::::::::::::::::::::::
         ::                     SUMMARY                     ::
         :::::::::::::::::::::::::::::::::::::::::::::::::::::
         :: total energy             -82.931244978868 Eh    ::
         :: total w/o Gsasa/hb       -82.907158092370 Eh    ::
         :: gradient norm              0.128708933771 Eh/a0 ::
         :: HOMO-LUMO gap              1.044687460057 eV    ::
         ::.................................................::
         :: SCC energy               -83.684311489321 Eh    ::
         :: -> electrostatic           0.357517027230 Eh    ::
         :: -> Gsolv                  -0.052632186988 Eh    ::
         ::    -> Gelec               -0.028545300490 Eh    ::
         ::    -> Gsasa               -0.024079567062 Eh    ::
         ::    -> Ghb                 -0.007631598441 Eh    ::
         ::    -> Gshift               0.007624279005 Eh    ::
         :: repulsion energy           0.779211521169 Eh    ::
         :: dispersion energy         -0.026145010716 Eh    ::
         :: halogen bond corr.         0.000000000000 Eh    ::
         :: add. restraining           0.000000000000 Eh    ::
         :: total charge               0.000000000151 e     ::
         :::::::::::::::::::::::::::::::::::::::::::::::::::::

      ----------------------------------------------------------- 
     |                   =====================                   |
     |                        A N C O P T                        |
     |                   =====================                   |
     |               Approximate Normal Coordinate               |
     |                Rational Function Optimizer                |
      ----------------------------------------------------------- 

          ...................................................
          :                      SETUP                      :
          :.................................................:
          :   optimization level            normal          :
          :   max. optcycles                   200          :
          :   ANC micro-cycles                  20          :
          :   degrees of freedom               120          :
          :.................................................:
          :   RF solver                   davidson          :
          :   write xtbopt.log                true          :
          :   linear?                        false          :
          :   energy convergence         0.5000000E-05 Eh   :
          :   grad. convergence          0.1000000E-02 Eh/α :
          :   maximium RF displ.         1.0000000          :
          :   Hlow (freq-cutoff)         0.1000000E-01      :
          :   Hmax (freq-cutoff)         5.0000000          :
          :   S6 in model hess.         20.0000000          :
          ...................................................

generating ANC from model Hessian ...
Using Lindh-Hessian (1995)
 Shifting diagonal of input Hessian by   9.822582760060133E-003
 Lowest  eigenvalues of input Hessian
    0.000000    0.000000    0.000000    0.000000    0.000000    0.000000
    0.010000    0.010232    0.010515    0.010835    0.011578    0.012176
    0.013551    0.014175    0.014854    0.015112    0.017180    0.017683
 Highest eigenvalues
    2.035140    2.103819    2.130698    2.278604    2.345871    2.355855
 

........................................................................
.............................. CYCLE    1 ..............................
........................................................................
   1    -83.6843115 -0.836843E+02  0.842E-06    1.04       0.0  T
   2    -83.6843115  0.282796E-11  0.998E-06    1.04    1545.5  T
   3    -83.6843115 -0.598277E-11  0.188E-06    1.04    8199.9  T
     SCC iter.                  ...        0 min,  0.011 sec
     gradient                   ...        0 min,  0.082 sec
 * total energy  :   -82.9312450 Eh     change       -0.1377032E-10 Eh
   gradient norm :     0.1287085 Eh/α   predicted     0.0000000E+00 (-100.00%)
   displ. norm   :     0.3202242 α      lambda       -0.1892996E-01
   maximum displ.:     0.1435679 α      in ANC's #26, #21, #20, ...

........................................................................
.............................. CYCLE    2 ..............................
........................................................................
   1    -83.7011802 -0.837012E+02  0.105E-01    1.15       0.0  T
   2    -83.7013133 -0.133122E-03  0.912E-02    1.07       1.0  T
   3    -83.7017555 -0.442146E-03  0.273E-02    1.12       1.0  T
   4    -83.7017791 -0.236900E-04  0.126E-02    1.11       1.2  T
   5    -83.7017794 -0.277489E-06  0.242E-03    1.11       6.4  T
   6    -83.7017796 -0.189308E-06  0.671E-04    1.11      23.0  T
   7    -83.7017796 -0.929155E-08  0.199E-04    1.11      77.4  T
   8    -83.7017796 -0.685176E-09  0.788E-05    1.11     195.8  T
     SCC iter.                  ...        0 min,  0.028 sec
     gradient                   ...        0 min,  0.082 sec
 * total energy  :   -82.9451448 Eh     change       -0.1389980E-01 Eh
   gradient norm :     0.0669388 Eh/α   predicted    -0.1044752E-01 ( -24.84%)
   displ. norm   :     0.3717665 α      lambda       -0.9395911E-02
   maximum displ.:     0.1690968 α      in ANC's #26, #21, #20, ...

........................................................................
.............................. CYCLE    3 ..............................
........................................................................
   1    -83.7152929 -0.837153E+02  0.103E-01    1.20       0.0  T
   2    -83.7155134 -0.220498E-03  0.732E-02    1.13       1.0  T
   3    -83.7157907 -0.277295E-03  0.248E-02    1.18       1.0  T
   4    -83.7158093 -0.186154E-04  0.112E-02    1.17       1.4  T
   5    -83.7158096 -0.229992E-06  0.228E-03    1.16       6.8  T
   6    -83.7158097 -0.146586E-06  0.598E-04    1.17      25.8  T
   7    -83.7158097 -0.758477E-08  0.173E-04    1.17      89.1  T
   8    -83.7158097 -0.353282E-09  0.808E-05    1.17     191.0  T
     SCC iter.                  ...        0 min,  0.029 sec
     gradient                   ...        0 min,  0.082 sec
 * total energy  :   -82.9508935 Eh     change       -0.5748754E-02 Eh
   gradient norm :     0.0225633 Eh/α   predicted    -0.5349207E-02 (  -6.95%)
   displ. norm   :     0.2586348 α      lambda       -0.1805758E-02
   maximum displ.:     0.0935584 α      in ANC's #26, #13, #19, ...

........................................................................
.............................. CYCLE    4 ..............................
........................................................................
   1    -83.7192851 -0.837193E+02  0.297E-02    1.18       0.0  T
   2    -83.7193127 -0.275671E-04  0.125E-02    1.18       1.2  T
   3    -83.7193161 -0.340286E-05  0.712E-03    1.18       2.2  T
   4    -83.7193157  0.399176E-06  0.425E-03    1.18       3.6  T
   5    -83.7193166 -0.947719E-06  0.102E-03    1.18      15.2  T
   6    -83.7193166 -0.136454E-07  0.202E-04    1.18      76.5  T
   7    -83.7193166 -0.924047E-09  0.779E-05    1.18     198.0  T
   8    -83.7193166 -0.682689E-10  0.272E-05    1.18     567.9  T
     SCC iter.                  ...        0 min,  0.030 sec
     gradient                   ...        0 min,  0.082 sec
 * total energy  :   -82.9521937 Eh     change       -0.1300123E-02 Eh
   gradient norm :     0.0136100 Eh/α   predicted    -0.9632950E-03 ( -25.91%)
   displ. norm   :     0.2830953 α      lambda       -0.1101096E-02
   maximum displ.:     0.1081703 α      in ANC's #13, #18, #12, ...

........................................................................
.............................. CYCLE    5 ..............................
........................................................................
   1    -83.7217185 -0.837217E+02  0.204E-02    1.19       0.0  T
   2    -83.7217328 -0.143067E-04  0.132E-02    1.20       1.2  T
   3    -83.7217369 -0.402697E-05  0.528E-03    1.19       2.9  T
   4    -83.7217372 -0.355004E-06  0.440E-03    1.20       3.5  T
   5    -83.7217376 -0.415991E-06  0.796E-04    1.19      19.4  T
   6    -83.7217376 -0.885356E-08  0.165E-04    1.19      93.4  T
   7    -83.7217376 -0.825437E-09  0.645E-05    1.19     239.1  T
     SCC iter.                  ...        0 min,  0.025 sec
     gradient                   ...        0 min,  0.083 sec
 * total energy  :   -82.9529303 Eh     change       -0.7366055E-03 Eh
   gradient norm :     0.0094165 Eh/α   predicted    -0.5946722E-03 ( -19.27%)
   displ. norm   :     0.2092635 α      lambda       -0.4178723E-03
   maximum displ.:     0.0830286 α      in ANC's #12, #18, #13, ...

........................................................................
.............................. CYCLE    6 ..............................
........................................................................
   1    -83.7230636 -0.837231E+02  0.113E-02    1.21       0.0  T
   2    -83.7230675 -0.388556E-05  0.866E-03    1.21       1.8  T
   3    -83.7230704 -0.291058E-05  0.269E-03    1.21       5.7  T
   4    -83.7230706 -0.142122E-06  0.171E-03    1.21       9.0  T
   5    -83.7230706 -0.357034E-07  0.444E-04    1.21      34.8  T
   6    -83.7230706 -0.230828E-08  0.837E-05    1.21     184.4  T
   7    -83.7230706 -0.163411E-09  0.312E-05    1.21     494.4  T
     SCC iter.                  ...        0 min,  0.026 sec
     gradient                   ...        0 min,  0.082 sec
 * total energy  :   -82.9532285 Eh     change       -0.2982788E-03 Eh
   gradient norm :     0.0079084 Eh/α   predicted    -0.2181152E-03 ( -26.88%)
   displ. norm   :     0.2083512 α      lambda       -0.2870187E-03
   maximum displ.:     0.0898161 α      in ANC's #12, #5, #18, ...

........................................................................
.............................. CYCLE    7 ..............................
........................................................................
   1    -83.7237749 -0.837238E+02  0.111E-02    1.23       0.0  T
   2    -83.7237781 -0.320256E-05  0.707E-03    1.23       2.2  T
   3    -83.7237800 -0.190571E-05  0.321E-03    1.23       4.8  T
   4    -83.7237802 -0.260558E-06  0.135E-03    1.23      11.4  T
   5    -83.7237802 -0.149624E-07  0.484E-04    1.23      31.9  T
   6    -83.7237802 -0.251522E-08  0.635E-05    1.23     242.9  T
   7    -83.7237802 -0.119755E-09  0.220E-05    1.23     701.6  T
     SCC iter.                  ...        0 min,  0.040 sec
     gradient                   ...        0 min,  0.083 sec
 * total energy  :   -82.9534328 Eh     change       -0.2042193E-03 Eh
   gradient norm :     0.0059240 Eh/α   predicted    -0.1497691E-03 ( -26.66%)
   displ. norm   :     0.1963001 α      lambda       -0.1959976E-03
   maximum displ.:     0.0964594 α      in ANC's #5, #12, #3, ...

........................................................................
.............................. CYCLE    8 ..............................
........................................................................
   1    -83.7238025 -0.837238E+02  0.105E-02    1.24       0.0  T
   2    -83.7238049 -0.234735E-05  0.598E-03    1.24       2.6  T
   3    -83.7238061 -0.125107E-05  0.347E-03    1.24       4.4  T
   4    -83.7238064 -0.238650E-06  0.126E-03    1.24      12.2  T
   5    -83.7238064 -0.168251E-07  0.435E-04    1.24      35.5  T
   6    -83.7238064 -0.264028E-08  0.502E-05    1.24     307.3  T
   7    -83.7238064 -0.794955E-10  0.144E-05    1.24    1069.2  T
     SCC iter.                  ...        0 min,  0.026 sec
     gradient                   ...        0 min,  0.083 sec
 * total energy  :   -82.9535754 Eh     change       -0.1426452E-03 Eh
   gradient norm :     0.0046837 Eh/α   predicted    -0.1017760E-03 ( -28.65%)
   displ. norm   :     0.2142138 α      lambda       -0.1641330E-03
   maximum displ.:     0.1192200 α      in ANC's #5, #3, #12, ...

........................................................................
.............................. CYCLE    9 ..............................
........................................................................
   1    -83.7234654 -0.837235E+02  0.972E-03    1.25       0.0  T
   2    -83.7234674 -0.198763E-05  0.539E-03    1.26       2.9  T
   3    -83.7234685 -0.114259E-05  0.327E-03    1.25       4.7  T
   4    -83.7234687 -0.214641E-06  0.116E-03    1.25      13.3  T
   5    -83.7234687 -0.689626E-08  0.352E-04    1.25      43.8  T
   6    -83.7234687 -0.200066E-08  0.439E-05    1.25     351.7  T
   7    -83.7234687 -0.575824E-10  0.143E-05    1.25    1080.9  T
     SCC iter.                  ...        0 min,  0.026 sec
     gradient                   ...        0 min,  0.083 sec
 * total energy  :   -82.9536981 Eh     change       -0.1226965E-03 Eh
   gradient norm :     0.0052615 Eh/α   predicted    -0.8583867E-04 ( -30.04%)
   displ. norm   :     0.2492894 α      lambda       -0.1683619E-03
   maximum displ.:     0.1426190 α      in ANC's #5, #3, #7, ...

........................................................................
.............................. CYCLE   10 ..............................
........................................................................
   1    -83.7229869 -0.837230E+02  0.837E-03    1.26       0.0  T
   2    -83.7229884 -0.157274E-05  0.495E-03    1.27       3.1  T
   3    -83.7229897 -0.122529E-05  0.261E-03    1.26       5.9  T
   4    -83.7229898 -0.135101E-06  0.102E-03    1.26      15.2  T
   5    -83.7229898 -0.193980E-08  0.252E-04    1.26      61.3  T
   6    -83.7229898 -0.123356E-08  0.416E-05    1.26     370.9  T
   7    -83.7229898 -0.330402E-10  0.156E-05    1.26     989.2  T
     SCC iter.                  ...        0 min,  0.026 sec
     gradient                   ...        0 min,  0.082 sec
 * total energy  :   -82.9538300 Eh     change       -0.1319136E-03 Eh
   gradient norm :     0.0064522 Eh/α   predicted    -0.8942326E-04 ( -32.21%)
   displ. norm   :     0.3152113 α      lambda       -0.2003931E-03
   maximum displ.:     0.1784064 α      in ANC's #5, #7, #3, ...

........................................................................
.............................. CYCLE   11 ..............................
........................................................................
   1    -83.7225085 -0.837225E+02  0.772E-03    1.27       0.0  T
   2    -83.7225104 -0.185032E-05  0.510E-03    1.27       3.0  T
   3    -83.7225116 -0.121532E-05  0.216E-03    1.27       7.2  T
   4    -83.7225117 -0.782746E-07  0.100E-03    1.27      15.4  T
   5    -83.7225117 -0.224011E-08  0.196E-04    1.27      78.7  T
   6    -83.7225117 -0.976669E-09  0.436E-05    1.27     354.1  T
     SCC iter.                  ...        0 min,  0.022 sec
     gradient                   ...        0 min,  0.082 sec
 * total energy  :   -82.9539790 Eh     change       -0.1490047E-03 Eh
   gradient norm :     0.0067145 Eh/α   predicted    -0.1101574E-03 ( -26.07%)
   displ. norm   :     0.2800248 α      lambda       -0.1570259E-03
   maximum displ.:     0.1544168 α      in ANC's #5, #7, #3, ...

........................................................................
.............................. CYCLE   12 ..............................
........................................................................
   1    -83.7228823 -0.837229E+02  0.583E-03    1.27       0.0  T
   2    -83.7228833 -0.100802E-05  0.424E-03    1.28       3.6  T
   3    -83.7228838 -0.515496E-06  0.177E-03    1.27       8.7  T
   4    -83.7228838 -0.125491E-07  0.114E-03    1.27      13.6  T
   5    -83.7228839 -0.208661E-07  0.153E-04    1.27     100.9  T
   6    -83.7228839 -0.584294E-09  0.379E-05    1.27     407.5  T
     SCC iter.                  ...        0 min,  0.022 sec
     gradient                   ...        0 min,  0.083 sec
 * total energy  :   -82.9540917 Eh     change       -0.1127002E-03 Eh
   gradient norm :     0.0052243 Eh/α   predicted    -0.8467387E-04 ( -24.87%)
   displ. norm   :     0.2042570 α      lambda       -0.9789476E-04
   maximum displ.:     0.1129613 α      in ANC's #5, #3, #7, ...

........................................................................
.............................. CYCLE   13 ..............................
........................................................................
   1    -83.7239830 -0.837240E+02  0.565E-03    1.27       0.0  T
   2    -83.7239839 -0.915700E-06  0.321E-03    1.28       4.8  T
   3    -83.7239840 -0.129683E-06  0.146E-03    1.27      10.6  T
   4    -83.7239840  0.345277E-08  0.119E-03    1.28      12.9  T
   5    -83.7239841 -0.358074E-07  0.163E-04    1.28      94.5  T
   6    -83.7239841 -0.635239E-09  0.421E-05    1.28     366.4  T
     SCC iter.                  ...        0 min,  0.022 sec
     gradient                   ...        0 min,  0.083 sec
 * total energy  :   -82.9541601 Eh     change       -0.6839299E-04 Eh
   gradient norm :     0.0032837 Eh/α   predicted    -0.5098980E-04 ( -25.45%)
   displ. norm   :     0.1686322 α      lambda       -0.5779004E-04
   maximum displ.:     0.0958698 α      in ANC's #5, #3, #6, ...

........................................................................
.............................. CYCLE   14 ..............................
........................................................................
   1    -83.7242366 -0.837242E+02  0.447E-03    1.27       0.0  T
   2    -83.7242371 -0.528695E-06  0.203E-03    1.28       7.6  T
   3    -83.7242372 -0.436147E-07  0.962E-04    1.27      16.0  T
   4    -83.7242372 -0.412435E-08  0.764E-04    1.27      20.2  T
   5    -83.7242372 -0.143970E-07  0.114E-04    1.27     135.5  T
   6    -83.7242372 -0.366754E-09  0.371E-05    1.27     415.4  T
     SCC iter.                  ...        0 min,  0.023 sec
     gradient                   ...        0 min,  0.085 sec
 * total energy  :   -82.9542014 Eh     change       -0.4131398E-04 Eh
   gradient norm :     0.0036000 Eh/α   predicted    -0.2972140E-04 ( -28.06%)
   displ. norm   :     0.1691332 α      lambda       -0.7853693E-04
   maximum displ.:     0.0940532 α      in ANC's #3, #5, #6, ...

........................................................................
.............................. CYCLE   15 ..............................
........................................................................
   1    -83.7275860 -0.837276E+02  0.898E-03    1.27       0.0  T
   2    -83.7275890 -0.298056E-05  0.476E-03    1.27       3.2  T
   3    -83.7275893 -0.327896E-06  0.246E-03    1.27       6.3  T
   4    -83.7275893  0.113848E-07  0.137E-03    1.27      11.3  T
   5    -83.7275894 -0.364872E-07  0.413E-04    1.27      37.4  T
   6    -83.7275894 -0.941152E-08  0.749E-05    1.27     205.9  T
   7    -83.7275894 -0.206683E-09  0.190E-05    1.27     810.6  T
     SCC iter.                  ...        0 min,  0.026 sec
     gradient                   ...        0 min,  0.083 sec
 * total energy  :   -82.9542258 Eh     change       -0.2439917E-04 Eh
   gradient norm :     0.0072773 Eh/α   predicted    -0.4039269E-04 (  65.55%)
   displ. norm   :     0.1887496 α      lambda       -0.8253406E-04
   maximum displ.:     0.1082993 α      in ANC's #5, #3, #6, ...

........................................................................
.............................. CYCLE   16 ..............................
........................................................................
   1    -83.7252798 -0.837253E+02  0.789E-03    1.26       0.0  T
   2    -83.7252815 -0.166757E-05  0.389E-03    1.27       4.0  T
   3    -83.7252818 -0.340420E-06  0.212E-03    1.26       7.3  T
   4    -83.7252818  0.176213E-07  0.114E-03    1.26      13.5  T
   5    -83.7252818 -0.552133E-07  0.134E-04    1.26     114.8  T
   6    -83.7252818 -0.686384E-09  0.343E-05    1.26     449.5  T
     SCC iter.                  ...        0 min,  0.021 sec
     gradient                   ...        0 min,  0.085 sec
 * total energy  :   -82.9542759 Eh     change       -0.5007572E-04 Eh
   gradient norm :     0.0046383 Eh/α   predicted    -0.4274661E-04 ( -14.64%)
   displ. norm   :     0.0820559 α      lambda       -0.5172539E-04
   maximum displ.:     0.0419163 α      in ANC's #3, #2, #1, ...

........................................................................
.............................. CYCLE   17 ..............................
........................................................................
   1    -83.7251035 -0.837251E+02  0.392E-03    1.26       0.0  T
   2    -83.7251040 -0.508743E-06  0.186E-03    1.26       8.3  T
   3    -83.7251040 -0.422137E-07  0.120E-03    1.26      12.8  T
   4    -83.7251040 -0.819860E-08  0.551E-04    1.26      28.0  T
   5    -83.7251041 -0.885761E-08  0.167E-04    1.26      92.5  T
   6    -83.7251041 -0.732285E-09  0.203E-05    1.26     761.6  T
     SCC iter.                  ...        0 min,  0.021 sec
     gradient                   ...        0 min,  0.083 sec
 * total energy  :   -82.9543170 Eh     change       -0.4110941E-04 Eh
   gradient norm :     0.0045674 Eh/α   predicted    -0.2603709E-04 ( -36.66%)
   displ. norm   :     0.2149153 α      lambda       -0.1029086E-03
   maximum displ.:     0.1093953 α      in ANC's #3, #2, #1, ...

........................................................................
.............................. CYCLE   18 ..............................
........................................................................
   1    -83.7244212 -0.837244E+02  0.102E-02    1.25       0.0  T
   2    -83.7244242 -0.302448E-05  0.477E-03    1.25       3.2  T
   3    -83.7244250 -0.784321E-06  0.323E-03    1.25       4.8  T
   4    -83.7244253 -0.273625E-06  0.118E-03    1.25      13.1  T
   5    -83.7244253 -0.111243E-09  0.365E-04    1.25      42.2  T
   6    -83.7244253 -0.272266E-08  0.463E-05    1.25     333.1  T
   7    -83.7244253 -0.509033E-10  0.159E-05    1.25     973.3  T
     SCC iter.                  ...        0 min,  0.024 sec
     gradient                   ...        0 min,  0.083 sec
 * total energy  :   -82.9543764 Eh     change       -0.5933646E-04 Eh
   gradient norm :     0.0037485 Eh/α   predicted    -0.5383669E-04 (  -9.27%)
   displ. norm   :     0.1195813 α      lambda       -0.3732046E-04
   maximum displ.:     0.0585785 α      in ANC's #3, #2, #1, ...

........................................................................
.............................. CYCLE   19 ..............................
........................................................................
   1    -83.7254362 -0.837254E+02  0.465E-03    1.24       0.0  T
   2    -83.7254368 -0.646706E-06  0.226E-03    1.24       6.8  T
   3    -83.7254369 -0.833937E-07  0.134E-03    1.24      11.5  T
   4    -83.7254370 -0.398000E-07  0.642E-04    1.24      24.0  T
   5    -83.7254370 -0.637989E-08  0.174E-04    1.24      88.6  T
   6    -83.7254370 -0.989232E-09  0.249E-05    1.24     619.5  T
     SCC iter.                  ...        0 min,  0.021 sec
     gradient                   ...        0 min,  0.083 sec
 * total energy  :   -82.9544022 Eh     change       -0.2588884E-04 Eh
   gradient norm :     0.0031142 Eh/α   predicted    -0.1893065E-04 ( -26.88%)
   displ. norm   :     0.1734115 α      lambda       -0.4009687E-04
   maximum displ.:     0.0982786 α      in ANC's #3, #1, #2, ...

........................................................................
.............................. CYCLE   20 ..............................
........................................................................
   1    -83.7255947 -0.837256E+02  0.435E-03    1.24       0.0  T
   2    -83.7255954 -0.659673E-06  0.239E-03    1.24       6.4  T
   3    -83.7255955 -0.148523E-06  0.108E-03    1.24      14.3  T
   4    -83.7255955 -0.268976E-07  0.647E-04    1.24      23.8  T
   5    -83.7255956 -0.690264E-08  0.133E-04    1.24     115.7  T
   6    -83.7255956 -0.355641E-09  0.190E-05    1.24     813.0  T
     SCC iter.                  ...        0 min,  0.020 sec
     gradient                   ...        0 min,  0.083 sec
 * total energy  :   -82.9544331 Eh     change       -0.3082214E-04 Eh
   gradient norm :     0.0021625 Eh/α   predicted    -0.2065171E-04 ( -33.00%)
   displ. norm   :     0.1758111 α      lambda       -0.5112157E-04
   maximum displ.:     0.0941951 α      in ANC's #3, #1, #2, ...
 * RMSD in coord.:     0.4658598 α      energy gain  -0.2318808E-01 Eh

generating ANC from model Hessian ...
Using Lindh-Hessian (1995)
 Shifting diagonal of input Hessian by   9.808237101559885E-003
 Lowest  eigenvalues of input Hessian
    0.000000    0.000000    0.000000    0.000000    0.000000    0.000000
    0.010000    0.010281    0.010585    0.010806    0.011645    0.012043
    0.013506    0.014049    0.015388    0.015507    0.017382    0.017658
 Highest eigenvalues
    2.055300    2.118106    2.133070    2.367040    2.434602    2.436799
 

........................................................................
.............................. CYCLE   21 ..............................
........................................................................
   1    -83.7262389 -0.837262E+02  0.426E-03    1.24       0.0  T
   2    -83.7262397 -0.722118E-06  0.206E-03    1.24       7.5  T
   3    -83.7262397 -0.514536E-07  0.103E-03    1.24      15.0  T
   4    -83.7262397  0.256952E-08  0.516E-04    1.24      29.9  T
   5    -83.7262397 -0.374774E-08  0.179E-04    1.24      86.1  T
   6    -83.7262397 -0.172166E-08  0.335E-05    1.24     461.0  T
     SCC iter.                  ...        0 min,  0.021 sec
     gradient                   ...        0 min,  0.083 sec
 * total energy  :   -82.9544688 Eh     change       -0.3571221E-04 Eh
   gradient norm :     0.0026575 Eh/α   predicted     0.0000000E+00 (-100.00%)
   displ. norm   :     0.0226137 α      lambda       -0.1149238E-04
   maximum displ.:     0.0109700 α      in ANC's #1, #8, #6, ...

........................................................................
.............................. CYCLE   22 ..............................
........................................................................
   1    -83.7261445 -0.837261E+02  0.170E-03    1.24       0.0  T
   2    -83.7261446 -0.113665E-06  0.103E-03    1.24      15.0  T
   3    -83.7261446 -0.245976E-07  0.531E-04    1.24      29.1  T
   4    -83.7261446 -0.263479E-08  0.314E-04    1.24      49.2  T
   5    -83.7261446 -0.173594E-08  0.577E-05    1.24     267.4  T
   6    -83.7261446 -0.660236E-10  0.887E-06    1.24    1740.0  T
     SCC iter.                  ...        0 min,  0.021 sec
     gradient                   ...        0 min,  0.083 sec
 * total energy  :   -82.9544830 Eh     change       -0.1427131E-04 Eh
   gradient norm :     0.0015513 Eh/α   predicted    -0.8397122E-05 ( -41.16%)
   displ. norm   :     0.1319430 α      lambda       -0.4369946E-04
   maximum displ.:     0.0641872 α      in ANC's #1, #8, #6, ...

........................................................................
.............................. CYCLE   23 ..............................
........................................................................
   1    -83.7256788 -0.837257E+02  0.726E-03    1.24       0.0  T
   2    -83.7256805 -0.175577E-05  0.452E-03    1.24       3.4  T
   3    -83.7256811 -0.606775E-06  0.224E-03    1.24       6.9  T
   4    -83.7256812 -0.608539E-07  0.115E-03    1.24      13.4  T
   5    -83.7256812 -0.199230E-07  0.261E-04    1.24      59.1  T
   6    -83.7256812 -0.109560E-08  0.322E-05    1.24     479.9  T
   7    -83.7256812 -0.136993E-10  0.120E-05    1.24    1280.9  T
     SCC iter.                  ...        0 min,  0.024 sec
     gradient                   ...        0 min,  0.083 sec
 * total energy  :   -82.9545138 Eh     change       -0.3071125E-04 Eh
   gradient norm :     0.0036497 Eh/α   predicted    -0.2201955E-04 ( -28.30%)
   displ. norm   :     0.0277119 α      lambda       -0.1259564E-04
   maximum displ.:     0.0159073 α      in ANC's #1, #2, #8, ...

........................................................................
.............................. CYCLE   24 ..............................
........................................................................
   1    -83.7257667 -0.837258E+02  0.184E-03    1.24       0.0  T
   2    -83.7257668 -0.105371E-06  0.102E-03    1.24      15.1  T
   3    -83.7257668 -0.444018E-07  0.514E-04    1.24      30.0  T
   4    -83.7257669 -0.712708E-08  0.196E-04    1.24      78.9  T
   5    -83.7257669 -0.589750E-11  0.450E-05    1.24     342.6  T
     SCC iter.                  ...        0 min,  0.017 sec
     gradient                   ...        0 min,  0.083 sec
 * total energy  :   -82.9545249 Eh     change       -0.1115924E-04 Eh
   gradient norm :     0.0026139 Eh/α   predicted    -0.6302709E-05 ( -43.52%)
   displ. norm   :     0.1128988 α      lambda       -0.3737711E-04
   maximum displ.:     0.0646520 α      in ANC's #1, #2, #18, ...

........................................................................
.............................. CYCLE   25 ..............................
........................................................................
   1    -83.7258026 -0.837258E+02  0.613E-03    1.25       0.0  T
   2    -83.7258037 -0.111016E-05  0.341E-03    1.25       4.5  T
   3    -83.7258042 -0.479882E-06  0.175E-03    1.25       8.8  T
   4    -83.7258043 -0.771313E-07  0.648E-04    1.25      23.8  T
   5    -83.7258043 -0.230173E-09  0.196E-04    1.25      78.8  T
   6    -83.7258043 -0.748400E-09  0.224E-05    1.25     689.0  T
     SCC iter.                  ...        0 min,  0.021 sec
     gradient                   ...        0 min,  0.083 sec
 * total energy  :   -82.9545480 Eh     change       -0.2310770E-04 Eh
   gradient norm :     0.0011004 Eh/α   predicted    -0.1895598E-04 ( -17.97%)
   displ. norm   :     0.0956803 α      lambda       -0.8509352E-05
   maximum displ.:     0.0576162 α      in ANC's #1, #2, #18, ...

........................................................................
.............................. CYCLE   26 ..............................
........................................................................
   1    -83.7257387 -0.837257E+02  0.347E-03    1.26       0.0  T
   2    -83.7257390 -0.279882E-06  0.205E-03    1.25       7.5  T
   3    -83.7257392 -0.191953E-06  0.101E-03    1.25      15.3  T
   4    -83.7257392 -0.233886E-07  0.355E-04    1.25      43.5  T
   5    -83.7257392 -0.190994E-09  0.117E-04    1.25     131.5  T
   6    -83.7257392 -0.255227E-09  0.129E-05    1.25    1195.3  T
     SCC iter.                  ...        0 min,  0.021 sec
     gradient                   ...        0 min,  0.090 sec
 * total energy  :   -82.9545571 Eh     change       -0.9101329E-05 Eh
   gradient norm :     0.0016740 Eh/α   predicted    -0.4272252E-05 ( -53.06%)
   displ. norm   :     0.0901280 α      lambda       -0.9559272E-05
   maximum displ.:     0.0547288 α      in ANC's #1, #2, #18, ...

........................................................................
.............................. CYCLE   27 ..............................
........................................................................
   1    -83.7258167 -0.837258E+02  0.181E-03    1.26       0.0  T
   2    -83.7258168 -0.642728E-07  0.106E-03    1.25      14.6  T
   3    -83.7258168 -0.523442E-07  0.599E-04    1.26      25.8  T
   4    -83.7258168 -0.711964E-08  0.217E-04    1.26      71.1  T
   5    -83.7258168 -0.170672E-09  0.568E-05    1.26     271.7  T
   6    -83.7258168 -0.607656E-10  0.114E-05    1.26    1349.5  T
     SCC iter.                  ...        0 min,  0.021 sec
     gradient                   ...        0 min,  0.083 sec
 * total energy  :   -82.9545692 Eh     change       -0.1208824E-04 Eh
   gradient norm :     0.0012295 Eh/α   predicted    -0.4797024E-05 ( -60.32%)
   displ. norm   :     0.1753242 α      lambda       -0.1758312E-04
   maximum displ.:     0.1044706 α      in ANC's #1, #2, #18, ...

........................................................................
.............................. CYCLE   28 ..............................
........................................................................
   1    -83.7256334 -0.837256E+02  0.226E-03    1.26       0.0  T
   2    -83.7256336 -0.123327E-06  0.109E-03    1.26      14.2  T
   3    -83.7256336 -0.139245E-07  0.858E-04    1.26      18.0  T
   4    -83.7256336 -0.158359E-07  0.293E-04    1.26      52.6  T
   5    -83.7256336 -0.611053E-09  0.866E-05    1.26     178.1  T
   6    -83.7256336 -0.111498E-09  0.185E-05    1.26     833.6  T
     SCC iter.                  ...        0 min,  0.028 sec
     gradient                   ...        0 min,  0.083 sec
 * total energy  :   -82.9545891 Eh     change       -0.1987510E-04 Eh
   gradient norm :     0.0014413 Eh/α   predicted    -0.8916539E-05 ( -55.14%)
   displ. norm   :     0.1900631 α      lambda       -0.1455324E-04
   maximum displ.:     0.1143500 α      in ANC's #1, #2, #18, ...

........................................................................
.............................. CYCLE   29 ..............................
........................................................................
   1    -83.7253653 -0.837254E+02  0.190E-03    1.26       0.0  T
   2    -83.7253654 -0.100878E-06  0.983E-04    1.26      15.7  T
   3    -83.7253654 -0.627915E-08  0.482E-04    1.26      32.0  T
   4    -83.7253655 -0.779437E-09  0.171E-04    1.26      90.4  T
   5    -83.7253655 -0.142549E-09  0.542E-05    1.26     284.7  T
     SCC iter.                  ...        0 min,  0.017 sec
     gradient                   ...        0 min,  0.083 sec
 * total energy  :   -82.9546027 Eh     change       -0.1365918E-04 Eh
   gradient norm :     0.0018237 Eh/α   predicted    -0.7396831E-05 ( -45.85%)
   displ. norm   :     0.0612606 α      lambda       -0.7246794E-05
   maximum displ.:     0.0375784 α      in ANC's #1, #2, #5, ...

........................................................................
.............................. CYCLE   30 ..............................
........................................................................
   1    -83.7258796 -0.837259E+02  0.156E-03    1.25       0.0  T
   2    -83.7258796 -0.179550E-07  0.897E-04    1.25      17.2  T
   3    -83.7258796 -0.800583E-09  0.592E-04    1.25      26.1  T
   4    -83.7258796 -0.804154E-08  0.149E-04    1.25     103.4  T
   5    -83.7258796 -0.812605E-09  0.386E-05    1.25     399.5  T
     SCC iter.                  ...        0 min,  0.017 sec
     gradient                   ...        0 min,  0.083 sec
 * total energy  :   -82.9546106 Eh     change       -0.7838370E-05 Eh
   gradient norm :     0.0010878 Eh/α   predicted    -0.3631621E-05 ( -53.67%)
   displ. norm   :     0.1112382 α      lambda       -0.9496884E-05
   maximum displ.:     0.0690703 α      in ANC's #1, #2, #5, ...

........................................................................
.............................. CYCLE   31 ..............................
........................................................................
   1    -83.7256944 -0.837257E+02  0.186E-03    1.25       0.0  T
   2    -83.7256945 -0.739931E-07  0.938E-04    1.25      16.5  T
   3    -83.7256945 -0.741606E-08  0.528E-04    1.25      29.2  T
   4    -83.7256945  0.362945E-09  0.178E-04    1.25      86.7  T
   5    -83.7256945 -0.134867E-08  0.698E-05    1.25     221.1  T
     SCC iter.                  ...        0 min,  0.017 sec
     gradient                   ...        0 min,  0.082 sec
 * total energy  :   -82.9546202 Eh     change       -0.9662123E-05 Eh
   gradient norm :     0.0006776 Eh/α   predicted    -0.4779751E-05 ( -50.53%)
   displ. norm   :     0.0615827 α      lambda       -0.6226072E-05
   maximum displ.:     0.0332135 α      in ANC's #1, #8, #15, ...

........................................................................
.............................. CYCLE   32 ..............................
........................................................................
   1    -83.7258335 -0.837258E+02  0.180E-03    1.25       0.0  T
   2    -83.7258336 -0.472526E-07  0.857E-04    1.25      18.0  T
   3    -83.7258336 -0.173512E-08  0.632E-04    1.25      24.4  T
   4    -83.7258336 -0.579625E-08  0.220E-04    1.25      70.2  T
   5    -83.7258336 -0.157739E-08  0.388E-05    1.25     397.6  T
   6    -83.7258336 -0.478622E-10  0.989E-06    1.25    1560.8  T
     SCC iter.                  ...        0 min,  0.020 sec
     gradient                   ...        0 min,  0.082 sec
 * total energy  :   -82.9546269 Eh     change       -0.6614384E-05 Eh
   gradient norm :     0.0009958 Eh/α   predicted    -0.3123583E-05 ( -52.78%)
   displ. norm   :     0.0829916 α      lambda       -0.5728415E-05
   maximum displ.:     0.0456311 α      in ANC's #1, #8, #15, ...

........................................................................
.............................. CYCLE   33 ..............................
........................................................................
   1    -83.7257132 -0.837257E+02  0.186E-03    1.24       0.0  T
   2    -83.7257133 -0.683884E-07  0.837E-04    1.24      18.4  T
   3    -83.7257133 -0.220422E-08  0.480E-04    1.24      32.1  T
   4    -83.7257133  0.223281E-09  0.183E-04    1.24      84.5  T
   5    -83.7257133 -0.138385E-08  0.533E-05    1.24     289.5  T
     SCC iter.                  ...        0 min,  0.017 sec
     gradient                   ...        0 min,  0.082 sec
 * total energy  :   -82.9546329 Eh     change       -0.6030883E-05 Eh
   gradient norm :     0.0010628 Eh/α   predicted    -0.2877850E-05 ( -52.28%)
   displ. norm   :     0.0776020 α      lambda       -0.4353022E-05
   maximum displ.:     0.0448451 α      in ANC's #8, #1, #15, ...

........................................................................
.............................. CYCLE   34 ..............................
........................................................................
   1    -83.7257342 -0.837257E+02  0.180E-03    1.24       0.0  T
   2    -83.7257343 -0.778062E-07  0.749E-04    1.24      20.6  T
   3    -83.7257343 -0.526830E-08  0.457E-04    1.24      33.8  T
   4    -83.7257343 -0.147949E-08  0.232E-04    1.24      66.6  T
   5    -83.7257343 -0.150720E-08  0.598E-05    1.24     257.9  T
   6    -83.7257343 -0.108187E-09  0.102E-05    1.24    1519.4  T
     SCC iter.                  ...        0 min,  0.021 sec
     gradient                   ...        0 min,  0.082 sec
 * total energy  :   -82.9546369 Eh     change       -0.4042635E-05 Eh
   gradient norm :     0.0007056 Eh/α   predicted    -0.2186710E-05 ( -45.91%)
   displ. norm   :     0.0474173 α      lambda       -0.2659151E-05
   maximum displ.:     0.0283374 α      in ANC's #8, #1, #18, ...

   *** GEOMETRY OPTIMIZATION CONVERGED AFTER 34 ITERATIONS ***

------------------------------------------------------------------------
 total energy gain   :        -0.0233920 Eh      -14.6787 kcal/mol
 total RMSD          :         0.5557715 a0        0.2941 Å
 total power (kW/mol):        -1.8063405 (step)  -12.2287 (real)
------------------------------------------------------------------------

 ANCopt (total)                0 d,  0 h,  0 min,  5.022 sec
 optimizer setup                ...        0 min,  0.001 sec (  0.021%)
 model hessian                  ...        0 min,  0.057 sec (  1.142%)
 ANC generation                 ...        0 min,  0.005 sec (  0.091%)
 coordinate transformation      ...        0 min,  0.001 sec (  0.023%)
 single point calculation       ...        0 min,  4.940 sec ( 98.366%)
 optimization log               ...        0 min,  0.009 sec (  0.184%)
 hessian update                 ...        0 min,  0.001 sec (  0.020%)
 rational function              ...        0 min,  0.005 sec (  0.091%)

================
 final structure:
================
42
 xtb: 6.5.1 (579679a)
C           -4.00704450225493        3.20614970950923        0.16325147304197
O           -3.50105546748884        2.06794069565796       -0.56114143676938
C           -2.76069345367481        1.21643682673061        0.09705702035194
O           -2.45254265071796        1.26985752881449        1.24884277276322
C           -2.28705920216171        0.03614094218943       -0.86757429068573
C           -2.21412118506640        0.53829140517352       -2.31153492543292
N           -1.00596887625709       -0.35208247063949       -0.38112233970667
C           -0.91552671883616       -1.34716921192553        0.44505577182928
C            0.44718675017892       -1.67431503654019        1.03138366732929
C            0.36643163117516       -1.51174930494364        2.55660038381562
C            0.82969609280527       -3.11069620187360        0.64870905120630
N            1.41477855419316       -0.73293431882496        0.47663754535006
C            2.71687319301687       -0.70925231144200        0.80339474298640
O            3.27133085052192       -1.46635062985489        1.58410124546786
C            3.42703480493999        0.38479459455262        0.08580698945525
N            2.89765222461037        1.22616913604141       -0.75098964230134
N            3.89821824771652        2.05889873672819       -1.15721004079637
C            4.97376184463933        1.67189035835374       -0.54139082397067
C            6.33020992440806        2.25500308330636       -0.63801153647708
O            4.74099942950474        0.61948242364790        0.25717209699298
N           -1.89792528805943       -2.17521165940485        0.87755128519619
C           -3.12756051264898       -2.05316629947301        0.37806021458995
O           -4.11551143925743       -2.75777539015731        0.60217672715070
C           -3.33382811060170       -0.94520049388921       -0.59937162907881
O           -4.51040559767332       -0.86003585370415       -1.10596772742648
H           -4.45633555837804        3.86049837675927       -0.57968964408042
H           -3.18756549045830        3.70893252733727        0.67930956002562
H           -4.75364161590458        2.87316324025864        0.88576184152360
H           -1.78743057060130       -0.24790319867417       -2.93088714125096
H           -3.20981352657693        0.78429667903739       -2.67218477661816
H           -1.57813430444475        1.41865858605303       -2.36091576394063
H            0.13937682307954       -0.47596587747471        2.80656696916305
H           -0.42505834714824       -2.15328086643395        2.94148679395950
H            1.31155053630626       -1.79288351835469        3.01741164417747
H            0.93016676489418       -3.19229166197082       -0.43255792099759
H            0.04842060727480       -3.79037314765561        0.98597658670804
H            1.77280703355607       -3.38680893081863        1.11707388427312
H            1.05831822301841       -0.06046477946994       -0.19247880622131
H            7.03350247123773        1.50654473266251       -1.00347340446828
H            6.66590508898107        2.58098464359361        0.34658610019641
H            6.31544261109371        3.10361036018248       -1.31772890748072
H           -5.06243328894078       -1.59183442306923       -0.71522860984391
 
 Bond Distances (Angstroems)
 ---------------------------
C1-O2=1.4409         C1-H26=1.0872        C1-H27=1.0912        C1-H28=1.0910        O2-C1=1.4409         O2-C3=1.3063         
C3-O2=1.3063         C3-O4=1.1935         C3-C5=1.5962         O4-C3=1.1935         C5-C3=1.5962         C5-C6=1.5305         
C5-N7=1.4243         C5-C24=1.4597        C6-C5=1.5305         C6-H29=1.0880        C6-H30=1.0872        C6-H31=1.0872        
N7-C5=1.4243         N7-C8=1.2965         C8-N7=1.2965         C8-C9=1.5191         C8-N21=1.3557        C9-C8=1.5191         
C9-C10=1.5360        C9-C11=1.5349        C9-N12=1.4595        C10-C9=1.5360        C10-H32=1.0894       C10-H33=1.0891       
C10-H34=1.0884       C11-C9=1.5349        C11-H35=1.0890       C11-H36=1.0891       C11-H37=1.0886       N12-C9=1.4595        
N12-C13=1.3427       N12-H38=1.0134       C13-N12=1.3427       C13-O14=1.2207       C13-C15=1.4887       O14-C13=1.2207       
C15-C13=1.4887       C15-N16=1.2994       C15-O20=1.3457       N16-C15=1.2994       N16-N17=1.3637       N17-N16=1.3637       
N17-C18=1.2984       C18-N17=1.2984       C18-C19=1.4796       C18-O20=1.3414       C19-C18=1.4796       C19-H39=1.0901       
C19-H40=1.0901       C19-H41=1.0874       O20-C15=1.3457       O20-C18=1.3414       N21-C8=1.3557        N21-C22=1.3328       
C22-N21=1.3328       C22-O23=1.2340       C22-C24=1.4918       O23-C22=1.2340       C24-C5=1.4597        C24-C22=1.4918       
C24-O25=1.2838       O25-C24=1.2838       O25-H42=0.9965       H26-C1=1.0872        H27-C1=1.0912        H28-C1=1.0910        
H29-C6=1.0880        H30-C6=1.0872        H31-C6=1.0872        H32-C10=1.0894       H33-C10=1.0891       H34-C10=1.0884       
H35-C11=1.0890       H36-C11=1.0891       H37-C11=1.0886       H38-N12=1.0134       H39-C19=1.0901       H40-C19=1.0901       
H41-C19=1.0874       H42-O25=0.9965       
 C  H  Rav=1.0889 sigma=0.0013  Rmin=1.0872  Rmax=1.0912    15
 C  C  Rav=1.5152 sigma=0.0383  Rmin=1.4597  Rmax=1.5962     9
 N  H  Rav=1.0134 sigma=0.0000  Rmin=1.0134  Rmax=1.0134     1
 N  C  Rav=1.3512 sigma=0.0570  Rmin=1.2965  Rmax=1.4595     8
 N  N  Rav=1.3637 sigma=0.0000  Rmin=1.3637  Rmax=1.3637     1
 O  H  Rav=0.9965 sigma=0.0000  Rmin=0.9965  Rmax=0.9965     1
 O  C  Rav=1.2958 sigma=0.0757  Rmin=1.1935  Rmax=1.4409     8
 
 selected bond angles (degree)
 --------------------
H26-C1-O2=106.08               H27-C1-O2=109.76               H27-C1-H26=110.87              H28-C1-O2=109.40               
H28-C1-H26=110.70              H28-C1-H27=109.96              C3-O2-C1=117.43                O4-C3-O2=127.11                
C5-C3-O2=110.22                C5-C3-O4=122.66                C6-C5-C3=109.98                N7-C5-C3=105.19                
N7-C5-C6=111.64                C24-C5-C3= 99.98               C24-C5-C6=115.35               C24-C5-N7=113.52               
H29-C6-C5=108.58               H30-C6-C5=110.09               H30-C6-H29=109.50              H31-C6-C5=109.66               
H31-C6-H29=109.26              H31-C6-H30=109.72              C8-N7-C5=119.31                C9-C8-N7=118.28                
N21-C8-N7=128.43               N21-C8-C9=113.29               C10-C9-C8=108.26               C11-C9-C8=109.20               
C11-C9-C10=111.08              N12-C9-C8=108.00               N12-C9-C10=110.12              N12-C9-C11=110.10              
H32-C10-C9=109.84              H33-C10-C9=109.07              H33-C10-H32=109.12             H34-C10-C9=110.33              
H34-C10-H32=109.23             H34-C10-H33=109.23             
 
 selected dihedral angles (degree)
 ---------------------------------
C3-O2-C1-H26=171.40           C3-O2-C1-H27= 51.57           C3-O2-C1-H28=290.83           O4-C3-O2-C1=  0.25            
C5-C3-O2-C1=180.42            C6-C5-C3-O2= 27.77            C6-C5-C3-O4=207.92            N7-C5-C3-O2=148.12            
N7-C5-C3-O4=328.28            C24-C5-C3-O2=266.00           C24-C5-C3-O4= 86.16           H29-C6-C5-C3=173.92           
H29-C6-C5-N7= 57.54           H29-C6-C5-C24=286.02          H30-C6-C5-C3=293.79           H30-C6-C5-N7=177.41           
H30-C6-C5-C24= 45.89          H31-C6-C5-C3= 54.60           H31-C6-C5-N7=298.23           H31-C6-C5-C24=166.70          
C8-N7-C5-C3= 95.10            C8-N7-C5-C6=214.35            C8-N7-C5-C24=346.80           C9-C8-N7-C5=184.59            
N21-C8-N7-C5=  4.81           C10-C9-C8-N7=118.53           C10-C9-C8-N21=298.34          C11-C9-C8-N7=239.59           
C11-C9-C8-N21= 59.41          N12-C9-C8-N7=359.31           N12-C9-C8-N21=179.13          H32-C10-C9-C8=297.28          
H32-C10-C9-C11=177.40         H32-C10-C9-N12= 55.16         H33-C10-C9-C8= 56.83          H33-C10-C9-C11=296.94         
H33-C10-C9-N12=174.70         H34-C10-C9-C8=176.81          H34-C10-C9-C11= 56.92         H34-C10-C9-N12=294.68         
           -------------------------------------------------
          |                Final Singlepoint                |
           -------------------------------------------------

          ...................................................
          :                      SETUP                      :
          :.................................................:
          :  # basis functions                 134          :
          :  # atomic orbitals                 134          :
          :  # shells                           84          :
          :  # electrons                       134          :
          :  # halogen bonds                     0          :
          :  max. iterations                   250          :
          :  Hamiltonian                  GFN1-xTB          :
          :  restarted?                      false          :
          :  GBSA solvation                   true          :
          :  PC potential                    false          :
          :  electronic temp.          300.0000000     K    :
          :  accuracy                    1.0000000          :
          :  -> integral cutoff          0.2500000E+02      :
          :  -> integral neglect         0.1000000E-07      :
          :  -> SCF convergence          0.1000000E-05 Eh   :
          :  -> wf. convergence          0.2000000E-04 e    :
          :  Broyden damping             0.4000000          :
          ...................................................

 iter      E             dE          RMSdq      gap      omega  full diag
   1    -83.7257343 -0.837257E+02  0.330E-06    1.24       0.0  T
   2    -83.7257343 -0.270006E-12  0.174E-06    1.24    8879.3  T
   3    -83.7257343 -0.284217E-13  0.635E-07    1.24   24304.6  T

   *** convergence criteria satisfied after 3 iterations ***

         #    Occupation            Energy/Eh            Energy/eV
      -------------------------------------------------------------
         1        2.0000           -0.8769933             -23.8642
       ...           ...                  ...                  ...
        61        2.0000           -0.4632322             -12.6052
        62        2.0000           -0.4572329             -12.4419
        63        2.0000           -0.4545757             -12.3696
        64        2.0000           -0.4481342             -12.1944
        65        2.0000           -0.4412083             -12.0059
        66        2.0000           -0.4334319             -11.7943
        67        2.0000           -0.4258777             -11.5887 (HOMO)
        68                         -0.3803081             -10.3487 (LUMO)
        69                         -0.3063444              -8.3361
        70                         -0.2957596              -8.0480
        71                         -0.2719096              -7.3990
        72                         -0.2555757              -6.9546
       ...                                ...                  ...
       134                          0.7310628              19.8932
      -------------------------------------------------------------
                  HL-Gap            0.0455696 Eh            1.2400 eV
             Fermi-level           -0.4030927 Eh          -10.9687 eV

 SCC (total)                   0 d,  0 h,  0 min,  0.131 sec
 SCC setup                      ...        0 min,  0.002 sec (  1.359%)
 Dispersion                     ...        0 min,  0.000 sec (  0.248%)
 classical contributions        ...        0 min,  0.000 sec (  0.079%)
 integral evaluation            ...        0 min,  0.035 sec ( 26.993%)
 iterations                     ...        0 min,  0.011 sec (  8.247%)
 molecular gradient             ...        0 min,  0.082 sec ( 62.460%)
 printout                       ...        0 min,  0.001 sec (  0.588%)

         :::::::::::::::::::::::::::::::::::::::::::::::::::::
         ::                     SUMMARY                     ::
         :::::::::::::::::::::::::::::::::::::::::::::::::::::
         :: total energy             -82.954636936668 Eh    ::
         :: total w/o Gsasa/hb       -82.930843648521 Eh    ::
         :: gradient norm              0.000706319028 Eh/a0 ::
         :: HOMO-LUMO gap              1.240011827985 eV    ::
         ::.................................................::
         :: SCC energy               -83.725734332747 Eh    ::
         :: -> electrostatic           0.359193644852 Eh    ::
         :: -> Gsolv                  -0.053352245205 Eh    ::
         ::    -> Gelec               -0.029558957058 Eh    ::
         ::    -> Gsasa               -0.024212789439 Eh    ::
         ::    -> Ghb                 -0.007204777712 Eh    ::
         ::    -> Gshift               0.007624279005 Eh    ::
         :: repulsion energy           0.797459425858 Eh    ::
         :: dispersion energy         -0.026362029779 Eh    ::
         :: halogen bond corr.         0.000000000000 Eh    ::
         :: add. restraining           0.000000000000 Eh    ::
         :: total charge               0.000000000000 e     ::
         :::::::::::::::::::::::::::::::::::::::::::::::::::::

           -------------------------------------------------
          |                Property Printout                |
           -------------------------------------------------

    * Orbital Energies and Occupations

         #    Occupation            Energy/Eh            Energy/eV
      -------------------------------------------------------------
         1        2.0000           -0.8769933             -23.8642
       ...           ...                  ...                  ...
        55        2.0000           -0.5038050             -13.7092
        56        2.0000           -0.5001103             -13.6087
        57        2.0000           -0.4972347             -13.5304
        58        2.0000           -0.4871801             -13.2568
        59        2.0000           -0.4853462             -13.2069
        60        2.0000           -0.4805164             -13.0755
        61        2.0000           -0.4632322             -12.6052
        62        2.0000           -0.4572329             -12.4419
        63        2.0000           -0.4545757             -12.3696
        64        2.0000           -0.4481342             -12.1944
        65        2.0000           -0.4412083             -12.0059
        66        2.0000           -0.4334319             -11.7943
        67        2.0000           -0.4258777             -11.5887 (HOMO)
        68                         -0.3803081             -10.3487 (LUMO)
        69                         -0.3063444              -8.3361
        70                         -0.2957596              -8.0480
        71                         -0.2719096              -7.3990
        72                         -0.2555757              -6.9546
        73                         -0.1991361              -5.4188
        74                         -0.1942467              -5.2857
        75                         -0.1536849              -4.1820
        76                         -0.1422098              -3.8697
        77                         -0.1356190              -3.6904
        78                         -0.1204373              -3.2773
       ...                                ...                  ...
       134                          0.7310628              19.8932
      -------------------------------------------------------------
                  HL-Gap            0.0455696 Eh            1.2400 eV
             Fermi-level           -0.4030927 Eh          -10.9687 eV

  Mulliken/CM5 charges         n(s)   n(p)   n(d)
     1C     0.15834  0.03639   0.990  2.851  0.000
     2O    -0.38869 -0.48046   1.680  4.708  0.000
     3C     0.61073  0.67981   0.967  2.422  0.000
     4O    -0.50232 -0.54799   1.716  4.786  0.000
     5C     0.13479  0.19224   1.061  2.804  0.000
     6C    -0.08415 -0.22195   1.018  3.066  0.000
     7N    -0.41766 -0.60715   1.545  3.873  0.000
     8C     0.30662  0.46211   1.025  2.669  0.000
     9C     0.15807  0.20098   1.061  2.781  0.000
    10C    -0.09725 -0.23570   1.018  3.080  0.000
    11C    -0.10038 -0.23891   1.018  3.082  0.000
    12N    -0.33612 -0.68515   1.429  3.907  0.000
    13C     0.46569  0.57567   0.973  2.561  0.000
    14O    -0.57987 -0.62473   1.727  4.853  0.000
    15C     0.33283  0.45854   1.010  2.657  0.000
    16N    -0.24666 -0.35680   1.569  3.678  0.000
    17N    -0.26764 -0.37513   1.565  3.702  0.000
    18C     0.38718  0.49568   1.007  2.606  0.000
    19C    -0.11114 -0.24845   1.012  3.099  0.000
    20O    -0.34025 -0.39174   1.692  4.649  0.000
    21N    -0.42063 -0.59924   1.539  3.881  0.000
    22C     0.44856  0.56053   0.974  2.577  0.000
    23O    -0.60652 -0.65325   1.732  4.874  0.000
    24C     0.32125  0.35669   1.101  2.578  0.000
    25O    -0.42561 -0.61694   1.701  4.724  0.000
    26H     0.07289  0.13327   0.927  0.000  0.000
    27H     0.06803  0.13015   0.932  0.000  0.000
    28H     0.06853  0.12937   0.931  0.000  0.000
    29H     0.06726  0.12343   0.933  0.000  0.000
    30H     0.06478  0.12511   0.935  0.000  0.000
    31H     0.06496  0.12277   0.935  0.000  0.000
    32H     0.04126  0.09855   0.959  0.000  0.000
    33H     0.04386  0.10205   0.956  0.000  0.000
    34H     0.05431  0.11403   0.946  0.000  0.000
    35H     0.04009  0.09698   0.960  0.000  0.000
    36H     0.04464  0.10280   0.955  0.000  0.000
    37H     0.05506  0.11444   0.945  0.000  0.000
    38H     0.24434  0.46023   0.756  0.000  0.000
    39H     0.07792  0.13234   0.922  0.000  0.000
    40H     0.07778  0.13227   0.922  0.000  0.000
    41H     0.06831  0.12412   0.932  0.000  0.000
    42H     0.44678  0.62305   0.553  0.000  0.000

Wiberg/Mayer (AO) data.
largest (>0.10) Wiberg bond orders for each atom

 ---------------------------------------------------------------------------
     #   Z sym  total        # sym  WBO       # sym  WBO       # sym  WBO
 ---------------------------------------------------------------------------
     1   6 C    3.839 --    26 H    0.983    27 H    0.980    28 H    0.979
                             2 O    0.860
     2   8 O    2.241 --     3 C    1.177     1 C    0.860     4 O    0.142
     3   6 C    3.851 --     4 O    1.727     2 O    1.177     5 C    0.770
     4   8 O    2.021 --     3 C    1.727     2 O    0.142
     5   6 C    3.968 --    24 C    1.057     7 N    1.022     6 C    0.957
                             3 C    0.770
     6   6 C    3.979 --    31 H    0.984    30 H    0.983    29 H    0.981
                             5 C    0.957
     7   7 N    3.018 --     8 C    1.592     5 C    1.022
     8   6 C    3.943 --     7 N    1.592    21 N    1.244     9 C    0.980
     9   6 C    3.935 --     8 C    0.980    11 C    0.980    10 C    0.978
                            12 N    0.929
    10   6 C    3.991 --    32 H    0.986    33 H    0.984    34 H    0.981
                             9 C    0.978
    11   6 C    3.990 --    35 H    0.986    36 H    0.983    37 H    0.981
                             9 C    0.980
    12   7 N    3.365 --    13 C    1.275     9 C    0.929    38 H    0.880
                            14 O    0.183
    13   6 C    3.921 --    14 O    1.579    12 N    1.275    15 C    0.985
    14   8 O    1.898 --    13 C    1.579    12 N    0.183
    15   6 C    3.873 --    16 N    1.614    20 O    1.064    13 C    0.985
    16   7 N    3.012 --    15 C    1.614    17 N    1.196
    17   7 N    2.980 --    18 C    1.609    16 N    1.196
    18   6 C    3.872 --    17 N    1.609    20 O    1.082    19 C    1.031
    19   6 C    3.987 --    18 C    1.031    41 H    0.983    40 H    0.964
                            39 H    0.963
    20   8 O    2.328 --    18 C    1.082    15 C    1.064
    21   7 N    3.010 --    22 C    1.312     8 C    1.244    23 O    0.163
                            24 C    0.114
    22   6 C    3.935 --    23 O    1.512    21 N    1.312    24 C    0.989
    23   8 O    1.884 --    22 C    1.512    21 N    0.163
    24   6 C    3.784 --    25 O    1.329     5 C    1.057    22 C    0.989
                            21 N    0.114
    25   8 O    2.252 --    24 C    1.329    42 H    0.746
    26   1 H    1.005 --     1 C    0.983
    27   1 H    1.002 --     1 C    0.980
    28   1 H    1.001 --     1 C    0.979
    29   1 H    0.999 --     6 C    0.981
    30   1 H    1.003 --     6 C    0.983
    31   1 H    1.001 --     6 C    0.984
    32   1 H    1.003 --    10 C    0.986
    33   1 H    1.010 --    10 C    0.984
    34   1 H    1.010 --    10 C    0.981
    35   1 H    1.003 --    11 C    0.986
    36   1 H    1.010 --    11 C    0.983
    37   1 H    1.009 --    11 C    0.981
    38   1 H    0.972 --    12 N    0.880
    39   1 H    0.997 --    19 C    0.963
    40   1 H    0.997 --    19 C    0.964
    41   1 H    0.999 --    19 C    0.983
    42   1 H    0.821 --    25 O    0.746
 ---------------------------------------------------------------------------

Topologies differ in total number of bonds
Writing topology from bond orders to xtbtopo.mol

 dipole moment from electron density (au)
     X       Y       Z   
  -1.5011   3.0612  -2.5230  total (Debye):   10.781

           -------------------------------------------------
          |                Geometry Summary                 |
           -------------------------------------------------

      molecular mass/u    :      351.3152409
   center of mass at/Å    :       -0.0699379      -0.1111472       0.0993805
  moments of inertia/u·Å² :        0.1362987E+04   0.4088387E+04   0.4916575E+04
rotational constants/cm⁻¹ :        0.1236816E-01   0.4123297E-02   0.3428735E-02

 * 38 selected distances

     #   Z          #   Z                                           value/Å
     1   6 C        2   8 O                                       1.4409338
     2   8 O        3   6 C                                       1.3063002
     3   6 C        4   8 O                                       1.1934913
     5   6 C        6   6 C                                       1.5305221
     5   6 C        7   7 N                                       1.4242702
     7   7 N        8   6 C                                       1.2965138
     9   6 C       10   6 C                                       1.5359803 (max)
     9   6 C       11   6 C                                       1.5349086
     9   6 C       12   7 N                                       1.4595120
    12   7 N       13   6 C                                       1.3426771
    13   6 C       14   8 O                                       1.2207064
    15   6 C       16   7 N                                       1.2993791
    17   7 N       18   6 C                                       1.2983848
    18   6 C       19   6 C                                       1.4796310
    15   6 C       20   8 O                                       1.3457146
    18   6 C       20   8 O                                       1.3414335
     8   6 C       21   7 N                                       1.3556600
    21   7 N       22   6 C                                       1.3328126
    22   6 C       23   8 O                                       1.2339974
     5   6 C       24   6 C                                       1.4596881
    24   6 C       25   8 O                                       1.2838331
     1   6 C       26   1 H                                       1.0871966
     1   6 C       27   1 H                                       1.0911703
     1   6 C       28   1 H                                       1.0910127
     6   6 C       29   1 H                                       1.0880093
     6   6 C       30   1 H                                       1.0871938
     6   6 C       31   1 H                                       1.0871818
    10   6 C       32   1 H                                       1.0894424
    10   6 C       33   1 H                                       1.0891083
    10   6 C       34   1 H                                       1.0884087
    11   6 C       35   1 H                                       1.0889861
    11   6 C       36   1 H                                       1.0890830
    11   6 C       37   1 H                                       1.0886057
    12   7 N       38   1 H                                       1.0134082
    19   6 C       39   1 H                                       1.0901252
    19   6 C       40   1 H                                       1.0901321
    19   6 C       41   1 H                                       1.0873676
    25   8 O       42   1 H                                       0.9964642 (min)

 * 6 distinct bonds (by element types)

   Z      Z             #   av. dist./Å        max./Å        min./Å
   1 H    6 C          15     1.0888682     1.0911703     1.0871818
   6 C    6 C           5     1.5081460     1.5359803     1.4596881
   1 H    7 N           1     1.0134082     1.0134082     1.0134082
   6 C    7 N           8     1.3511512     1.4595120     1.2965138
   1 H    8 O           1     0.9964642     0.9964642     0.9964642
   6 C    8 O           8     1.2958013     1.4409338     1.1934913


optimized geometry written to: xtbopt.xyz


           -------------------------------------------------
          | TOTAL ENERGY              -82.954636936668 Eh   |
          | GRADIENT NORM               0.000706319028 Eh/α |
          | HOMO-LUMO GAP               1.240011827985 eV   |
           -------------------------------------------------

------------------------------------------------------------------------
 * finished run on 2023/06/20 at 18:18:10.062     
------------------------------------------------------------------------
 total:
 * wall-time:     0 d,  0 h,  0 min,  5.479 sec
 *  cpu-time:     0 d,  0 h,  0 min,  5.300 sec
 * ratio c/w:     0.967 speedup
 SCF:
 * wall-time:     0 d,  0 h,  0 min,  0.169 sec
 *  cpu-time:     0 d,  0 h,  0 min,  0.169 sec
 * ratio c/w:     1.000 speedup
 ANC optimizer:
 * wall-time:     0 d,  0 h,  0 min,  5.172 sec
 *  cpu-time:     0 d,  0 h,  0 min,  5.080 sec
 * ratio c/w:     0.982 speedup

