42
 energy: -82.954636936668 gnorm: 0.000706319028 xtb: 6.5.1 (579679a)
C           -4.00704450225493        3.20614970950923        0.16325147304197
O           -3.50105546748884        2.06794069565796       -0.56114143676938
C           -2.76069345367481        1.21643682673061        0.09705702035194
O           -2.45254265071796        1.26985752881449        1.24884277276322
C           -2.28705920216171        0.03614094218943       -0.86757429068573
C           -2.21412118506640        0.53829140517352       -2.31153492543292
N           -1.00596887625709       -0.35208247063949       -0.38112233970667
C           -0.91552671883616       -1.34716921192553        0.44505577182928
C            0.44718675017892       -1.67431503654019        1.03138366732929
C            0.36643163117516       -1.51174930494364        2.55660038381562
C            0.82969609280527       -3.11069620187360        0.64870905120630
N            1.41477855419316       -0.73293431882496        0.47663754535006
C            2.71687319301687       -0.70925231144200        0.80339474298640
O            3.27133085052192       -1.46635062985489        1.58410124546786
C            3.42703480493999        0.38479459455262        0.08580698945525
N            2.89765222461037        1.22616913604141       -0.75098964230134
N            3.89821824771652        2.05889873672819       -1.15721004079637
C            4.97376184463933        1.67189035835374       -0.54139082397067
C            6.33020992440806        2.25500308330636       -0.63801153647708
O            4.74099942950474        0.61948242364790        0.25717209699298
N           -1.89792528805943       -2.17521165940485        0.87755128519619
C           -3.12756051264898       -2.05316629947301        0.37806021458995
O           -4.11551143925743       -2.75777539015731        0.60217672715070
C           -3.33382811060170       -0.94520049388921       -0.59937162907881
O           -4.51040559767332       -0.86003585370415       -1.10596772742648
H           -4.45633555837804        3.86049837675927       -0.57968964408042
H           -3.18756549045830        3.70893252733727        0.67930956002562
H           -4.75364161590458        2.87316324025864        0.88576184152360
H           -1.78743057060130       -0.24790319867417       -2.93088714125096
H           -3.20981352657693        0.78429667903739       -2.67218477661816
H           -1.57813430444475        1.41865858605303       -2.36091576394063
H            0.13937682307954       -0.47596587747471        2.80656696916305
H           -0.42505834714824       -2.15328086643395        2.94148679395950
H            1.31155053630626       -1.79288351835469        3.01741164417747
H            0.93016676489418       -3.19229166197082       -0.43255792099759
H            0.04842060727480       -3.79037314765561        0.98597658670804
H            1.77280703355607       -3.38680893081863        1.11707388427312
H            1.05831822301841       -0.06046477946994       -0.19247880622131
H            7.03350247123773        1.50654473266251       -1.00347340446828
H            6.66590508898107        2.58098464359361        0.34658610019641
H            6.31544261109371        3.10361036018248       -1.31772890748072
H           -5.06243328894078       -1.59183442306923       -0.71522860984391
