47
 energy: -79.484302893543 gnorm: 0.000303689224 xtb: 6.5.1 (579679a)
C           -3.99009802114770        1.58312827634339       -2.12522910001981
N           -2.81968613712378        0.97573321223204       -1.48291508735768
C           -2.89434096845672        0.17434756761842       -0.37144403389891
C           -4.21600582206237       -0.17732052746350        0.29913769219297
C           -4.84781705656011       -1.35667579325315       -0.45615471402759
C           -3.94331940650105       -0.59123739535548        1.75614918996751
N           -5.12645941142224        0.95924162901524        0.27794211805972
N           -1.84016927137241       -0.37516423970367        0.14807694141086
C           -0.59512887622417       -0.17310458362868       -0.37075798097309
C            0.50068447636889       -0.85492414549073        0.36852895812250
O            0.37542274865711       -1.30976481500502        1.48907205851387
N            1.68881380355450       -0.95905406472745       -0.31993020327030
C            2.84927662608621       -1.45121648121597        0.31255941201852
C            3.74294557159887       -0.22938888049161        0.92974028375817
C            2.83637455572976        0.52344548380604        1.92306226350506
C            4.86424829258149       -0.89592459866013        1.60206621508438
C            6.13265560696246       -0.87598308006209        1.09888236929255
C            6.38367039671680       -0.13204184433749       -0.06060765875769
F            7.60173095308772       -0.11320366477028       -0.53682530348588
C            5.39627102122074        0.60909140445167       -0.72164756741993
C            4.12592982775733        0.59185613609878       -0.22486176665407
C           -0.44447005360527        0.65900914446224       -1.44257755819102
O            0.73977507050991        0.97398345139690       -2.00286348657063
C           -1.60163890417728        1.29155682317045       -2.05182537213328
O           -1.48273871063162        2.04144389936667       -3.01651786841125
H           -4.81032180912125        0.87312938196051       -2.15319592964124
H           -3.70887623952154        1.86594582977993       -3.13938202792005
H           -4.29495504633297        2.46721062325066       -1.56761626396636
H           -4.14991873901668       -2.19275195332158       -0.48447943750049
H           -5.10167714838633       -1.07610125143241       -1.47689901365735
H           -5.75631803679222       -1.67234457634994        0.05478498792593
H           -3.42812543472413        0.21149745578650        2.28145130469694
H           -3.32309304558747       -1.48599605084934        1.78775566087356
H           -4.88897485689095       -0.79310239205933        2.25615836486970
H           -6.04425426029588        0.66265961075131        0.57952166153635
H           -4.80015876954528        1.67023985786178        0.91849275358775
H            1.78294024051900       -0.55428870837246       -1.23755134564087
H            3.47938160521988       -1.98230259576497       -0.39722281334650
H            2.57120715480504       -2.08623883535655        1.15537326782094
H            2.01291394653516        0.98808816548734        1.38528692966794
H            2.44040851329376       -0.16604339147516        2.66658913120522
H            3.42041004242072        1.29613887123872        2.41872926141088
H            4.64669972105630       -1.44599045383947        2.51058914565136
H            6.94820359821105       -1.39746320128814        1.58458892558317
H            5.66052799770239        1.19069574562014       -1.59601434043452
H            3.33907788555091        1.15850270023935       -0.71061264880236
H            0.56897536936218        1.58068325434146       -2.75227837466854
