42
 energy: -82.940512320733 gnorm: 0.000597175088 xtb: 6.5.1 (579679a)
C            6.28118639886605        1.11912168377293       -0.35086307928919
O            4.97245436359704        0.55354357722679       -0.26618826729663
C            4.72094519303896       -0.47836396067331       -1.08794692955761
O            5.55010653215193       -0.91438704453321       -1.85501629728927
C            3.33646473373208       -0.98752816138467       -0.92990927591097
N            2.57568888377269       -0.34952696589175       -0.01577039403879
C            1.34475194259991       -0.71232638385460        0.19912140880806
C            0.54535346460466       -0.01486630321324        1.27275262767760
C            1.13329504651095        1.37050744163341        1.55908903054565
C            0.57981392681194       -0.90499872839276        2.52733958830271
N           -0.83567648766721        0.12493911311146        0.79656781535405
C           -1.82468149827744        0.64176116314773        1.55737657206665
O           -1.73417091217311        0.97831925784960        2.72475414316960
C           -3.09955075531122        0.76894635807278        0.80665872149917
N           -4.23338012572864        1.29515357518399        1.29626030367152
N           -5.12609190708757        1.26895736613209        0.37660304127829
C           -4.56590642912783        0.68758074999648       -0.81410187508571
C           -4.57365042434054        1.69925236097525       -1.96240383359761
C           -5.30199767745393       -0.60702970554986       -1.16814904721271
O           -3.21570413831222        0.38748365344251       -0.44447846310766
N            0.77637606237036       -1.75980849190182       -0.45426038314323
C            1.42071055597364       -2.51167140757415       -1.42602075772152
O            0.83954286125530       -3.42779911858847       -1.97099979807973
C            2.85068735845940       -2.09645581867188       -1.71210099383883
O            3.49871937345806       -2.70672837410842       -2.55760910572293
H            7.03451691209496        0.37182151607634       -0.08807801210132
H            6.31030111141925        1.94638924505041        0.35519891324384
H            6.47165303284552        1.48089346136000       -1.36476221385398
H            2.17622562907922        1.26373522111744        1.85292471480685
H            1.07904903128258        1.98811653714908        0.66439025156316
H            0.57939642176132        1.85111548812530        2.36282147393870
H            0.07696221340918       -1.84844473603024        2.32440780865876
H            0.08608813747163       -0.40559085673980        3.35789606110155
H            1.61631374568061       -1.10229287392192        2.79640982873309
H           -1.02570269019291       -0.02321510811527       -0.18077829217832
H           -4.04303617931279        2.59822354078569       -1.65601050539347
H           -5.60234935373109        1.94761511581600       -2.21122111556627
H           -4.08014912619207        1.26265231205026       -2.82733896839664
H           -5.24042421993447       -1.29622815638542       -0.32863468995937
H           -6.34354778138922       -0.37769046739769       -1.37941457470853
H           -4.83792631226047       -1.05524922238742       -2.04305127386358
H           -0.17265591375515       -2.02592685275928       -0.24730115750405
