42
 energy: -82.995804796833 gnorm: 0.000865567009 xtb: 6.5.1 (579679a)
C           -2.81860155527652        3.79970490358849        0.81129149229825
O           -2.45863335720968        2.44972282868134        0.48678957642383
C           -3.39706951343640        1.52268019640196        0.67873119688654
O           -4.50135695791844        1.77142906565812        1.09224822385490
C           -2.95588154883406        0.15192421944794        0.25777602917348
C           -3.79622342604483       -0.65975101757659       -0.43909601531646
O           -5.05274025131228       -0.32349698305858       -0.75270371979764
C           -3.33633872916679       -1.96324396998143       -0.94006848946768
O           -4.11402225642489       -2.69844035525003       -1.53819667679549
N           -2.02017221149112       -2.25732296361267       -0.71604375425101
C           -1.24190199870924       -1.46991460705082       -0.02758270698975
C            0.18404628101932       -1.99026771067169        0.13758610494109
C            0.29669459793253       -2.73403789163400        1.47741358869046
C            0.51070021965938       -2.95881385309387       -1.01047348508847
N            1.11271032332036       -0.86090722013370        0.04933680715895
C            2.44245168654981       -0.95547664150942        0.29122384548341
O            3.01729845136609       -1.91657076225243        0.76435512207475
C            3.11926852157572        0.31421289847535       -0.07863354405284
N            2.54214335093100        1.36775576463289       -0.57536034825859
N            3.52035847914287        2.29369079557432       -0.77556162348679
C            4.63332920155943        1.74515374393675       -0.38992207360493
C            5.98904351720616        2.33685296713608       -0.41209247874558
O            4.44422610500041        0.49574887050027        0.05999682234265
N           -1.66259622806340       -0.30200415453775        0.51759820981026
C           -0.86081554296082        0.47603349912103        1.46584271637539
H           -3.09351924211754        3.86800826726759        1.86587514248583
H           -3.65992794037609        4.12049473777192        0.19300288690330
H           -1.94157322596683        4.40938012335618        0.60693719109696
H           -5.43984670789675       -1.05988878939304       -1.26648662601977
H           -0.52342550398933       -3.44706716906882        1.55052932145693
H            1.23886323294071       -3.27583005944244        1.52735373854815
H            0.24405191080996       -2.05127543184061        2.32193179239638
H           -0.15912384994438       -3.81590313911588       -0.97677268921736
H            1.53828024326666       -3.30276147014656       -0.90686496716348
H            0.39578831944484       -2.45597002550143       -1.96897760714265
H            0.81346045059432       -0.06903807874748       -0.50104622761563
H            5.92946589423192        3.37834225190456       -0.71908320291496
H            6.44137548249908        2.26944864555113        0.57715078066883
H            6.62154632411979        1.78810681905416       -1.11126920143489
H           -0.12604700566656       -0.16219251362043        1.94257115953274
H           -0.35366716510720        1.28873577268257        0.94810795185628
H           -1.52161537525921        0.88274943650530        2.22841373690429
