      -----------------------------------------------------------      
     |                   =====================                   |     
     |                           x T B                           |     
     |                   =====================                   |     
     |                         S. Grimme                         |     
     |          Mulliken Center for Theoretical Chemistry        |     
     |                    University of Bonn                     |     
      -----------------------------------------------------------      

   * xtb version 6.5.1 (579679a) compiled by 'ehlert@majestix' on 2022-07-11

   xtb is free software: you can redistribute it and/or modify it under
   the terms of the GNU Lesser General Public License as published by
   the Free Software Foundation, either version 3 of the License, or
   (at your option) any later version.
   
   xtb is distributed in the hope that it will be useful,
   but WITHOUT ANY WARRANTY; without even the implied warranty of
   MERCHANTABILITY or FITNESS FOR A PARTICULAR PURPOSE.  See the
   GNU Lesser General Public License for more details.
   
   Cite this work as:
   * C. Bannwarth, E. Caldeweyher, S. Ehlert, A. Hansen, P. Pracht,
     J. Seibert, S. Spicher, S. Grimme, WIREs Comput. Mol. Sci., 2020, 11,
     e01493. DOI: 10.1002/wcms.1493
   
   for GFN2-xTB:
   * C. Bannwarth, S. Ehlert and S. Grimme., J. Chem. Theory Comput., 2019,
     15, 1652-1671. DOI: 10.1021/acs.jctc.8b01176
   for GFN1-xTB:
   * S. Grimme, C. Bannwarth, P. Shushkov, J. Chem. Theory Comput., 2017,
     13, 1989-2009. DOI: 10.1021/acs.jctc.7b00118
   for GFN0-xTB:
   * P. Pracht, E. Caldeweyher, S. Ehlert, S. Grimme, ChemRxiv, 2019, preprint.
     DOI: 10.26434/chemrxiv.8326202.v1
   for GFN-FF:
   * S. Spicher and S. Grimme, Angew. Chem. Int. Ed., 2020, 59, 15665-15673.
     DOI: 10.1002/anie.202004239
   
   for ALPB and GBSA implicit solvation:
   * S. Ehlert, M. Stahn, S. Spicher, S. Grimme, J. Chem. Theory Comput.,
     2021, 17, 4250-4261. DOI: 10.1021/acs.jctc.1c00471
   
   for DFT-D4:
   * E. Caldeweyher, C. Bannwarth and S. Grimme, J. Chem. Phys., 2017,
     147, 034112. DOI: 10.1063/1.4993215
   * E. Caldeweyher, S. Ehlert, A. Hansen, H. Neugebauer, S. Spicher,
     C. Bannwarth and S. Grimme, J. Chem. Phys., 2019, 150, 154122.
     DOI: 10.1063/1.5090222
   * E. Caldeweyher, J.-M. Mewes, S. Ehlert and S. Grimme, Phys. Chem. Chem. Phys.
     2020, 22, 8499-8512. DOI: 10.1039/D0CP00502A
   
   for sTDA-xTB:
   * S. Grimme and C. Bannwarth, J. Chem. Phys., 2016, 145, 054103.
     DOI: 10.1063/1.4959605
   
   in the mass-spec context:
   * V. Asgeirsson, C. Bauer and S. Grimme, Chem. Sci., 2017, 8, 4879.
     DOI: 10.1039/c7sc00601b
   * J. Koopman and S. Grimme, ACS Omega 2019, 4, 12, 15120-15133.
     DOI: 10.1021/acsomega.9b02011
   
   for metadynamics refer to:
   * S. Grimme, J. Chem. Theory Comput., 2019, 155, 2847-2862
     DOI: 10.1021/acs.jctc.9b00143
   
   for SPH calculations refer to:
   * S. Spicher and S. Grimme, J. Chem. Theory Comput., 2021, 17, 1701-1714
     DOI: 10.1021/acs.jctc.0c01306
   
   with help from (in alphabetical order)
   P. Atkinson, C. Bannwarth, F. Bohle, G. Brandenburg, E. Caldeweyher
   M. Checinski, S. Dohm, S. Ehlert, S. Ehrlich, I. Gerasimov, C. Hölzer
   A. Katbashev, J. Koopman, C. Lavigne, S. Lehtola, F. März, M. Müller,
   F. Musil, H. Neugebauer, J. Pisarek, C. Plett, P. Pracht, F. Pultar,
   J. Seibert, P. Shushkov, S. Spicher, M. Stahn, M. Steiner, T. Strunk,
   J. Stückrath, T. Rose, and J. Unsleber
   
 * started run on 2023/06/20 at 15:14:34.510     

           -------------------------------------------------
          |                Calculation Setup                |
           -------------------------------------------------

          program call               : /lustre/hpc/kemi/ree/PhD/git/ReactivityQM/dep/xtb-6.5.1/bin/xtb --gfn 1 /lustre/hpc/kemi/ree/PhD/git/ReactivityQM/calculations/R03/reac01prodN05/conf03/R03_reac01prodN05_conf03_gfn1.xyz --opt --vfukui --chrg 1 --uhf 0 --alpb DMSO
          hostname                   : node068
          coordinate file            : /lustre/hpc/kemi/ree/PhD/git/ReactivityQM/calculations/R03/reac01prodN05/conf03/R03_reac01prodN05_conf03_gfn1.xyz
          omp threads                :                     1

   ID    Z sym.   atoms
    1    6 C      1, 2, 4-7, 9, 10
    2    9 F      3
    3    7 N      8
    4    1 H      11-21

           -------------------------------------------------
          |                 G F N 1 - x T B                 |
           -------------------------------------------------

        Reference                      10.1021/acs.jctc.7b00118
      * Hamiltonian:
        H0-scaling (s, p, d)           1.850000    2.250000    2.000000
        zeta-weighting                 0.000000
      * Dispersion:
        s8                             2.400000
        a1                             0.630000
        a2                             5.000000
        s9                             0.000000
      * Repulsion:
        kExp                           1.500000
        rExp                           1.000000
      * Coulomb:
        alpha                          2.000000
        third order                    atomic
        anisotropic                    false
      * Halogen bond correction:
        rad-scale                      1.300000
        damping                        0.440000

      * Solvation model:               ALPB
        Solvent                        DMSO
        Parameter file                 internal GFN1-xTB/ALPB
        Dielectric constant                4.6680E+01
        Reference state                gsolv [1 M gas/solution]
        Free energy shift                  7.6243E-03 Eh       4.7843E+00 kcal/mol
        Temperature                        2.9815E+02 K
        Density                            1.1000E+00 kg/L
        Solvent mass                       7.8130E+01 g/mol
        Interaction kernel             P16
        Born radius scaling (c1)           1.7672E+00
        Born radii integrator          GBOBC
        Born offset                        0.0000E+00 a0       0.0000E+00 AA
        H-bond correction              true
        Ion screening                  false
        Surface tension                    1.0000E-05 Eh       1.5569E+01 dyn/cm
        Grid points                               230 per atom

          ...................................................
          :                      SETUP                      :
          :.................................................:
          :  # basis functions                  62          :
          :  # atomic orbitals                  62          :
          :  # shells                           42          :
          :  # electrons                        54          :
          :  # halogen bonds                     0          :
          :  max. iterations                   250          :
          :  Hamiltonian                  GFN1-xTB          :
          :  restarted?                      false          :
          :  GBSA solvation                   true          :
          :  PC potential                    false          :
          :  electronic temp.          300.0000000     K    :
          :  accuracy                    1.0000000          :
          :  -> integral cutoff          0.2500000E+02      :
          :  -> integral neglect         0.1000000E-07      :
          :  -> SCF convergence          0.1000000E-05 Eh   :
          :  -> wf. convergence          0.2000000E-04 e    :
          :  Broyden damping             0.4000000          :
          ...................................................

 iter      E             dE          RMSdq      gap      omega  full diag
   1    -31.0849730 -0.310850E+02  0.824E+00    1.03       0.0  T
   2    -30.7792410  0.305732E+00  0.620E+00    0.18       1.0  T
   3    -31.0305967 -0.251356E+00  0.387E+00    2.26       1.0  T
   4    -31.0612511 -0.306544E-01  0.247E+00    2.21       1.0  T
   5    -31.1117691 -0.505181E-01  0.154E+00    2.16       1.0  T
   6    -31.1327794 -0.210102E-01  0.974E-01    1.75       1.0  T
   7    -31.1479371 -0.151578E-01  0.833E-02    0.28       1.0  T
   8    -31.1479966 -0.594061E-04  0.313E-02    0.28       1.0  T
   9    -31.1460729  0.192370E-02  0.270E-01    0.48       1.0  T
  10    -31.1463551 -0.282259E-03  0.221E-01    0.23       1.0  T
  11    -31.1471845 -0.829382E-03  0.170E-01    0.38       1.0  T
  12    -31.1480135 -0.828991E-03  0.479E-03    0.29       4.6  T
  13    -31.1480027  0.108025E-04  0.187E-02    0.30       1.2  T
  14    -31.1480121 -0.941116E-05  0.698E-03    0.29       3.1  T
  15    -31.1480124 -0.349589E-06  0.620E-03    0.29       3.5  T
  16    -31.1480120  0.488462E-06  0.727E-03    0.29       3.0  T
  17    -31.1480136 -0.166056E-05  0.386E-04    0.29      56.6  T
  18    -31.1480136 -0.254649E-08  0.285E-04    0.29      76.5  T
  19    -31.1480136 -0.250553E-08  0.656E-06    0.29    3328.9  T
  20    -31.1480136  0.269509E-10  0.299E-05    0.29     730.1  T

   *** convergence criteria satisfied after 20 iterations ***

         #    Occupation            Energy/Eh            Energy/eV
      -------------------------------------------------------------
         1        2.0000           -0.8988419             -24.4587
       ...           ...                  ...                  ...
        21        2.0000           -0.5521528             -15.0248
        22        2.0000           -0.5490231             -14.9397
        23        2.0000           -0.5377191             -14.6321
        24        2.0000           -0.5214355             -14.1890
        25        2.0000           -0.5177512             -14.0887
        26        2.0000           -0.5121487             -13.9363
        27        1.9924           -0.4427527             -12.0479 (HOMO)
        28        0.0076           -0.4321645             -11.7598 (LUMO)
        29                         -0.3245618              -8.8318
        30                         -0.2517536              -6.8506
        31                         -0.1570001              -4.2722
        32                         -0.1529323              -4.1615
       ...                                ...                  ...
        62                          0.5397393              14.6871
      -------------------------------------------------------------
                  HL-Gap            0.0105882 Eh            0.2881 eV
             Fermi-level           -0.4374586 Eh          -11.9039 eV

 SCC (total)                   0 d,  0 h,  0 min,  0.053 sec
 SCC setup                      ...        0 min,  0.001 sec (  2.714%)
 Dispersion                     ...        0 min,  0.000 sec (  0.315%)
 classical contributions        ...        0 min,  0.000 sec (  0.066%)
 integral evaluation            ...        0 min,  0.018 sec ( 33.615%)
 iterations                     ...        0 min,  0.017 sec ( 31.546%)
 molecular gradient             ...        0 min,  0.017 sec ( 31.329%)
 printout                       ...        0 min,  0.000 sec (  0.372%)

         :::::::::::::::::::::::::::::::::::::::::::::::::::::
         ::                     SUMMARY                     ::
         :::::::::::::::::::::::::::::::::::::::::::::::::::::
         :: total energy             -30.750241946437 Eh    ::
         :: total w/o Gsasa/hb       -30.735351585555 Eh    ::
         :: gradient norm              0.047109038053 Eh/a0 ::
         :: HOMO-LUMO gap              0.288118703351 eV    ::
         ::.................................................::
         :: SCC energy               -31.148013625431 Eh    ::
         :: -> electrostatic           0.134322421731 Eh    ::
         :: -> Gsolv                  -0.084610705942 Eh    ::
         ::    -> Gelec               -0.069720345060 Eh    ::
         ::    -> Gsasa               -0.014175336434 Eh    ::
         ::    -> Ghb                 -0.008339303453 Eh    ::
         ::    -> Gshift               0.007624279005 Eh    ::
         :: repulsion energy           0.407626276011 Eh    ::
         :: dispersion energy         -0.009854597016 Eh    ::
         :: halogen bond corr.         0.000000000000 Eh    ::
         :: add. restraining           0.000000000000 Eh    ::
         :: total charge               1.000000000000 e     ::
         :::::::::::::::::::::::::::::::::::::::::::::::::::::

      ----------------------------------------------------------- 
     |                   =====================                   |
     |                        A N C O P T                        |
     |                   =====================                   |
     |               Approximate Normal Coordinate               |
     |                Rational Function Optimizer                |
      ----------------------------------------------------------- 

          ...................................................
          :                      SETUP                      :
          :.................................................:
          :   optimization level            normal          :
          :   max. optcycles                   200          :
          :   ANC micro-cycles                  20          :
          :   degrees of freedom                57          :
          :.................................................:
          :   RF solver                   davidson          :
          :   write xtbopt.log                true          :
          :   linear?                        false          :
          :   energy convergence         0.5000000E-05 Eh   :
          :   grad. convergence          0.1000000E-02 Eh/α :
          :   maximium RF displ.         1.0000000          :
          :   Hlow (freq-cutoff)         0.1000000E-01      :
          :   Hmax (freq-cutoff)         5.0000000          :
          :   S6 in model hess.         20.0000000          :
          ...................................................

generating ANC from model Hessian ...
Using Lindh-Hessian (1995)
 Shifting diagonal of input Hessian by   8.251268729538415E-003
 Lowest  eigenvalues of input Hessian
    0.000000    0.000000    0.000000    0.000000    0.000000    0.000000
    0.010000    0.011873    0.015716    0.017303    0.017939    0.020514
    0.021901    0.025654    0.030346    0.036159    0.037826    0.055955
 Highest eigenvalues
    1.454415    1.510400    1.564821    1.758795    1.928920    1.998142
 

........................................................................
.............................. CYCLE    1 ..............................
........................................................................
   1    -31.1480136 -0.311480E+02  0.780E-07    0.29       0.0  T
   2    -31.1480136  0.746070E-13  0.200E-06    0.29   10930.3  T
   3    -31.1480136 -0.131450E-12  0.440E-08    0.29  100000.0  T
     SCC iter.                  ...        0 min,  0.003 sec
     gradient                   ...        0 min,  0.017 sec
 * total energy  :   -30.7502419 Eh     change       -0.2818012E-10 Eh
   gradient norm :     0.0471090 Eh/α   predicted     0.0000000E+00 (-100.00%)
   displ. norm   :     0.2753265 α      lambda       -0.5393750E-02
   maximum displ.:     0.1404337 α      in ANC's #2, #7, #6, ...

........................................................................
.............................. CYCLE    2 ..............................
........................................................................
   1    -31.1427807 -0.311428E+02  0.477E-02    0.41       0.0  T
   2    -31.1427661  0.146362E-04  0.486E-02    0.37       1.0  T
   3    -31.1428174 -0.513187E-04  0.160E-02    0.40       1.4  T
   4    -31.1428208 -0.342896E-05  0.101E-02    0.39       2.2  T
   5    -31.1428219 -0.110708E-05  0.291E-03    0.39       7.5  T
   6    -31.1428221 -0.149928E-06  0.567E-04    0.39      38.5  T
   7    -31.1428221 -0.238122E-08  0.153E-04    0.39     142.7  T
   8    -31.1428221 -0.894929E-10  0.450E-05    0.39     484.5  T
     SCC iter.                  ...        0 min,  0.006 sec
     gradient                   ...        0 min,  0.017 sec
 * total energy  :   -30.7541036 Eh     change       -0.3861611E-02 Eh
   gradient norm :     0.0217234 Eh/α   predicted    -0.2902114E-02 ( -24.85%)
   displ. norm   :     0.3713916 α      lambda       -0.2818209E-02
   maximum displ.:     0.2420114 α      in ANC's #2, #4, #7, ...

........................................................................
.............................. CYCLE    3 ..............................
........................................................................
   1    -31.1414032 -0.311414E+02  0.439E-02    0.51       0.0  T
   2    -31.1414246 -0.214210E-04  0.348E-02    0.47       1.0  T
   3    -31.1414405 -0.158253E-04  0.125E-02    0.49       1.7  T
   4    -31.1414410 -0.548573E-06  0.994E-03    0.48       2.2  T
   5    -31.1414419 -0.904062E-06  0.144E-03    0.48      15.2  T
   6    -31.1414420 -0.283810E-07  0.631E-04    0.48      34.6  T
   7    -31.1414420 -0.482720E-08  0.140E-04    0.48     156.3  T
   8    -31.1414420 -0.618599E-10  0.349E-05    0.48     624.9  T
     SCC iter.                  ...        0 min,  0.006 sec
     gradient                   ...        0 min,  0.017 sec
 * total energy  :   -30.7559629 Eh     change       -0.1859318E-02 Eh
   gradient norm :     0.0096534 Eh/α   predicted    -0.1603465E-02 ( -13.76%)
   displ. norm   :     0.3474424 α      lambda       -0.1175043E-02
   maximum displ.:     0.2543074 α      in ANC's #2, #4, #1, ...

........................................................................
.............................. CYCLE    4 ..............................
........................................................................
   1    -31.1425991 -0.311426E+02  0.301E-02    0.54       0.0  T
   2    -31.1426128 -0.137127E-04  0.242E-02    0.51       1.0  T
   3    -31.1426215 -0.871901E-05  0.767E-03    0.52       2.8  T
   4    -31.1426215  0.221900E-07  0.600E-03    0.52       3.6  T
   5    -31.1426218 -0.264278E-06  0.137E-03    0.52      15.9  T
   6    -31.1426218 -0.195517E-07  0.391E-04    0.52      55.9  T
   7    -31.1426218 -0.151185E-08  0.950E-05    0.52     229.7  T
   8    -31.1426218 -0.373142E-10  0.283E-05    0.52     772.1  T
     SCC iter.                  ...        0 min,  0.006 sec
     gradient                   ...        0 min,  0.017 sec
 * total energy  :   -30.7568961 Eh     change       -0.9332307E-03 Eh
   gradient norm :     0.0143005 Eh/α   predicted    -0.6584474E-03 ( -29.44%)
   displ. norm   :     0.4506458 α      lambda       -0.1332985E-02
   maximum displ.:     0.3199009 α      in ANC's #2, #4, #1, ...

........................................................................
.............................. CYCLE    5 ..............................
........................................................................
   1    -31.1448907 -0.311449E+02  0.357E-02    0.56       0.0  T
   2    -31.1449114 -0.206658E-04  0.241E-02    0.53       1.0  T
   3    -31.1449216 -0.102577E-04  0.665E-03    0.54       3.3  T
   4    -31.1449218 -0.148048E-06  0.481E-03    0.54       4.5  T
   5    -31.1449219 -0.122537E-06  0.136E-03    0.54      16.1  T
   6    -31.1449219 -0.194805E-07  0.364E-04    0.54      59.9  T
   7    -31.1449219 -0.107604E-08  0.102E-04    0.54     215.0  T
   8    -31.1449219 -0.310649E-10  0.309E-05    0.54     705.6  T
     SCC iter.                  ...        0 min,  0.006 sec
     gradient                   ...        0 min,  0.017 sec
 * total energy  :   -30.7579830 Eh     change       -0.1086871E-02 Eh
   gradient norm :     0.0182034 Eh/α   predicted    -0.8018478E-03 ( -26.22%)
   displ. norm   :     0.5102573 α      lambda       -0.1362514E-02
   maximum displ.:     0.3577040 α      in ANC's #2, #4, #1, ...

........................................................................
.............................. CYCLE    6 ..............................
........................................................................
   1    -31.1466717 -0.311467E+02  0.364E-02    0.57       0.0  T
   2    -31.1466944 -0.226831E-04  0.200E-02    0.55       1.1  T
   3    -31.1467024 -0.802152E-05  0.650E-03    0.55       3.4  T
   4    -31.1467027 -0.307749E-06  0.367E-03    0.55       5.9  T
   5    -31.1467027 -0.436693E-07  0.973E-04    0.55      22.4  T
   6    -31.1467028 -0.100255E-07  0.248E-04    0.55      88.1  T
   7    -31.1467028 -0.372633E-09  0.101E-04    0.55     217.1  T
   8    -31.1467028 -0.386251E-10  0.238E-05    0.55     916.0  T
     SCC iter.                  ...        0 min,  0.006 sec
     gradient                   ...        0 min,  0.017 sec
 * total energy  :   -30.7590281 Eh     change       -0.1045147E-02 Eh
   gradient norm :     0.0188860 Eh/α   predicted    -0.8586317E-03 ( -17.85%)
   displ. norm   :     0.4440589 α      lambda       -0.1125267E-02
   maximum displ.:     0.3059158 α      in ANC's #2, #4, #1, ...

........................................................................
.............................. CYCLE    7 ..............................
........................................................................
   1    -31.1491933 -0.311492E+02  0.305E-02    0.57       0.0  T
   2    -31.1492124 -0.191284E-04  0.142E-02    0.57       1.5  T
   3    -31.1492154 -0.298781E-05  0.751E-03    0.57       2.9  T
   4    -31.1492157 -0.276151E-06  0.347E-03    0.56       6.3  T
   5    -31.1492157 -0.522169E-08  0.129E-03    0.57      16.9  T
   6    -31.1492157 -0.259056E-07  0.262E-04    0.56      83.2  T
   7    -31.1492157 -0.958998E-09  0.913E-05    0.56     239.1  T
   8    -31.1492157 -0.710152E-10  0.169E-05    0.56    1291.8  T
     SCC iter.                  ...        0 min,  0.006 sec
     gradient                   ...        0 min,  0.017 sec
 * total energy  :   -30.7598708 Eh     change       -0.8426642E-03 Eh
   gradient norm :     0.0142691 Eh/α   predicted    -0.6735784E-03 ( -20.07%)
   displ. norm   :     0.3618197 α      lambda       -0.8770990E-03
   maximum displ.:     0.2399124 α      in ANC's #2, #4, #1, ...

........................................................................
.............................. CYCLE    8 ..............................
........................................................................
   1    -31.1520156 -0.311520E+02  0.254E-02    0.58       0.0  T
   2    -31.1520310 -0.154256E-04  0.133E-02    0.59       1.6  T
   3    -31.1520327 -0.165006E-05  0.692E-03    0.58       3.2  T
   4    -31.1520328 -0.113065E-06  0.313E-03    0.58       7.0  T
   5    -31.1520328 -0.128730E-07  0.709E-04    0.58      30.8  T
   6    -31.1520328 -0.709025E-08  0.351E-04    0.58      62.1  T
   7    -31.1520328 -0.255586E-08  0.748E-05    0.58     291.9  T
   8    -31.1520328 -0.312141E-10  0.132E-05    0.58    1647.6  T
     SCC iter.                  ...        0 min,  0.006 sec
     gradient                   ...        0 min,  0.017 sec
 * total energy  :   -30.7605442 Eh     change       -0.6734329E-03 Eh
   gradient norm :     0.0085567 Eh/α   predicted    -0.4959625E-03 ( -26.35%)
   displ. norm   :     0.5151631 α      lambda       -0.8073294E-03
   maximum displ.:     0.3656954 α      in ANC's #2, #4, #1, ...

........................................................................
.............................. CYCLE    9 ..............................
........................................................................
   1    -31.1488609 -0.311489E+02  0.208E-02    0.62       0.0  T
   2    -31.1488704 -0.943015E-05  0.974E-03    0.61       2.2  T
   3    -31.1488715 -0.118883E-05  0.462E-03    0.61       4.7  T
   4    -31.1488716 -0.994133E-07  0.237E-03    0.61       9.2  T
   5    -31.1488716 -0.686474E-08  0.644E-04    0.61      33.9  T
   6    -31.1488717 -0.702532E-08  0.239E-04    0.61      91.4  T
   7    -31.1488717 -0.453475E-09  0.736E-05    0.61     296.3  T
   8    -31.1488717 -0.346319E-10  0.137E-05    0.61    1593.8  T
     SCC iter.                  ...        0 min,  0.006 sec
     gradient                   ...        0 min,  0.017 sec
 * total energy  :   -30.7610555 Eh     change       -0.5112755E-03 Eh
   gradient norm :     0.0118668 Eh/α   predicted    -0.5107996E-03 (  -0.09%)
   displ. norm   :     0.2786995 α      lambda       -0.7284186E-03
   maximum displ.:     0.1547055 α      in ANC's #1, #3, #2, ...

........................................................................
.............................. CYCLE   10 ..............................
........................................................................
   1    -31.1546021 -0.311546E+02  0.273E-02    0.61       0.0  T
   2    -31.1546170 -0.148811E-04  0.235E-02    0.65       1.0  T
   3    -31.1546238 -0.683358E-05  0.106E-02    0.64       2.1  T
   4    -31.1546239 -0.787531E-07  0.238E-03    0.64       9.2  T
   5    -31.1546239 -0.409382E-07  0.662E-04    0.63      32.9  T
   6    -31.1546239 -0.762831E-08  0.214E-04    0.64     102.1  T
   7    -31.1546239 -0.273474E-09  0.568E-05    0.64     384.3  T
   8    -31.1546239 -0.855138E-11  0.159E-05    0.64    1371.3  T
     SCC iter.                  ...        0 min,  0.006 sec
     gradient                   ...        0 min,  0.017 sec
 * total energy  :   -30.7614028 Eh     change       -0.3473236E-03 Eh
   gradient norm :     0.0115990 Eh/α   predicted    -0.3924985E-03 (  13.01%)
   displ. norm   :     0.3282392 α      lambda       -0.3831881E-03
   maximum displ.:     0.2279727 α      in ANC's #2, #1, #3, ...

........................................................................
.............................. CYCLE   11 ..............................
........................................................................
   1    -31.1509198 -0.311509E+02  0.175E-02    0.64       0.0  T
   2    -31.1509228 -0.300995E-05  0.676E-03    0.65       3.2  T
   3    -31.1509234 -0.592485E-06  0.465E-03    0.65       4.7  T
   4    -31.1509235 -0.101286E-06  0.123E-03    0.65      17.7  T
   5    -31.1509235 -0.325550E-08  0.535E-04    0.65      40.8  T
   6    -31.1509235 -0.342880E-08  0.134E-04    0.65     162.8  T
   7    -31.1509235 -0.119449E-09  0.366E-05    0.65     596.2  T
     SCC iter.                  ...        0 min,  0.005 sec
     gradient                   ...        0 min,  0.017 sec
 * total energy  :   -30.7616653 Eh     change       -0.2624360E-03 Eh
   gradient norm :     0.0091149 Eh/α   predicted    -0.2122369E-03 ( -19.13%)
   displ. norm   :     0.2376999 α      lambda       -0.3472995E-03
   maximum displ.:     0.1486654 α      in ANC's #2, #1, #3, ...

........................................................................
.............................. CYCLE   12 ..............................
........................................................................
   1    -31.1504239 -0.311504E+02  0.134E-02    0.65       0.0  T
   2    -31.1504267 -0.281111E-05  0.669E-03    0.66       3.3  T
   3    -31.1504276 -0.975047E-06  0.290E-03    0.65       7.5  T
   4    -31.1504277 -0.524037E-07  0.117E-03    0.66      18.7  T
   5    -31.1504277 -0.220068E-08  0.453E-04    0.66      48.2  T
   6    -31.1504277 -0.228842E-08  0.144E-04    0.66     152.0  T
   7    -31.1504277 -0.156255E-09  0.286E-05    0.66     763.8  T
     SCC iter.                  ...        0 min,  0.005 sec
     gradient                   ...        0 min,  0.017 sec
 * total energy  :   -30.7619200 Eh     change       -0.2547512E-03 Eh
   gradient norm :     0.0080050 Eh/α   predicted    -0.1834614E-03 ( -27.98%)
   displ. norm   :     0.2350302 α      lambda       -0.3567974E-03
   maximum displ.:     0.1334661 α      in ANC's #1, #2, #3, ...

........................................................................
.............................. CYCLE   13 ..............................
........................................................................
   1    -31.1517907 -0.311518E+02  0.301E-02    0.64       0.0  T
   2    -31.1518053 -0.146516E-04  0.206E-02    0.68       1.1  T
   3    -31.1518161 -0.108382E-04  0.417E-03    0.66       5.2  T
   4    -31.1518162 -0.409344E-07  0.187E-03    0.66      11.7  T
   5    -31.1518162 -0.509533E-08  0.546E-04    0.66      39.9  T
   6    -31.1518162 -0.417316E-08  0.206E-04    0.66     105.9  T
   7    -31.1518162 -0.216961E-09  0.610E-05    0.66     358.0  T
   8    -31.1518162 -0.303189E-10  0.135E-05    0.66    1610.5  T
     SCC iter.                  ...        0 min,  0.006 sec
     gradient                   ...        0 min,  0.017 sec
 * total energy  :   -30.7621502 Eh     change       -0.2302067E-03 Eh
   gradient norm :     0.0084353 Eh/α   predicted    -0.1882622E-03 ( -18.22%)
   displ. norm   :     0.2092475 α      lambda       -0.2055083E-03
   maximum displ.:     0.1269370 α      in ANC's #1, #2, #6, ...

........................................................................
.............................. CYCLE   14 ..............................
........................................................................
   1    -31.1519630 -0.311520E+02  0.162E-02    0.67       0.0  T
   2    -31.1519674 -0.439233E-05  0.113E-02    0.69       1.9  T
   3    -31.1519705 -0.311956E-05  0.265E-03    0.68       8.2  T
   4    -31.1519705 -0.208008E-07  0.984E-04    0.68      22.2  T
   5    -31.1519705 -0.178070E-08  0.299E-04    0.68      73.0  T
   6    -31.1519705 -0.448949E-09  0.118E-04    0.68     185.1  T
   7    -31.1519705 -0.305320E-10  0.332E-05    0.68     658.1  T
     SCC iter.                  ...        0 min,  0.005 sec
     gradient                   ...        0 min,  0.017 sec
 * total energy  :   -30.7622694 Eh     change       -0.1191839E-03 Eh
   gradient norm :     0.0079990 Eh/α   predicted    -0.1072555E-03 ( -10.01%)
   displ. norm   :     0.1428536 α      lambda       -0.1678498E-03
   maximum displ.:     0.0743288 α      in ANC's #2, #1, #6, ...

........................................................................
.............................. CYCLE   15 ..............................
........................................................................
   1    -31.1527065 -0.311527E+02  0.201E-02    0.68       0.0  T
   2    -31.1527118 -0.533718E-05  0.141E-02    0.70       1.5  T
   3    -31.1527165 -0.461327E-05  0.348E-03    0.69       6.3  T
   4    -31.1527165 -0.205997E-07  0.116E-03    0.69      18.8  T
   5    -31.1527165 -0.173275E-08  0.322E-04    0.69      67.7  T
   6    -31.1527165 -0.621142E-09  0.133E-04    0.69     163.8  T
   7    -31.1527165 -0.699814E-10  0.439E-05    0.69     496.8  T
     SCC iter.                  ...        0 min,  0.006 sec
     gradient                   ...        0 min,  0.017 sec
 * total energy  :   -30.7623805 Eh     change       -0.1111337E-03 Eh
   gradient norm :     0.0050702 Eh/α   predicted    -0.8564004E-04 ( -22.94%)
   displ. norm   :     0.1933146 α      lambda       -0.1326708E-03
   maximum displ.:     0.1172630 α      in ANC's #2, #6, #1, ...

........................................................................
.............................. CYCLE   16 ..............................
........................................................................
   1    -31.1524020 -0.311524E+02  0.220E-02    0.69       0.0  T
   2    -31.1524085 -0.652925E-05  0.149E-02    0.72       1.5  T
   3    -31.1524144 -0.589241E-05  0.279E-03    0.71       7.8  T
   4    -31.1524144 -0.217644E-07  0.106E-03    0.71      20.6  T
   5    -31.1524144 -0.484129E-08  0.352E-04    0.71      62.0  T
   6    -31.1524144 -0.136952E-08  0.138E-04    0.71     157.8  T
   7    -31.1524144 -0.584706E-10  0.341E-05    0.71     640.2  T
     SCC iter.                  ...        0 min,  0.005 sec
     gradient                   ...        0 min,  0.017 sec
 * total energy  :   -30.7624625 Eh     change       -0.8201082E-04 Eh
   gradient norm :     0.0057841 Eh/α   predicted    -0.6881565E-04 ( -16.09%)
   displ. norm   :     0.1745554 α      lambda       -0.2667795E-03
   maximum displ.:     0.0892385 α      in ANC's #6, #4, #2, ...

........................................................................
.............................. CYCLE   17 ..............................
........................................................................
   1    -31.1588107 -0.311588E+02  0.250E-02    0.72       0.0  T
   2    -31.1588188 -0.811348E-05  0.239E-02    0.75       1.0  T
   3    -31.1588248 -0.596175E-05  0.113E-02    0.74       1.9  T
   4    -31.1588249 -0.930084E-07  0.264E-03    0.74       8.3  T
   5    -31.1588249 -0.453061E-07  0.781E-04    0.74      27.9  T
   6    -31.1588249 -0.527272E-08  0.306E-04    0.74      71.2  T
   7    -31.1588249 -0.682189E-09  0.500E-05    0.74     436.0  T
   8    -31.1588249 -0.114291E-10  0.135E-05    0.74    1620.7  T
     SCC iter.                  ...        0 min,  0.006 sec
     gradient                   ...        0 min,  0.017 sec
 * total energy  :   -30.7623054 Eh     change        0.1571359E-03 Eh
   gradient norm :     0.0164240 Eh/α   predicted    -0.1374597E-03 (-187.48%)
   displ. norm   :     0.1076367 α      lambda       -0.4809054E-03
   maximum displ.:     0.0669116 α      in ANC's #2, #3, #1, ...

........................................................................
.............................. CYCLE   18 ..............................
........................................................................
   1    -31.1538677 -0.311539E+02  0.201E-02    0.73       0.0  T
   2    -31.1538685 -0.803595E-06  0.985E-03    0.74       2.2  T
   3    -31.1538685  0.534546E-07  0.467E-03    0.73       4.7  T
   4    -31.1538686 -0.127777E-06  0.938E-04    0.74      23.3  T
   5    -31.1538686 -0.165337E-07  0.385E-04    0.73      56.7  T
   6    -31.1538686 -0.161338E-08  0.155E-04    0.73     141.0  T
   7    -31.1538686 -0.310514E-09  0.439E-05    0.73     497.4  T
     SCC iter.                  ...        0 min,  0.005 sec
     gradient                   ...        0 min,  0.017 sec
 * total energy  :   -30.7625625 Eh     change       -0.2570749E-03 Eh
   gradient norm :     0.0044636 Eh/α   predicted    -0.2432449E-03 (  -5.38%)
   displ. norm   :     0.0381740 α      lambda       -0.4048475E-04
   maximum displ.:     0.0215738 α      in ANC's #1, #2, #6, ...

........................................................................
.............................. CYCLE   19 ..............................
........................................................................
   1    -31.1540486 -0.311540E+02  0.303E-03    0.74       0.0  T
   2    -31.1540488 -0.190106E-06  0.274E-03    0.73       8.0  T
   3    -31.1540489 -0.122460E-06  0.100E-03    0.73      21.7  T
   4    -31.1540489 -0.561833E-09  0.484E-04    0.73      45.1  T
   5    -31.1540489 -0.110398E-08  0.837E-05    0.73     260.8  T
   6    -31.1540489 -0.134257E-09  0.373E-05    0.73     585.6  T
     SCC iter.                  ...        0 min,  0.005 sec
     gradient                   ...        0 min,  0.017 sec
 * total energy  :   -30.7625955 Eh     change       -0.3306396E-04 Eh
   gradient norm :     0.0037813 Eh/α   predicted    -0.2027879E-04 ( -38.67%)
   displ. norm   :     0.1785990 α      lambda       -0.1072103E-03
   maximum displ.:     0.1062518 α      in ANC's #2, #6, #3, ...

........................................................................
.............................. CYCLE   20 ..............................
........................................................................
   1    -31.1534247 -0.311534E+02  0.159E-02    0.73       0.0  T
   2    -31.1534272 -0.252151E-05  0.709E-03    0.75       3.1  T
   3    -31.1534286 -0.138666E-05  0.379E-03    0.74       5.8  T
   4    -31.1534287 -0.101586E-06  0.130E-03    0.74      16.8  T
   5    -31.1534287 -0.100123E-07  0.510E-04    0.74      42.8  T
   6    -31.1534287 -0.252004E-08  0.141E-04    0.74     154.9  T
   7    -31.1534287 -0.616680E-10  0.364E-05    0.74     599.4  T
     SCC iter.                  ...        0 min,  0.003 sec
     gradient                   ...        0 min,  0.010 sec
 * total energy  :   -30.7626580 Eh     change       -0.6243752E-04 Eh
   gradient norm :     0.0043148 Eh/α   predicted    -0.5531619E-04 ( -11.41%)
   displ. norm   :     0.0848944 α      lambda       -0.5375948E-04
   maximum displ.:     0.0710974 α      in ANC's #1, #6, #2, ...
 * RMSD in coord.:     0.9827678 α      energy gain  -0.1241604E-01 Eh

generating ANC from model Hessian ...
Using Lindh-Hessian (1995)
 Shifting diagonal of input Hessian by   8.210349522170955E-003
 Lowest  eigenvalues of input Hessian
    0.000000    0.000000    0.000000    0.000000    0.000000    0.000000
    0.010000    0.012240    0.015151    0.016914    0.018470    0.019344
    0.023002    0.026084    0.030015    0.040077    0.041063    0.054483
 Highest eigenvalues
    1.444314    1.520423    1.599096    1.760968    1.878830    1.979052
 

........................................................................
.............................. CYCLE   21 ..............................
........................................................................
   1    -31.1548058 -0.311548E+02  0.633E-03    0.74       0.0  T
   2    -31.1548062 -0.417665E-06  0.540E-03    0.75       4.0  T
   3    -31.1548066 -0.401609E-06  0.224E-03    0.74       9.7  T
   4    -31.1548066 -0.654932E-09  0.469E-04    0.74      46.6  T
   5    -31.1548066 -0.172644E-08  0.145E-04    0.74     150.7  T
   6    -31.1548066 -0.208715E-09  0.571E-05    0.74     382.2  T
     SCC iter.                  ...        0 min,  0.003 sec
     gradient                   ...        0 min,  0.010 sec
 * total energy  :   -30.7626949 Eh     change       -0.3687864E-04 Eh
   gradient norm :     0.0035557 Eh/α   predicted     0.0000000E+00 (-100.00%)
   displ. norm   :     0.0443771 α      lambda       -0.4359878E-04
   maximum displ.:     0.0369011 α      in ANC's #1, #2, #5, ...

........................................................................
.............................. CYCLE   22 ..............................
........................................................................
   1    -31.1546571 -0.311547E+02  0.369E-03    0.74       0.0  T
   2    -31.1546575 -0.365080E-06  0.428E-03    0.75       5.1  T
   3    -31.1546578 -0.294427E-06  0.177E-03    0.75      12.3  T
   4    -31.1546578 -0.142971E-07  0.709E-04    0.75      30.8  T
   5    -31.1546578 -0.235444E-08  0.114E-04    0.74     191.9  T
   6    -31.1546578 -0.238270E-09  0.476E-05    0.74     458.5  T
     SCC iter.                  ...        0 min,  0.003 sec
     gradient                   ...        0 min,  0.010 sec
 * total energy  :   -30.7627289 Eh     change       -0.3407962E-04 Eh
   gradient norm :     0.0016042 Eh/α   predicted    -0.2185778E-04 ( -35.86%)
   displ. norm   :     0.1022214 α      lambda       -0.3623354E-04
   maximum displ.:     0.0845255 α      in ANC's #1, #2, #5, ...

........................................................................
.............................. CYCLE   23 ..............................
........................................................................
   1    -31.1544398 -0.311544E+02  0.114E-02    0.74       0.0  T
   2    -31.1544428 -0.308308E-05  0.128E-02    0.76       1.7  T
   3    -31.1544462 -0.332619E-05  0.391E-03    0.75       5.6  T
   4    -31.1544463 -0.115825E-06  0.162E-03    0.75      13.5  T
   5    -31.1544463 -0.139563E-07  0.297E-04    0.75      73.5  T
   6    -31.1544463 -0.850171E-09  0.122E-04    0.75     179.5  T
   7    -31.1544463 -0.102762E-09  0.289E-05    0.75     754.8  T
     SCC iter.                  ...        0 min,  0.003 sec
     gradient                   ...        0 min,  0.010 sec
 * total energy  :   -30.7627607 Eh     change       -0.3178858E-04 Eh
   gradient norm :     0.0019072 Eh/α   predicted    -0.1820270E-04 ( -42.74%)
   displ. norm   :     0.0532928 α      lambda       -0.1234413E-04
   maximum displ.:     0.0452145 α      in ANC's #1, #2, #5, ...

........................................................................
.............................. CYCLE   24 ..............................
........................................................................
   1    -31.1545547 -0.311546E+02  0.703E-03    0.74       0.0  T
   2    -31.1545554 -0.737324E-06  0.619E-03    0.75       3.5  T
   3    -31.1545564 -0.946950E-06  0.100E-03    0.75      21.8  T
   4    -31.1545564 -0.481701E-08  0.353E-04    0.75      61.8  T
   5    -31.1545564 -0.192099E-09  0.839E-05    0.75     260.0  T
   6    -31.1545564 -0.404050E-10  0.355E-05    0.75     614.2  T
     SCC iter.                  ...        0 min,  0.003 sec
     gradient                   ...        0 min,  0.010 sec
 * total energy  :   -30.7627770 Eh     change       -0.1624739E-04 Eh
   gradient norm :     0.0013565 Eh/α   predicted    -0.6183960E-05 ( -61.94%)
   displ. norm   :     0.0844467 α      lambda       -0.1765032E-04
   maximum displ.:     0.0673726 α      in ANC's #1, #2, #5, ...

........................................................................
.............................. CYCLE   25 ..............................
........................................................................
   1    -31.1547568 -0.311548E+02  0.101E-02    0.75       0.0  T
   2    -31.1547580 -0.119518E-05  0.795E-03    0.76       2.7  T
   3    -31.1547597 -0.168454E-05  0.127E-03    0.75      17.2  T
   4    -31.1547597 -0.362269E-08  0.414E-04    0.75      52.8  T
   5    -31.1547597 -0.358845E-09  0.108E-04    0.75     201.2  T
   6    -31.1547597 -0.662048E-10  0.603E-05    0.75     361.7  T
     SCC iter.                  ...        0 min,  0.003 sec
     gradient                   ...        0 min,  0.010 sec
 * total energy  :   -30.7627982 Eh     change       -0.2123144E-04 Eh
   gradient norm :     0.0005595 Eh/α   predicted    -0.8863988E-05 ( -58.25%)
   displ. norm   :     0.1006453 α      lambda       -0.1380168E-04
   maximum displ.:     0.0792983 α      in ANC's #1, #2, #5, ...

........................................................................
.............................. CYCLE   26 ..............................
........................................................................
   1    -31.1547769 -0.311548E+02  0.100E-02    0.75       0.0  T
   2    -31.1547779 -0.104431E-05  0.748E-03    0.76       2.9  T
   3    -31.1547795 -0.156845E-05  0.123E-03    0.76      17.8  T
   4    -31.1547795 -0.513012E-08  0.390E-04    0.76      56.0  T
   5    -31.1547795 -0.867420E-09  0.107E-04    0.76     204.6  T
   6    -31.1547795 -0.801563E-10  0.579E-05    0.76     377.2  T
     SCC iter.                  ...        0 min,  0.003 sec
     gradient                   ...        0 min,  0.010 sec
 * total energy  :   -30.7628147 Eh     change       -0.1650026E-04 Eh
   gradient norm :     0.0009710 Eh/α   predicted    -0.6936338E-05 ( -57.96%)
   displ. norm   :     0.0861541 α      lambda       -0.8991288E-05
   maximum displ.:     0.0676859 α      in ANC's #1, #2, #5, ...

........................................................................
.............................. CYCLE   27 ..............................
........................................................................
   1    -31.1548250 -0.311548E+02  0.695E-03    0.76       0.0  T
   2    -31.1548254 -0.469096E-06  0.493E-03    0.77       4.4  T
   3    -31.1548261 -0.684753E-06  0.100E-03    0.76      21.7  T
   4    -31.1548261 -0.543188E-08  0.297E-04    0.76      73.4  T
   5    -31.1548261 -0.545352E-09  0.103E-04    0.76     212.8  T
   6    -31.1548261 -0.751861E-10  0.438E-05    0.76     498.6  T
     SCC iter.                  ...        0 min,  0.003 sec
     gradient                   ...        0 min,  0.010 sec
 * total energy  :   -30.7628261 Eh     change       -0.1138082E-04 Eh
   gradient norm :     0.0008753 Eh/α   predicted    -0.4528681E-05 ( -60.21%)
   displ. norm   :     0.0892561 α      lambda       -0.8032213E-05
   maximum displ.:     0.0686189 α      in ANC's #1, #2, #4, ...

........................................................................
.............................. CYCLE   28 ..............................
........................................................................
   1    -31.1547938 -0.311548E+02  0.539E-03    0.77       0.0  T
   2    -31.1547940 -0.230024E-06  0.326E-03    0.77       6.7  T
   3    -31.1547943 -0.292941E-06  0.113E-03    0.77      19.4  T
   4    -31.1547943 -0.108450E-07  0.284E-04    0.77      76.7  T
   5    -31.1547943 -0.514341E-09  0.118E-04    0.77     185.6  T
   6    -31.1547943 -0.913687E-10  0.394E-05    0.77     553.2  T
     SCC iter.                  ...        0 min,  0.003 sec
     gradient                   ...        0 min,  0.010 sec
 * total energy  :   -30.7628361 Eh     change       -0.1005379E-04 Eh
   gradient norm :     0.0005033 Eh/α   predicted    -0.4034321E-05 ( -59.87%)
   displ. norm   :     0.1196033 α      lambda       -0.8047537E-05
   maximum displ.:     0.0880986 α      in ANC's #1, #2, #4, ...

........................................................................
.............................. CYCLE   29 ..............................
........................................................................
   1    -31.1546616 -0.311547E+02  0.710E-03    0.77       0.0  T
   2    -31.1546620 -0.373675E-06  0.411E-03    0.78       5.3  T
   3    -31.1546624 -0.462845E-06  0.159E-03    0.78      13.7  T
   4    -31.1546625 -0.231787E-07  0.375E-04    0.78      58.2  T
   5    -31.1546625 -0.881137E-09  0.166E-04    0.78     131.4  T
   6    -31.1546625 -0.179639E-09  0.567E-05    0.78     384.8  T
     SCC iter.                  ...        0 min,  0.003 sec
     gradient                   ...        0 min,  0.010 sec
 * total energy  :   -30.7628453 Eh     change       -0.9120232E-05 Eh
   gradient norm :     0.0005692 Eh/α   predicted    -0.4050339E-05 ( -55.59%)
   displ. norm   :     0.1565228 α      lambda       -0.6908996E-05
   maximum displ.:     0.1119185 α      in ANC's #1, #2, #4, ...

........................................................................
.............................. CYCLE   30 ..............................
........................................................................
   1    -31.1545305 -0.311545E+02  0.889E-03    0.78       0.0  T
   2    -31.1545311 -0.584706E-06  0.525E-03    0.79       4.2  T
   3    -31.1545318 -0.739837E-06  0.196E-03    0.78      11.1  T
   4    -31.1545318 -0.358324E-07  0.403E-04    0.78      54.1  T
   5    -31.1545318 -0.131392E-08  0.182E-04    0.78     120.0  T
   6    -31.1545318 -0.254310E-09  0.788E-05    0.78     277.0  T
     SCC iter.                  ...        0 min,  0.003 sec
     gradient                   ...        0 min,  0.015 sec
 * total energy  :   -30.7628514 Eh     change       -0.6140824E-05 Eh
   gradient norm :     0.0009218 Eh/α   predicted    -0.3495543E-05 ( -43.08%)
   displ. norm   :     0.0568650 α      lambda       -0.2576862E-05
   maximum displ.:     0.0386000 α      in ANC's #2, #1, #4, ...

........................................................................
.............................. CYCLE   31 ..............................
........................................................................
   1    -31.1548577 -0.311549E+02  0.411E-03    0.78       0.0  T
   2    -31.1548579 -0.184542E-06  0.347E-03    0.79       6.3  T
   3    -31.1548582 -0.271412E-06  0.812E-04    0.79      26.9  T
   4    -31.1548582 -0.149278E-08  0.197E-04    0.79     110.6  T
   5    -31.1548582 -0.253042E-09  0.866E-05    0.79     252.1  T
     SCC iter.                  ...        0 min,  0.003 sec
     gradient                   ...        0 min,  0.011 sec
 * total energy  :   -30.7628541 Eh     change       -0.2720486E-05 Eh
   gradient norm :     0.0003890 Eh/α   predicted    -0.1290959E-05 ( -52.55%)
   displ. norm   :     0.0987972 α      lambda       -0.2537946E-05
   maximum displ.:     0.0725478 α      in ANC's #2, #1, #4, ...

   *** GEOMETRY OPTIMIZATION CONVERGED AFTER 31 ITERATIONS ***

------------------------------------------------------------------------
 total energy gain   :        -0.0126122 Eh       -7.9143 kcal/mol
 total RMSD          :         1.0342161 a0        0.5473 Å
 total power (kW/mol):        -1.0681700 (step)  -39.1743 (real)
------------------------------------------------------------------------

 ANCopt (total)                0 d,  0 h,  0 min,  0.845 sec
 optimizer setup                ...        0 min,  0.001 sec (  0.071%)
 model hessian                  ...        0 min,  0.011 sec (  1.312%)
 ANC generation                 ...        0 min,  0.001 sec (  0.112%)
 coordinate transformation      ...        0 min,  0.000 sec (  0.024%)
 single point calculation       ...        0 min,  0.826 sec ( 97.735%)
 optimization log               ...        0 min,  0.003 sec (  0.366%)
 hessian update                 ...        0 min,  0.000 sec (  0.027%)
 rational function              ...        0 min,  0.002 sec (  0.229%)

================
 final structure:
================
21
 xtb: 6.5.1 (579679a)
C            2.55846979437726        0.42106856528832       -0.53017913728671
C            1.83137974176698       -0.14543178606589        0.72836228121145
F            2.82130670149680       -0.54023600746970        1.58637281848010
C            1.03816936747081        0.97299087600120        1.29076421337527
C           -0.28085625592185        1.08833937420225        1.00339427025789
C           -0.96917367801803        0.06263581715146        0.29789558898467
C           -2.39328814442065        0.25211354859059       -0.03347067240592
N           -2.98802263840419       -0.82555191790907       -0.77399359705042
C           -0.29002051263905       -1.14063139307739       -0.02283533822284
C            1.02567893344137       -1.29805807511699        0.26778500122573
H            1.83638897170417        0.75252603927174       -1.27049520192514
H            3.18044874657709        1.25586808162819       -0.21542154748376
H            3.18269359243893       -0.36747774434550       -0.94419018177855
H            1.57211216329919        1.72783412009737        1.85546448189562
H           -0.84321810185754        1.95098676847377        1.34181622039118
H           -2.95641330198110        0.41668169165336        0.89396506312356
H           -2.47330633095453        1.20039139517651       -0.59143159129721
H           -2.55502384600870       -0.93463014295008       -1.67829816166715
H           -3.97496693241823       -0.65602474441477       -0.89464428687575
H           -0.86669755277432       -1.95889782028218       -0.43841896228746
H            1.54434028282590       -2.23449764590330        0.09877673933564
 
 Bond Distances (Angstroems)
 ---------------------------
C1-C2=1.5600         C1-H11=1.0860        C1-H12=1.0876        C1-H13=1.0876        C2-C1=1.5600         C2-F3=1.3682         
C2-C4=1.4820         C2-C10=1.4798        F3-C2=1.3682         C4-C2=1.4820         C4-C5=1.3549         C4-H14=1.0834        
C5-C4=1.3549         C5-C6=1.4225         C5-H15=1.0839        C6-C5=1.4225         C6-C7=1.4744         C6-C9=1.4184         
C7-C6=1.4744         C7-N8=1.4365         C7-H16=1.0974        C7-H17=1.1032        N8-C7=1.4365         N8-H18=1.0085        
N8-H19=1.0086        C9-C6=1.4184         C9-C10=1.3566        C9-H20=1.0839        C10-C2=1.4798        C10-C9=1.3566        
C10-H21=1.0837       H11-C1=1.0860        H12-C1=1.0876        H13-C1=1.0876        H14-C4=1.0834        H15-C5=1.0839        
H16-C7=1.0974        H17-C7=1.1032        H18-N8=1.0085        H19-N8=1.0086        H20-C9=1.0839        H21-C10=1.0837       
 C  H  Rav=1.0885 sigma=0.0066  Rmin=1.0834  Rmax=1.1032     9
 C  C  Rav=1.4436 sigma=0.0650  Rmin=1.3549  Rmax=1.5600     8
 N  H  Rav=1.0086 sigma=0.0001  Rmin=1.0085  Rmax=1.0086     2
 N  C  Rav=1.4365 sigma=0.0000  Rmin=1.4365  Rmax=1.4365     1
 F  C  Rav=1.3682 sigma=0.0000  Rmin=1.3682  Rmax=1.3682     1
 
 selected bond angles (degree)
 --------------------
H11-C1-C2=110.54               H12-C1-C2=108.17               H12-C1-H11=110.08              H13-C1-C2=108.14               
H13-C1-H11=110.09              H13-C1-H12=109.78              F3-C2-C1=105.87                C4-C2-C1=106.35                
C4-C2-F3=111.53                C10-C2-C1=106.59               C10-C2-F3=111.37               C10-C2-C4=114.49               
C5-C4-C2=120.32                H14-C4-C2=117.38               H14-C4-C5=122.07               C6-C5-C4=120.99                
H15-C5-C4=120.44               H15-C5-C6=118.53               C7-C6-C5=119.09                C9-C6-C5=119.48                
C9-C6-C7=121.38                N8-C7-C6=114.79                H16-C7-C6=108.96               H16-C7-N8=109.62               
H17-C7-C6=107.11               H17-C7-N8=110.74               H17-C7-H16=105.15              H18-N8-C7=111.45               
H19-N8-C7=109.92               H19-N8-H18=109.33              C10-C9-C6=120.96               H20-C9-C6=118.19               
H20-C9-C10=120.70              C9-C10-C2=120.29               H21-C10-C2=117.45              H21-C10-C9=122.07              
 
 selected dihedral angles (degree)
 ---------------------------------
F3-C2-C1-H11=179.57           F3-C2-C1-H12=300.15           F3-C2-C1-H13= 58.99           C4-C2-C1-H11=298.33           
C4-C2-C1-H12= 58.91           C4-C2-C1-H13=177.75           C10-C2-C1-H11= 60.88          C10-C2-C1-H12=181.47          
C10-C2-C1-H13=300.31          C5-C4-C2-C1= 97.60            C5-C4-C2-F3=212.58            C5-C4-C2-C10=340.17           
H14-C4-C2-C1=283.00           H14-C4-C2-F3= 37.97           H14-C4-C2-C10=165.57          C6-C5-C4-C2=  7.73            
C6-C5-C4-H14=182.07           H15-C5-C4-C2=185.35           H15-C5-C4-H14=359.69          C7-C6-C5-C4=182.09            
C7-C6-C5-H15=  4.43           C9-C6-C5-C4=  4.69            C9-C6-C5-H15=187.03           N8-C7-C6-C5=178.57            
N8-C7-C6-C9=355.92            H16-C7-C6-C5=301.92           H16-C7-C6-C9=119.27           H17-C7-C6-C5= 55.18           
H17-C7-C6-C9=232.53           H18-N8-C7-C6=296.76           H18-N8-C7-H16=173.75          H18-N8-C7-H17= 58.19          
H19-N8-C7-C6=175.38           H19-N8-C7-H16= 52.38          H19-N8-C7-H17=296.81          C10-C9-C6-C5=356.33           
C10-C9-C6-C7=178.99           H20-C9-C6-C5=171.82           H20-C9-C6-C7=354.48           C9-C10-C2-C1=263.54           
C9-C10-C2-F3=148.52           C9-C10-C2-C4= 20.84           H21-C10-C2-C1= 78.69          H21-C10-C2-F3=323.67          
H21-C10-C2-C4=195.99          C2-C10-C9-C6=350.27           C2-C10-C9-H20=174.90          H21-C10-C9-C6=175.35          
H21-C10-C9-H20=359.97         
           -------------------------------------------------
          |                Final Singlepoint                |
           -------------------------------------------------

          ...................................................
          :                      SETUP                      :
          :.................................................:
          :  # basis functions                  62          :
          :  # atomic orbitals                  62          :
          :  # shells                           42          :
          :  # electrons                        54          :
          :  # halogen bonds                     0          :
          :  max. iterations                   250          :
          :  Hamiltonian                  GFN1-xTB          :
          :  restarted?                      false          :
          :  GBSA solvation                   true          :
          :  PC potential                    false          :
          :  electronic temp.          300.0000000     K    :
          :  accuracy                    1.0000000          :
          :  -> integral cutoff          0.2500000E+02      :
          :  -> integral neglect         0.1000000E-07      :
          :  -> SCF convergence          0.1000000E-05 Eh   :
          :  -> wf. convergence          0.2000000E-04 e    :
          :  Broyden damping             0.4000000          :
          ...................................................

 iter      E             dE          RMSdq      gap      omega  full diag
   1    -31.1548582 -0.311549E+02  0.401E-05    0.79       0.0  T
   2    -31.1548582 -0.577671E-11  0.208E-05    0.79    1047.8  T
   3    -31.1548582 -0.500577E-11  0.156E-05    0.79    1394.4  T

   *** convergence criteria satisfied after 3 iterations ***

         #    Occupation            Energy/Eh            Energy/eV
      -------------------------------------------------------------
         1        2.0000           -0.8927382             -24.2926
       ...           ...                  ...                  ...
        21        2.0000           -0.5531974             -15.0533
        22        2.0000           -0.5461131             -14.8605
        23        2.0000           -0.5379543             -14.6385
        24        2.0000           -0.5204158             -14.1612
        25        2.0000           -0.5175113             -14.0822
        26        2.0000           -0.5082978             -13.8315
        27        2.0000           -0.4478626             -12.1870 (HOMO)
        28        0.0000           -0.4189410             -11.4000 (LUMO)
        29                         -0.3239503              -8.8151
        30                         -0.2513463              -6.8395
        31                         -0.1599006              -4.3511
        32                         -0.1546419              -4.2080
       ...                                ...                  ...
        62                          0.5477327              14.9046
      -------------------------------------------------------------
                  HL-Gap            0.0289216 Eh            0.7870 eV
             Fermi-level           -0.4334018 Eh          -11.7935 eV

 SCC (total)                   0 d,  0 h,  0 min,  0.028 sec
 SCC setup                      ...        0 min,  0.001 sec (  2.023%)
 Dispersion                     ...        0 min,  0.000 sec (  0.245%)
 classical contributions        ...        0 min,  0.000 sec (  0.138%)
 integral evaluation            ...        0 min,  0.008 sec ( 27.150%)
 iterations                     ...        0 min,  0.002 sec (  8.890%)
 molecular gradient             ...        0 min,  0.017 sec ( 60.668%)
 printout                       ...        0 min,  0.000 sec (  0.822%)

         :::::::::::::::::::::::::::::::::::::::::::::::::::::
         ::                     SUMMARY                     ::
         :::::::::::::::::::::::::::::::::::::::::::::::::::::
         :: total energy             -30.762854124576 Eh    ::
         :: total w/o Gsasa/hb       -30.748704842348 Eh    ::
         :: gradient norm              0.000389618232 Eh/a0 ::
         :: HOMO-LUMO gap              0.786996507615 eV    ::
         ::.................................................::
         :: SCC energy               -31.154858204760 Eh    ::
         :: -> electrostatic           0.137481663607 Eh    ::
         :: -> Gsolv                  -0.086520056773 Eh    ::
         ::    -> Gelec               -0.072370774545 Eh    ::
         ::    -> Gsasa               -0.014043325994 Eh    ::
         ::    -> Ghb                 -0.007730235238 Eh    ::
         ::    -> Gshift               0.007624279005 Eh    ::
         :: repulsion energy           0.402060223700 Eh    ::
         :: dispersion energy         -0.010056143516 Eh    ::
         :: halogen bond corr.         0.000000000000 Eh    ::
         :: add. restraining           0.000000000000 Eh    ::
         :: total charge               1.000000000000 e     ::
         :::::::::::::::::::::::::::::::::::::::::::::::::::::

           -------------------------------------------------
          |                Property Printout                |
           -------------------------------------------------

    * Orbital Energies and Occupations

         #    Occupation            Energy/Eh            Energy/eV
      -------------------------------------------------------------
         1        2.0000           -0.8927382             -24.2926
       ...           ...                  ...                  ...
        15        2.0000           -0.5962173             -16.2239
        16        2.0000           -0.5918552             -16.1052
        17        2.0000           -0.5789136             -15.7530
        18        2.0000           -0.5710700             -15.5396
        19        2.0000           -0.5674145             -15.4401
        20        2.0000           -0.5583705             -15.1940
        21        2.0000           -0.5531974             -15.0533
        22        2.0000           -0.5461131             -14.8605
        23        2.0000           -0.5379543             -14.6385
        24        2.0000           -0.5204158             -14.1612
        25        2.0000           -0.5175113             -14.0822
        26        2.0000           -0.5082978             -13.8315
        27        2.0000           -0.4478626             -12.1870 (HOMO)
        28        0.0000           -0.4189410             -11.4000 (LUMO)
        29                         -0.3239503              -8.8151
        30                         -0.2513463              -6.8395
        31                         -0.1599006              -4.3511
        32                         -0.1546419              -4.2080
        33                         -0.1415791              -3.8526
        34                         -0.1351194              -3.6768
        35                         -0.1307804              -3.5587
        36                         -0.1159075              -3.1540
        37                         -0.1081671              -2.9434
        38                         -0.1012794              -2.7560
       ...                                ...                  ...
        62                          0.5477327              14.9046
      -------------------------------------------------------------
                  HL-Gap            0.0289216 Eh            0.7870 eV
             Fermi-level           -0.4334018 Eh          -11.7935 eV

  Mulliken/CM5 charges         n(s)   n(p)   n(d)
     1C    -0.08437 -0.22830   1.035  3.049  0.000
     2C     0.25589  0.25711   1.058  2.686  0.000
     3F    -0.27233 -0.29935   1.830  5.442  0.000
     4C     0.02748 -0.02566   1.107  2.866  0.000
     5C    -0.03043 -0.08451   1.068  2.962  0.000
     6C     0.09874  0.08719   1.135  2.766  0.000
     7C     0.08754  0.04206   1.011  2.902  0.000
     8N    -0.47920 -0.94457   1.465  4.014  0.000
     9C    -0.02013 -0.07201   1.066  2.954  0.000
    10C     0.03127 -0.02169   1.110  2.859  0.000
    11H     0.07464  0.12891   0.925  0.000  0.000
    12H     0.08827  0.14219   0.912  0.000  0.000
    13H     0.08811  0.14203   0.912  0.000  0.000
    14H     0.10729  0.16444   0.893  0.000  0.000
    15H     0.09531  0.15230   0.905  0.000  0.000
    16H     0.10774  0.17260   0.892  0.000  0.000
    17H     0.11458  0.17848   0.885  0.000  0.000
    18H     0.24860  0.43902   0.751  0.000  0.000
    19H     0.26032  0.44959   0.740  0.000  0.000
    20H     0.09402  0.15637   0.906  0.000  0.000
    21H     0.10667  0.16380   0.893  0.000  0.000

Wiberg/Mayer (AO) data.
largest (>0.10) Wiberg bond orders for each atom

 ---------------------------------------------------------------------------
     #   Z sym  total        # sym  WBO       # sym  WBO       # sym  WBO
 ---------------------------------------------------------------------------
     1   6 C    3.948 --    11 H    0.982    12 H    0.975    13 H    0.975
                             2 C    0.865
     2   6 C    3.886 --    10 C    1.038     4 C    1.031     3 F    0.897
                             1 C    0.865
     3   9 F    1.005 --     2 C    0.897
     4   6 C    3.957 --     5 C    1.670     2 C    1.031    14 H    0.961
     5   6 C    3.988 --     4 C    1.670     6 C    1.255    15 H    0.961
     6   6 C    3.929 --     9 C    1.267     5 C    1.255     7 C    1.084
     7   6 C    3.981 --     6 C    1.084     8 N    1.025    16 H    0.912
                            17 H    0.887
     8   7 N    3.056 --     7 C    1.025    18 H    0.924    19 H    0.919
     9   6 C    3.986 --    10 C    1.655     6 C    1.267    20 H    0.957
    10   6 C    3.954 --     9 C    1.655     2 C    1.038    21 H    0.961
    11   1 H    0.995 --     1 C    0.982
    12   1 H    0.993 --     1 C    0.975
    13   1 H    0.993 --     1 C    0.975
    14   1 H    0.989 --     4 C    0.961
    15   1 H    0.989 --     5 C    0.961
    16   1 H    0.988 --     7 C    0.912
    17   1 H    0.985 --     7 C    0.887
    18   1 H    0.941 --     8 N    0.924
    19   1 H    0.935 --     8 N    0.919
    20   1 H    0.999 --     9 C    0.957
    21   1 H    0.989 --    10 C    0.961
 ---------------------------------------------------------------------------

Topologies differ in total number of bonds
Writing topology from bond orders to xtbtopo.mol

 dipole moment from electron density (au)
     X       Y       Z   
  -1.3917   0.8865  -0.7750  total (Debye):    4.634

           -------------------------------------------------
          |                Geometry Summary                 |
           -------------------------------------------------

      molecular mass/u    :      140.1783418
   center of mass at/Å    :        0.2828327      -0.1291666       0.3816051
  moments of inertia/u·Å² :        0.1616793E+03   0.6402170E+03   0.6982671E+03
rotational constants/cm⁻¹ :        0.1042659E+00   0.2633112E-01   0.2414210E-01

 * 20 selected distances

     #   Z          #   Z                                           value/Å
     2   6 C        3   9 F                                       1.3682135
     2   6 C        4   6 C                                       1.4820082 (max)
     4   6 C        5   6 C                                       1.3548859
     5   6 C        6   6 C                                       1.4225250
     6   6 C        7   6 C                                       1.4743839
     7   6 C        8   7 N                                       1.4364702
     6   6 C        9   6 C                                       1.4184392
     2   6 C       10   6 C                                       1.4798084
     9   6 C       10   6 C                                       1.3565798
     1   6 C       11   1 H                                       1.0859709
     1   6 C       12   1 H                                       1.0875756
     1   6 C       13   1 H                                       1.0875964
     4   6 C       14   1 H                                       1.0834066
     5   6 C       15   1 H                                       1.0839470
     7   6 C       16   1 H                                       1.0974196
     7   6 C       17   1 H                                       1.1031566
     8   7 N       18   1 H                                       1.0085400 (min)
     8   7 N       19   1 H                                       1.0086403
     9   6 C       20   1 H                                       1.0838941
    10   6 C       21   1 H                                       1.0837401

 * 5 distinct bonds (by element types)

   Z      Z             #   av. dist./Å        max./Å        min./Å
   1 H    6 C           9     1.0885230     1.1031566     1.0834066
   6 C    6 C           7     1.4269472     1.4820082     1.3548859
   1 H    7 N           2     1.0085902     1.0086403     1.0085400
   6 C    7 N           1     1.4364702     1.4364702     1.4364702
   6 C    9 F           1     1.3682135     1.3682135     1.3682135


optimized geometry written to: xtbopt.xyz


           -------------------------------------------------
          | TOTAL ENERGY              -30.762854124576 Eh   |
          | GRADIENT NORM               0.000389618232 Eh/α |
          | HOMO-LUMO GAP               0.786996507615 eV   |
           -------------------------------------------------

------------------------------------------------------------------------
 * finished run on 2023/06/20 at 15:14:35.506     
------------------------------------------------------------------------
 total:
 * wall-time:     0 d,  0 h,  0 min,  0.997 sec
 *  cpu-time:     0 d,  0 h,  0 min,  0.936 sec
 * ratio c/w:     0.939 speedup
 SCF:
 * wall-time:     0 d,  0 h,  0 min,  0.053 sec
 *  cpu-time:     0 d,  0 h,  0 min,  0.043 sec
 * ratio c/w:     0.809 speedup
 ANC optimizer:
 * wall-time:     0 d,  0 h,  0 min,  0.877 sec
 *  cpu-time:     0 d,  0 h,  0 min,  0.873 sec
 * ratio c/w:     0.996 speedup

