46
 energy: -87.070777430172 gnorm: 0.000685469541 xtb: 6.5.1 (579679a)
C           -4.76432037386727       -2.86000109428073        1.11877203005919
O           -3.70560401915816       -2.01069617339187        0.71325168902723
C           -3.81658652712411       -0.69312981870102        1.13481649369362
O           -4.79570051674015       -0.35246821633858        1.82815362029178
C           -2.76873691112041        0.14907957948069        0.73190249466992
N           -1.73054300812067       -0.34539374222360        0.01167372987196
C           -0.70592333940117        0.34905010973145       -0.33317154361530
C            0.35119898193199       -0.34322628136304       -1.17946521134588
C           -0.04956499393486       -1.81563495671191       -1.36525457756747
C            0.49792986956058        0.30868213560556       -2.56250190703752
N            1.63128623132056       -0.32048862187926       -0.44031504534226
C            2.80554913960627       -0.75634903150389       -0.92893149552960
O            3.02660409632878       -1.11269458561317       -2.07436593872664
C            3.85353208798246       -0.73002956826995        0.13108603160452
N            3.67081614299311       -0.40970618430839        1.37650194668885
N            4.88112038110125       -0.52383397370071        1.99439639774142
C            5.72400514567986       -0.90777869595334        1.08563531676476
C            7.17088742337875       -1.16860109486013        1.25007283031079
O            5.13639011940045       -1.05717381933698       -0.11110926864374
N           -0.57112831787559        1.71212082077623        0.07128167482785
C            0.59188474201706        2.52828892385172       -0.27465218969824
C           -1.52772738784099        2.35285239153799        0.79607303228244
O           -1.37252200546178        3.52402417247538        1.14736827081229
C           -2.83426429397736        1.61063725013463        1.12353726568377
C           -3.96157602398820        2.34956723034632        0.36394055355680
O           -3.05436978647641        1.76100333606902        2.52824804432853
H           -5.72411748932477       -2.51231137111300        0.71905427749494
H           -4.83813867907042       -2.90610056104779        2.21174941126179
H           -4.54801029237535       -3.85494474681155        0.72765474641503
H           -0.16003204770877       -2.30148193624208       -0.39676755939610
H            0.71342961175406       -2.33582046447945       -1.94182673847838
H           -0.99912094588366       -1.87234998323700       -1.89497517968323
H            1.06448691827557       -0.33752696712318       -3.23071734448950
H            1.00534764819799        1.26781704744643       -2.50579280280196
H           -0.49489611326311        0.45966057921049       -2.98456656914415
H            1.57719400898216       -0.17811035463086        0.55913286047594
H            7.40256358380349       -2.19199800603521        0.95723491946856
H            7.45408735284748       -1.01317840321758        2.28784792449150
H            7.74543229401698       -0.49773216464390        0.61192530587613
H            0.78831208790737        3.22323060852557        0.54347629464023
H            0.39101500380243        3.10376999500787       -1.18042803731782
H            1.47093953179645        1.91024422960796       -0.42331261995413
H           -3.79628764838247        2.27550273073180       -0.70976943053390
H           -4.92094770526786        1.89836521859980        0.61072229788519
H           -3.97392565174873        3.39907554571541        0.65697654403366
H           -3.83996832457382        1.22578891216471        2.74489645505163
