46
 energy: -87.051347042145 gnorm: 0.000720577472 xtb: 6.5.1 (579679a)
C           -4.30043374118226        2.20496619589273       -1.85724091617685
O           -3.48599324082079        2.09435431381597       -0.69247545151375
C           -2.59690971154627        1.08054455913762       -0.67572587465985
O           -2.46845236947428        0.32079864439074       -1.61770944981684
C           -1.91618051375108        0.91643778750090        0.69169865249758
C           -1.63165221871842        2.26904540139550        1.35394377333405
N           -0.66413672046494        0.20044271641911        0.50994558697340
C           -0.64818606844847       -1.08814771411597        0.45459223866235
C            0.74230896305278       -1.69333667767614        0.16114752684325
C            1.31545042612542       -2.32811744365527        1.43757299746143
C            0.76081073333620       -2.67027341810839       -1.02307118666461
N            1.59024379172816       -0.54979763056180       -0.19616076337287
C            2.89922170414460       -0.58634573494537       -0.45497980390313
O            3.61186114455723       -1.58168763361438       -0.47521977760468
C            3.41835523835034        0.78225185395874       -0.74822222891846
N            2.73339943903506        1.88516362113617       -0.72944228927365
N            3.59324179156360        2.88966029428282       -1.06772256651258
C            4.74689933374533        2.33377153806898       -1.27209017809393
C            6.01028056818447        2.99417550323175       -1.66866954083139
O            4.70329046000841        1.00548567846847       -1.08598481976982
N           -1.72773190049958       -1.86828764599581        0.71350014467019
C           -1.81206400482234       -3.30067059426932        0.47881846556532
C           -2.87601856328609       -1.28406806930830        1.43061630881702
O           -3.69206814970706       -2.06960969250093        1.99282590382546
C           -2.89351766161118        0.07343349587740        1.45340112940033
O           -3.93114621017365        0.75817225336158        2.13012293699074
H           -4.90353665565513        3.10381974552365       -1.73944483173740
H           -3.67762265417059        2.28922437976665       -2.75303993778937
H           -4.94986612027342        1.33001487671614       -1.95584177464009
H           -0.98579931893224        2.86979446282880        0.71448599297869
H           -2.56141408323211        2.80733031750120        1.53085401778841
H           -1.12963011349239        2.10522190159343        2.30690269948769
H            1.39567189090699       -1.57242687204629        2.21832291886546
H            0.67538650022957       -3.13148466710875        1.79326429188408
H            2.30435483234802       -2.73710439109958        1.23694735235624
H            1.77907034735027       -2.76909080457118       -1.39570085252833
H            0.12795747971913       -2.30129067339848       -1.82943990412484
H            0.42565722870503       -3.65922076123759       -0.72520784702911
H            1.11072954673634        0.35357936262937       -0.15193225286277
H            6.77949330307101        2.81169178822054       -0.91897547585939
H            6.36125258934755        2.58773077360403       -2.61663741569599
H            5.84761385404960        4.06418266515316       -1.76996785555046
H           -1.81373573186767       -3.51568130262069       -0.59161361502056
H           -1.00082635622585       -3.84724745596129        0.95950236264401
H           -2.75496466541766       -3.65200695231852        0.90532243906488
H           -4.51066439252540        0.07460200464170        2.49786986983835
