42
 energy: -82.980906514463 gnorm: 0.000466144149 xtb: 6.5.1 (579679a)
C           -5.58733184304973        2.88099506920681       -1.19380460111626
O           -4.37929195047480        2.38243195391364       -0.61776811576629
C           -3.83519613147708        1.30784761243459       -1.21825077207734
O           -4.33690747664287        0.77118890349798       -2.18595197723280
C           -2.60106756383639        0.88377481484824       -0.57542204550282
C           -1.98405433545534        1.44877750958576        0.52674137366581
O           -2.13996329961524        2.31563031135452        1.33993538593480
C           -0.52124110120454       -0.07765351007946        2.01190549374824
C           -1.79219903132100       -0.60728320963221        2.56132363812206
O            0.55106433631808       -0.06579038647176        2.52769425441446
N           -0.64877766084535        0.54217352092962        0.67490105524102
C           -0.82451624958222       -0.42021290864970       -0.44418271938610
C            0.15957674388480       -1.52378430492893       -0.70936867998512
C           -0.11866515118064       -2.70889515574639        0.23012828687405
C            0.01620368586413       -1.95062601555064       -2.17702892137368
N            1.50992825523622       -1.00413419463579       -0.47176469928468
C            2.62354043704082       -1.75987127093791       -0.60358776046696
O            2.64451585840390       -2.95540666089542       -0.83842346385039
C            3.86569017874873       -0.96999814575342       -0.41718438994068
N            5.08978298175077       -1.39272134446692       -0.47973576398971
N            5.89073034774072       -0.31348712053404       -0.25773324726200
C            5.10683466334517        0.70283965055107       -0.07371914559137
C            5.48964656165031        2.10389519707895        0.20372582112388
O            3.81165300046912        0.35587388345665       -0.16168147346052
N           -1.89218757773025       -0.19739055062596       -1.08823582778502
H           -5.89535303452293        3.73020205064693       -0.58642099545250
H           -6.36106794904798        2.10861963869854       -1.18251515355469
H           -5.41153082207617        3.19971324213280       -2.22486452392239
H           -2.34845701314417        0.23765992006878        2.97380622483581
H           -1.57998431417255       -1.31306585650855        3.36076196219346
H           -2.39880485781740       -1.06876253318989        1.78584114288912
H            0.15956576044357        1.14383988122946        0.53766251128843
H            0.11802355443607       -2.43880127433796        1.25689915922169
H            0.48859208375301       -3.56499169786186       -0.05810822543236
H           -1.17044174338843       -2.98134151431004        0.16416343010641
H           -1.00627526035213       -2.27751957341891       -2.35914809220663
H            0.69956705679090       -2.76974717001136       -2.39249752291176
H            0.24240811951836       -1.11030979395800       -2.83089073861588
H            1.62962926472402       -0.01087917807936       -0.37396013376426
H            5.14848726512196        2.39319916124344        1.19781818804728
H            6.57069031617808        2.20690076285340        0.14693453322908
H            5.01718489551819        2.76710728684590       -0.51973647100542
