      -----------------------------------------------------------      
     |                   =====================                   |     
     |                           x T B                           |     
     |                   =====================                   |     
     |                         S. Grimme                         |     
     |          Mulliken Center for Theoretical Chemistry        |     
     |                    University of Bonn                     |     
      -----------------------------------------------------------      

   * xtb version 6.5.1 (579679a) compiled by 'ehlert@majestix' on 2022-07-11

   xtb is free software: you can redistribute it and/or modify it under
   the terms of the GNU Lesser General Public License as published by
   the Free Software Foundation, either version 3 of the License, or
   (at your option) any later version.
   
   xtb is distributed in the hope that it will be useful,
   but WITHOUT ANY WARRANTY; without even the implied warranty of
   MERCHANTABILITY or FITNESS FOR A PARTICULAR PURPOSE.  See the
   GNU Lesser General Public License for more details.
   
   Cite this work as:
   * C. Bannwarth, E. Caldeweyher, S. Ehlert, A. Hansen, P. Pracht,
     J. Seibert, S. Spicher, S. Grimme, WIREs Comput. Mol. Sci., 2020, 11,
     e01493. DOI: 10.1002/wcms.1493
   
   for GFN2-xTB:
   * C. Bannwarth, S. Ehlert and S. Grimme., J. Chem. Theory Comput., 2019,
     15, 1652-1671. DOI: 10.1021/acs.jctc.8b01176
   for GFN1-xTB:
   * S. Grimme, C. Bannwarth, P. Shushkov, J. Chem. Theory Comput., 2017,
     13, 1989-2009. DOI: 10.1021/acs.jctc.7b00118
   for GFN0-xTB:
   * P. Pracht, E. Caldeweyher, S. Ehlert, S. Grimme, ChemRxiv, 2019, preprint.
     DOI: 10.26434/chemrxiv.8326202.v1
   for GFN-FF:
   * S. Spicher and S. Grimme, Angew. Chem. Int. Ed., 2020, 59, 15665-15673.
     DOI: 10.1002/anie.202004239
   
   for ALPB and GBSA implicit solvation:
   * S. Ehlert, M. Stahn, S. Spicher, S. Grimme, J. Chem. Theory Comput.,
     2021, 17, 4250-4261. DOI: 10.1021/acs.jctc.1c00471
   
   for DFT-D4:
   * E. Caldeweyher, C. Bannwarth and S. Grimme, J. Chem. Phys., 2017,
     147, 034112. DOI: 10.1063/1.4993215
   * E. Caldeweyher, S. Ehlert, A. Hansen, H. Neugebauer, S. Spicher,
     C. Bannwarth and S. Grimme, J. Chem. Phys., 2019, 150, 154122.
     DOI: 10.1063/1.5090222
   * E. Caldeweyher, J.-M. Mewes, S. Ehlert and S. Grimme, Phys. Chem. Chem. Phys.
     2020, 22, 8499-8512. DOI: 10.1039/D0CP00502A
   
   for sTDA-xTB:
   * S. Grimme and C. Bannwarth, J. Chem. Phys., 2016, 145, 054103.
     DOI: 10.1063/1.4959605
   
   in the mass-spec context:
   * V. Asgeirsson, C. Bauer and S. Grimme, Chem. Sci., 2017, 8, 4879.
     DOI: 10.1039/c7sc00601b
   * J. Koopman and S. Grimme, ACS Omega 2019, 4, 12, 15120-15133.
     DOI: 10.1021/acsomega.9b02011
   
   for metadynamics refer to:
   * S. Grimme, J. Chem. Theory Comput., 2019, 155, 2847-2862
     DOI: 10.1021/acs.jctc.9b00143
   
   for SPH calculations refer to:
   * S. Spicher and S. Grimme, J. Chem. Theory Comput., 2021, 17, 1701-1714
     DOI: 10.1021/acs.jctc.0c01306
   
   with help from (in alphabetical order)
   P. Atkinson, C. Bannwarth, F. Bohle, G. Brandenburg, E. Caldeweyher
   M. Checinski, S. Dohm, S. Ehlert, S. Ehrlich, I. Gerasimov, C. Hölzer
   A. Katbashev, J. Koopman, C. Lavigne, S. Lehtola, F. März, M. Müller,
   F. Musil, H. Neugebauer, J. Pisarek, C. Plett, P. Pracht, F. Pultar,
   J. Seibert, P. Shushkov, S. Spicher, M. Stahn, M. Steiner, T. Strunk,
   J. Stückrath, T. Rose, and J. Unsleber
   
 * started run on 2023/06/20 at 14:58:45.752     

           -------------------------------------------------
          |                Calculation Setup                |
           -------------------------------------------------

          program call               : /lustre/hpc/kemi/ree/PhD/git/ReactivityQM/dep/xtb-6.5.1/bin/xtb --gfn 1 /lustre/hpc/kemi/ree/PhD/git/ReactivityQM/calculations/R01/reac02prodE03/conf17/R01_reac02prodE03_conf17_gfn1.xyz --opt --vfukui --chrg -1 --uhf 0 --alpb DMSO
          hostname                   : node312
          coordinate file            : /lustre/hpc/kemi/ree/PhD/git/ReactivityQM/calculations/R01/reac02prodE03/conf17/R01_reac02prodE03_conf17_gfn1.xyz
          omp threads                :                     1

   ID    Z sym.   atoms
    1    6 C      1, 3, 5, 6, 8-11, 14, 16
    2    8 O      2, 4, 15, 17
    3    7 N      7, 12, 13
    4    1 H      18-33

           -------------------------------------------------
          |                 G F N 1 - x T B                 |
           -------------------------------------------------

        Reference                      10.1021/acs.jctc.7b00118
      * Hamiltonian:
        H0-scaling (s, p, d)           1.850000    2.250000    2.000000
        zeta-weighting                 0.000000
      * Dispersion:
        s8                             2.400000
        a1                             0.630000
        a2                             5.000000
        s9                             0.000000
      * Repulsion:
        kExp                           1.500000
        rExp                           1.000000
      * Coulomb:
        alpha                          2.000000
        third order                    atomic
        anisotropic                    false
      * Halogen bond correction:
        rad-scale                      1.300000
        damping                        0.440000

      * Solvation model:               ALPB
        Solvent                        DMSO
        Parameter file                 internal GFN1-xTB/ALPB
        Dielectric constant                4.6680E+01
        Reference state                gsolv [1 M gas/solution]
        Free energy shift                  7.6243E-03 Eh       4.7843E+00 kcal/mol
        Temperature                        2.9815E+02 K
        Density                            1.1000E+00 kg/L
        Solvent mass                       7.8130E+01 g/mol
        Interaction kernel             P16
        Born radius scaling (c1)           1.7672E+00
        Born radii integrator          GBOBC
        Born offset                        0.0000E+00 a0       0.0000E+00 AA
        H-bond correction              true
        Ion screening                  false
        Surface tension                    1.0000E-05 Eh       1.5569E+01 dyn/cm
        Grid points                               230 per atom

          ...................................................
          :                      SETUP                      :
          :.................................................:
          :  # basis functions                 100          :
          :  # atomic orbitals                 100          :
          :  # shells                           66          :
          :  # electrons                        96          :
          :  # halogen bonds                     0          :
          :  max. iterations                   250          :
          :  Hamiltonian                  GFN1-xTB          :
          :  restarted?                      false          :
          :  GBSA solvation                   true          :
          :  PC potential                    false          :
          :  electronic temp.          300.0000000     K    :
          :  accuracy                    1.0000000          :
          :  -> integral cutoff          0.2500000E+02      :
          :  -> integral neglect         0.1000000E-07      :
          :  -> SCF convergence          0.1000000E-05 Eh   :
          :  -> wf. convergence          0.2000000E-04 e    :
          :  Broyden damping             0.4000000          :
          ...................................................

 iter      E             dE          RMSdq      gap      omega  full diag
   1    -58.8908687 -0.588909E+02  0.833E+00    2.60       0.0  T
   2    -59.0577679 -0.166899E+00  0.497E+00    1.05       1.0  T
   3    -59.0482308  0.953713E-02  0.138E+00    1.19       1.0  T
   4    -59.0678434 -0.196126E-01  0.204E-01    0.78       1.0  T
   5    -59.0687155 -0.872061E-03  0.615E-02    0.94       1.0  T
   6    -59.0688311 -0.115645E-03  0.130E-02    0.94       1.3  T
   7    -59.0688350 -0.389328E-05  0.358E-03    0.94       4.9  T
   8    -59.0688352 -0.126664E-06  0.110E-03    0.94      15.8  T
   9    -59.0688352 -0.680342E-08  0.439E-04    0.94      39.7  T
  10    -59.0688352 -0.161094E-08  0.805E-05    0.94     216.1  T
  11    -59.0688352 -0.101615E-09  0.277E-05    0.94     628.8  T

   *** convergence criteria satisfied after 11 iterations ***

         #    Occupation            Energy/Eh            Energy/eV
      -------------------------------------------------------------
         1        2.0000           -0.8151148             -22.1804
       ...           ...                  ...                  ...
        42        2.0000           -0.4438518             -12.0778
        43        2.0000           -0.4310904             -11.7306
        44        2.0000           -0.3994251             -10.8689
        45        2.0000           -0.3815470             -10.3824
        46        2.0000           -0.3742770             -10.1846
        47        2.0000           -0.3640115              -9.9053
        48        2.0000           -0.2793746              -7.6022 (HOMO)
        49                         -0.2448567              -6.6629 (LUMO)
        50                         -0.2138100              -5.8181
        51                         -0.1267299              -3.4485
        52                         -0.1141042              -3.1049
        53                         -0.1129929              -3.0747
       ...                                ...                  ...
       100                          0.7166261              19.5004
      -------------------------------------------------------------
                  HL-Gap            0.0345178 Eh            0.9393 eV
             Fermi-level           -0.2621156 Eh           -7.1325 eV

 SCC (total)                   0 d,  0 h,  0 min,  0.113 sec
 SCC setup                      ...        0 min,  0.001 sec (  1.312%)
 Dispersion                     ...        0 min,  0.000 sec (  0.233%)
 classical contributions        ...        0 min,  0.000 sec (  0.077%)
 integral evaluation            ...        0 min,  0.037 sec ( 32.254%)
 iterations                     ...        0 min,  0.021 sec ( 18.981%)
 molecular gradient             ...        0 min,  0.053 sec ( 46.600%)
 printout                       ...        0 min,  0.001 sec (  0.511%)

         :::::::::::::::::::::::::::::::::::::::::::::::::::::
         ::                     SUMMARY                     ::
         :::::::::::::::::::::::::::::::::::::::::::::::::::::
         :: total energy             -58.528782024370 Eh    ::
         :: total w/o Gsasa/hb       -58.510125191535 Eh    ::
         :: gradient norm              0.158736554335 Eh/a0 ::
         :: HOMO-LUMO gap              0.939278170151 eV    ::
         ::.................................................::
         :: SCC energy               -59.068835160631 Eh    ::
         :: -> electrostatic           0.366448661630 Eh    ::
         :: -> Gsolv                  -0.105938883016 Eh    ::
         ::    -> Gelec               -0.087282050180 Eh    ::
         ::    -> Gsasa               -0.017938153107 Eh    ::
         ::    -> Ghb                 -0.008342958733 Eh    ::
         ::    -> Gshift               0.007624279005 Eh    ::
         :: repulsion energy           0.559338021322 Eh    ::
         :: dispersion energy         -0.019284885062 Eh    ::
         :: halogen bond corr.         0.000000000000 Eh    ::
         :: add. restraining           0.000000000000 Eh    ::
         :: total charge              -1.000000000000 e     ::
         :::::::::::::::::::::::::::::::::::::::::::::::::::::

      ----------------------------------------------------------- 
     |                   =====================                   |
     |                        A N C O P T                        |
     |                   =====================                   |
     |               Approximate Normal Coordinate               |
     |                Rational Function Optimizer                |
      ----------------------------------------------------------- 

          ...................................................
          :                      SETUP                      :
          :.................................................:
          :   optimization level            normal          :
          :   max. optcycles                   200          :
          :   ANC micro-cycles                  20          :
          :   degrees of freedom                93          :
          :.................................................:
          :   RF solver                   davidson          :
          :   write xtbopt.log                true          :
          :   linear?                        false          :
          :   energy convergence         0.5000000E-05 Eh   :
          :   grad. convergence          0.1000000E-02 Eh/α :
          :   maximium RF displ.         1.0000000          :
          :   Hlow (freq-cutoff)         0.1000000E-01      :
          :   Hmax (freq-cutoff)         5.0000000          :
          :   S6 in model hess.         20.0000000          :
          ...................................................

generating ANC from model Hessian ...
Using Lindh-Hessian (1995)
 Shifting diagonal of input Hessian by   9.381314843140139E-003
 Lowest  eigenvalues of input Hessian
    0.000000    0.000000    0.000000    0.000000    0.000000    0.000000
    0.010000    0.010123    0.011031    0.012739    0.013215    0.013795
    0.015876    0.016321    0.017384    0.018743    0.018793    0.019471
 Highest eigenvalues
    1.683040    1.695481    1.974516    2.106757    2.243072    2.328699
 

........................................................................
.............................. CYCLE    1 ..............................
........................................................................
   1    -59.0688352 -0.590688E+02  0.115E-05    0.94       0.0  T
   2    -59.0688352 -0.596856E-12  0.519E-06    0.94    3353.3  T
   3    -59.0688352  0.142109E-13  0.345E-06    0.94    5049.5  T
     SCC iter.                  ...        0 min,  0.006 sec
     gradient                   ...        0 min,  0.053 sec
 * total energy  :   -58.5287820 Eh     change       -0.3623768E-11 Eh
   gradient norm :     0.1587368 Eh/α   predicted     0.0000000E+00 (-100.00%)
   displ. norm   :     0.2450225 α      lambda       -0.1927336E-01
   maximum displ.:     0.1189469 α      in ANC's #21, #26, #24, ...

........................................................................
.............................. CYCLE    2 ..............................
........................................................................
   1    -59.0813530 -0.590814E+02  0.748E-02    1.41       0.0  T
   2    -59.0815181 -0.165151E-03  0.330E-02    1.35       1.0  T
   3    -59.0815328 -0.146822E-04  0.184E-02    1.35       1.0  T
   4    -59.0815337 -0.917434E-06  0.627E-03    1.34       2.8  T
   5    -59.0815338 -0.118441E-06  0.151E-03    1.34      11.6  T
   6    -59.0815339 -0.429607E-07  0.445E-04    1.34      39.1  T
   7    -59.0815339 -0.272578E-08  0.199E-04    1.34      87.5  T
   8    -59.0815339 -0.459011E-09  0.408E-05    1.34     426.8  T
     SCC iter.                  ...        0 min,  0.015 sec
     gradient                   ...        0 min,  0.053 sec
 * total energy  :   -58.5421362 Eh     change       -0.1335415E-01 Eh
   gradient norm :     0.0676470 Eh/α   predicted    -0.1021839E-01 ( -23.48%)
   displ. norm   :     0.2409560 α      lambda       -0.6616940E-02
   maximum displ.:     0.1294182 α      in ANC's #21, #24, #4, ...

........................................................................
.............................. CYCLE    3 ..............................
........................................................................
   1    -59.0901717 -0.590902E+02  0.501E-02    1.66       0.0  T
   2    -59.0902435 -0.718152E-04  0.239E-02    1.63       1.0  T
   3    -59.0902499 -0.634967E-05  0.125E-02    1.62       1.4  T
   4    -59.0902502 -0.297464E-06  0.390E-03    1.62       4.5  T
   5    -59.0902502 -0.508663E-07  0.570E-04    1.62      30.6  T
   6    -59.0902502 -0.849715E-08  0.240E-04    1.62      72.5  T
   7    -59.0902502 -0.694122E-09  0.106E-04    1.62     164.4  T
   8    -59.0902502 -0.162558E-09  0.224E-05    1.62     777.1  T
     SCC iter.                  ...        0 min,  0.015 sec
     gradient                   ...        0 min,  0.053 sec
 * total energy  :   -58.5458636 Eh     change       -0.3727428E-02 Eh
   gradient norm :     0.0222455 Eh/α   predicted    -0.3502140E-02 (  -6.04%)
   displ. norm   :     0.1515251 α      lambda       -0.8555515E-03
   maximum displ.:     0.0624838 α      in ANC's #5, #4, #21, ...

........................................................................
.............................. CYCLE    4 ..............................
........................................................................
   1    -59.0909880 -0.590910E+02  0.254E-02    1.66       0.0  T
   2    -59.0910087 -0.206310E-04  0.112E-02    1.66       1.6  T
   3    -59.0910115 -0.280173E-05  0.449E-03    1.66       3.9  T
   4    -59.0910115 -0.335028E-07  0.185E-03    1.66       9.4  T
   5    -59.0910115 -0.380579E-08  0.360E-04    1.66      48.3  T
   6    -59.0910115 -0.330541E-08  0.827E-05    1.66     210.4  T
   7    -59.0910115 -0.664926E-10  0.252E-05    1.66     691.8  T
     SCC iter.                  ...        0 min,  0.013 sec
     gradient                   ...        0 min,  0.053 sec
 * total energy  :   -58.5464836 Eh     change       -0.6199845E-03 Eh
   gradient norm :     0.0160968 Eh/α   predicted    -0.4376772E-03 ( -29.41%)
   displ. norm   :     0.2091703 α      lambda       -0.6901981E-03
   maximum displ.:     0.0894219 α      in ANC's #4, #5, #6, ...

........................................................................
.............................. CYCLE    5 ..............................
........................................................................
   1    -59.0911963 -0.590912E+02  0.391E-02    1.66       0.0  T
   2    -59.0912468 -0.504544E-04  0.155E-02    1.67       1.1  T
   3    -59.0912535 -0.672697E-05  0.504E-03    1.67       3.5  T
   4    -59.0912536 -0.782450E-07  0.249E-03    1.67       7.0  T
   5    -59.0912536 -0.134249E-08  0.582E-04    1.67      29.9  T
   6    -59.0912536 -0.712475E-08  0.140E-04    1.67     124.0  T
   7    -59.0912536 -0.180265E-09  0.416E-05    1.67     418.8  T
     SCC iter.                  ...        0 min,  0.013 sec
     gradient                   ...        0 min,  0.053 sec
 * total energy  :   -58.5469002 Eh     change       -0.4166640E-03 Eh
   gradient norm :     0.0079974 Eh/α   predicted    -0.3602155E-03 ( -13.55%)
   displ. norm   :     0.1051961 α      lambda       -0.1527928E-03
   maximum displ.:     0.0447828 α      in ANC's #4, #1, #6, ...

........................................................................
.............................. CYCLE    6 ..............................
........................................................................
   1    -59.0922730 -0.590923E+02  0.117E-02    1.67       0.0  T
   2    -59.0922774 -0.434846E-05  0.449E-03    1.67       3.9  T
   3    -59.0922779 -0.464395E-06  0.214E-03    1.67       8.1  T
   4    -59.0922779 -0.225838E-07  0.952E-04    1.67      18.3  T
   5    -59.0922779 -0.692104E-09  0.236E-04    1.67      73.9  T
   6    -59.0922779 -0.708987E-09  0.642E-05    1.67     271.2  T
   7    -59.0922779 -0.484306E-10  0.194E-05    1.67     899.2  T
     SCC iter.                  ...        0 min,  0.013 sec
     gradient                   ...        0 min,  0.054 sec
 * total energy  :   -58.5470078 Eh     change       -0.1075413E-03 Eh
   gradient norm :     0.0054608 Eh/α   predicted    -0.7726911E-04 ( -28.15%)
   displ. norm   :     0.1214197 α      lambda       -0.1130036E-03
   maximum displ.:     0.0550496 α      in ANC's #2, #1, #4, ...

........................................................................
.............................. CYCLE    7 ..............................
........................................................................
   1    -59.0929539 -0.590930E+02  0.648E-03    1.67       0.0  T
   2    -59.0929549 -0.972006E-06  0.331E-03    1.67       5.3  T
   3    -59.0929550 -0.418395E-07  0.163E-03    1.67      10.7  T
   4    -59.0929550 -0.393529E-08  0.659E-04    1.67      26.4  T
   5    -59.0929550 -0.362756E-08  0.939E-05    1.67     185.5  T
   6    -59.0929550 -0.146684E-09  0.370E-05    1.67     470.9  T
     SCC iter.                  ...        0 min,  0.011 sec
     gradient                   ...        0 min,  0.039 sec
 * total energy  :   -58.5470895 Eh     change       -0.8170922E-04 Eh
   gradient norm :     0.0049781 Eh/α   predicted    -0.5740766E-04 ( -29.74%)
   displ. norm   :     0.1424844 α      lambda       -0.9282784E-04
   maximum displ.:     0.0759596 α      in ANC's #2, #1, #6, ...

........................................................................
.............................. CYCLE    8 ..............................
........................................................................
   1    -59.0931982 -0.590932E+02  0.834E-03    1.67       0.0  T
   2    -59.0932004 -0.215503E-05  0.443E-03    1.67       3.9  T
   3    -59.0932007 -0.354916E-06  0.191E-03    1.67       9.1  T
   4    -59.0932007 -0.271721E-08  0.571E-04    1.67      30.5  T
   5    -59.0932007 -0.937767E-09  0.118E-04    1.67     147.4  T
   6    -59.0932007 -0.443940E-09  0.329E-05    1.67     529.8  T
     SCC iter.                  ...        0 min,  0.013 sec
     gradient                   ...        0 min,  0.040 sec
 * total energy  :   -58.5471600 Eh     change       -0.7050183E-04 Eh
   gradient norm :     0.0050155 Eh/α   predicted    -0.4735979E-04 ( -32.82%)
   displ. norm   :     0.1887987 α      lambda       -0.1025948E-03
   maximum displ.:     0.1071947 α      in ANC's #2, #1, #6, ...

........................................................................
.............................. CYCLE    9 ..............................
........................................................................
   1    -59.0929740 -0.590930E+02  0.934E-03    1.67       0.0  T
   2    -59.0929772 -0.320833E-05  0.480E-03    1.68       3.6  T
   3    -59.0929777 -0.552865E-06  0.168E-03    1.68      10.4  T
   4    -59.0929777 -0.310609E-08  0.586E-04    1.68      29.7  T
   5    -59.0929777 -0.960299E-09  0.109E-04    1.68     159.2  T
   6    -59.0929777 -0.421956E-09  0.355E-05    1.68     490.3  T
     SCC iter.                  ...        0 min,  0.012 sec
     gradient                   ...        0 min,  0.056 sec
 * total energy  :   -58.5472436 Eh     change       -0.8359383E-04 Eh
   gradient norm :     0.0055407 Eh/α   predicted    -0.5312947E-04 ( -36.44%)
   displ. norm   :     0.2847786 α      lambda       -0.1478361E-03
   maximum displ.:     0.1666574 α      in ANC's #2, #1, #6, ...

........................................................................
.............................. CYCLE   10 ..............................
........................................................................
   1    -59.0922269 -0.590922E+02  0.962E-03    1.67       0.0  T
   2    -59.0922307 -0.381940E-05  0.489E-03    1.68       3.6  T
   3    -59.0922313 -0.596097E-06  0.175E-03    1.68      10.0  T
   4    -59.0922313 -0.836519E-08  0.658E-04    1.68      26.4  T
   5    -59.0922313 -0.122874E-08  0.164E-04    1.68     106.3  T
   6    -59.0922313 -0.413799E-09  0.495E-05    1.68     352.0  T
     SCC iter.                  ...        0 min,  0.012 sec
     gradient                   ...        0 min,  0.056 sec
 * total energy  :   -58.5473642 Eh     change       -0.1205765E-03 Eh
   gradient norm :     0.0068951 Eh/α   predicted    -0.7991475E-04 ( -33.72%)
   displ. norm   :     0.3450979 α      lambda       -0.1828084E-03
   maximum displ.:     0.2086222 α      in ANC's #2, #1, #6, ...

........................................................................
.............................. CYCLE   11 ..............................
........................................................................
   1    -59.0915512 -0.590916E+02  0.912E-03    1.68       0.0  T
   2    -59.0915541 -0.290282E-05  0.395E-03    1.69       4.4  T
   3    -59.0915543 -0.295370E-06  0.180E-03    1.69       9.7  T
   4    -59.0915544 -0.134264E-07  0.661E-04    1.69      26.3  T
   5    -59.0915544 -0.199518E-08  0.201E-04    1.69      86.5  T
   6    -59.0915544 -0.367130E-09  0.493E-05    1.69     352.8  T
   7    -59.0915544 -0.384048E-10  0.169E-05    1.69    1027.6  T
     SCC iter.                  ...        0 min,  0.014 sec
     gradient                   ...        0 min,  0.056 sec
 * total energy  :   -58.5475142 Eh     change       -0.1500782E-03 Eh
   gradient norm :     0.0078999 Eh/α   predicted    -0.1022922E-03 ( -31.84%)
   displ. norm   :     0.3577714 α      lambda       -0.1988364E-03
   maximum displ.:     0.2230839 α      in ANC's #1, #2, #6, ...

........................................................................
.............................. CYCLE   12 ..............................
........................................................................
   1    -59.0914040 -0.590914E+02  0.129E-02    1.71       0.0  T
   2    -59.0914082 -0.420974E-05  0.466E-03    1.71       3.7  T
   3    -59.0914085 -0.368215E-06  0.210E-03    1.71       8.3  T
   4    -59.0914086 -0.164463E-07  0.711E-04    1.72      24.5  T
   5    -59.0914086 -0.909679E-09  0.185E-04    1.72      94.0  T
   6    -59.0914086 -0.473015E-09  0.456E-05    1.72     381.4  T
     SCC iter.                  ...        0 min,  0.012 sec
     gradient                   ...        0 min,  0.056 sec
 * total energy  :   -58.5476742 Eh     change       -0.1599799E-03 Eh
   gradient norm :     0.0074986 Eh/α   predicted    -0.1121449E-03 ( -29.90%)
   displ. norm   :     0.3491861 α      lambda       -0.1924651E-03
   maximum displ.:     0.2229596 α      in ANC's #1, #2, #6, ...

........................................................................
.............................. CYCLE   13 ..............................
........................................................................
   1    -59.0918888 -0.590919E+02  0.178E-02    1.73       0.0  T
   2    -59.0918980 -0.925755E-05  0.664E-03    1.74       2.6  T
   3    -59.0918991 -0.101223E-05  0.233E-03    1.74       7.5  T
   4    -59.0918991 -0.216720E-07  0.101E-03    1.74      17.2  T
   5    -59.0918991 -0.417408E-09  0.278E-04    1.74      62.7  T
   6    -59.0918991 -0.156789E-08  0.500E-05    1.74     348.0  T
   7    -59.0918991 -0.553726E-10  0.139E-05    1.74    1253.4  T
     SCC iter.                  ...        0 min,  0.014 sec
     gradient                   ...        0 min,  0.056 sec
 * total energy  :   -58.5478286 Eh     change       -0.1543739E-03 Eh
   gradient norm :     0.0068043 Eh/α   predicted    -0.1079706E-03 ( -30.06%)
   displ. norm   :     0.3498467 α      lambda       -0.1698296E-03
   maximum displ.:     0.2254463 α      in ANC's #2, #1, #6, ...

........................................................................
.............................. CYCLE   14 ..............................
........................................................................
   1    -59.0920132 -0.590920E+02  0.173E-02    1.75       0.0  T
   2    -59.0920225 -0.937623E-05  0.649E-03    1.76       2.7  T
   3    -59.0920235 -0.990064E-06  0.238E-03    1.76       7.3  T
   4    -59.0920235 -0.231607E-07  0.108E-03    1.77      16.2  T
   5    -59.0920235 -0.343903E-09  0.292E-04    1.77      59.7  T
   6    -59.0920235 -0.156326E-08  0.563E-05    1.77     309.3  T
   7    -59.0920235 -0.534186E-10  0.142E-05    1.77    1225.2  T
     SCC iter.                  ...        0 min,  0.014 sec
     gradient                   ...        0 min,  0.056 sec
 * total energy  :   -58.5479598 Eh     change       -0.1311682E-03 Eh
   gradient norm :     0.0061196 Eh/α   predicted    -0.9530880E-04 ( -27.34%)
   displ. norm   :     0.3329036 α      lambda       -0.1879547E-03
   maximum displ.:     0.2193213 α      in ANC's #2, #1, #6, ...

........................................................................
.............................. CYCLE   15 ..............................
........................................................................
   1    -59.0954002 -0.590954E+02  0.163E-02    1.80       0.0  T
   2    -59.0954073 -0.707760E-05  0.708E-03    1.81       2.5  T
   3    -59.0954080 -0.718220E-06  0.346E-03    1.81       5.0  T
   4    -59.0954081 -0.233886E-07  0.113E-03    1.81      15.3  T
   5    -59.0954081 -0.269612E-08  0.223E-04    1.81      78.1  T
   6    -59.0954081 -0.105568E-08  0.414E-05    1.81     420.8  T
   7    -59.0954081 -0.240590E-10  0.149E-05    1.81    1166.0  T
     SCC iter.                  ...        0 min,  0.015 sec
     gradient                   ...        0 min,  0.057 sec
 * total energy  :   -58.5480686 Eh     change       -0.1088622E-03 Eh
   gradient norm :     0.0120352 Eh/α   predicted    -0.1043975E-03 (  -4.10%)
   displ. norm   :     0.5048679 α      lambda       -0.2823905E-03
   maximum displ.:     0.3251683 α      in ANC's #2, #1, #6, ...

........................................................................
.............................. CYCLE   16 ..............................
........................................................................
   1    -59.0921687 -0.590922E+02  0.221E-02    1.75       0.0  T
   2    -59.0921918 -0.231537E-04  0.894E-03    1.79       1.9  T
   3    -59.0921940 -0.214339E-05  0.353E-03    1.79       4.9  T
   4    -59.0921941 -0.721803E-07  0.186E-03    1.79       9.3  T
   5    -59.0921941 -0.403851E-09  0.530E-04    1.79      32.9  T
   6    -59.0921941 -0.437498E-08  0.956E-05    1.79     182.0  T
   7    -59.0921941 -0.181359E-09  0.232E-05    1.79     751.9  T
     SCC iter.                  ...        0 min,  0.014 sec
     gradient                   ...        0 min,  0.056 sec
 * total energy  :   -58.5482619 Eh     change       -0.1932592E-03 Eh
   gradient norm :     0.0125360 Eh/α   predicted    -0.1771919E-03 (  -8.31%)
   displ. norm   :     0.4255769 α      lambda       -0.3490315E-03
   maximum displ.:     0.2860128 α      in ANC's #2, #1, #6, ...

........................................................................
.............................. CYCLE   17 ..............................
........................................................................
   1    -59.0913903 -0.590914E+02  0.141E-02    1.82       0.0  T
   2    -59.0913934 -0.311801E-05  0.604E-03    1.83       2.9  T
   3    -59.0913936 -0.201942E-06  0.290E-03    1.83       6.0  T
   4    -59.0913937 -0.516956E-07  0.862E-04    1.84      20.2  T
   5    -59.0913937 -0.269270E-08  0.138E-04    1.84     126.1  T
   6    -59.0913937 -0.188614E-09  0.403E-05    1.84     431.7  T
     SCC iter.                  ...        0 min,  0.012 sec
     gradient                   ...        0 min,  0.056 sec
 * total energy  :   -58.5484729 Eh     change       -0.2109662E-03 Eh
   gradient norm :     0.0114142 Eh/α   predicted    -0.2061272E-03 (  -2.29%)
   displ. norm   :     0.4053321 α      lambda       -0.3461945E-03
   maximum displ.:     0.2644451 α      in ANC's #2, #1, #4, ...

........................................................................
.............................. CYCLE   18 ..............................
........................................................................
   1    -59.0915634 -0.590916E+02  0.157E-02    1.83       0.0  T
   2    -59.0915717 -0.828333E-05  0.594E-03    1.85       2.9  T
   3    -59.0915726 -0.910212E-06  0.201E-03    1.85       8.7  T
   4    -59.0915726 -0.198479E-07  0.818E-04    1.85      21.3  T
   5    -59.0915727 -0.743150E-09  0.175E-04    1.85      99.4  T
   6    -59.0915727 -0.537732E-09  0.437E-05    1.85     398.2  T
     SCC iter.                  ...        0 min,  0.012 sec
     gradient                   ...        0 min,  0.056 sec
 * total energy  :   -58.5487718 Eh     change       -0.2989129E-03 Eh
   gradient norm :     0.0077319 Eh/α   predicted    -0.2015398E-03 ( -32.58%)
   displ. norm   :     0.5567440 α      lambda       -0.4950705E-03
   maximum displ.:     0.3502298 α      in ANC's #2, #1, #4, ...

........................................................................
.............................. CYCLE   19 ..............................
........................................................................
   1    -59.0923430 -0.590923E+02  0.274E-02    1.87       0.0  T
   2    -59.0923663 -0.232909E-04  0.950E-03    1.90       1.8  T
   3    -59.0923686 -0.232063E-05  0.300E-03    1.89       5.8  T
   4    -59.0923687 -0.412564E-07  0.137E-03    1.90      12.7  T
   5    -59.0923687 -0.158225E-08  0.363E-04    1.90      47.9  T
   6    -59.0923687 -0.181142E-08  0.917E-05    1.90     189.8  T
   7    -59.0923687 -0.164817E-09  0.316E-05    1.90     550.0  T
     SCC iter.                  ...        0 min,  0.014 sec
     gradient                   ...        0 min,  0.056 sec
 * total energy  :   -58.5491069 Eh     change       -0.3350811E-03 Eh
   gradient norm :     0.0074017 Eh/α   predicted    -0.3242657E-03 (  -3.23%)
   displ. norm   :     0.6845081 α      lambda       -0.3415523E-03
   maximum displ.:     0.4595889 α      in ANC's #2, #1, #4, ...

........................................................................
.............................. CYCLE   20 ..............................
........................................................................
   1    -59.0845179 -0.590845E+02  0.339E-02    1.82       0.0  T
   2    -59.0845743 -0.563494E-04  0.169E-02    1.88       1.0  T
   3    -59.0845810 -0.672639E-05  0.657E-03    1.88       2.7  T
   4    -59.0845811 -0.149463E-06  0.295E-03    1.88       5.9  T
   5    -59.0845811 -0.145410E-08  0.681E-04    1.88      25.6  T
   6    -59.0845811 -0.131564E-07  0.132E-04    1.88     131.6  T
   7    -59.0845811 -0.311914E-09  0.519E-05    1.88     335.3  T
     SCC iter.                  ...        0 min,  0.014 sec
     gradient                   ...        0 min,  0.056 sec
 * total energy  :   -58.5491878 Eh     change       -0.8092434E-04 Eh
   gradient norm :     0.0136432 Eh/α   predicted    -0.2508091E-03 ( 209.93%)
   displ. norm   :     0.1469661 α      lambda       -0.4226845E-03
   maximum displ.:     0.0891567 α      in ANC's #4, #6, #9, ...
 * RMSD in coord.:     0.8759959 α      energy gain  -0.2040575E-01 Eh

generating ANC from model Hessian ...
Using Lindh-Hessian (1995)
 Shifting diagonal of input Hessian by   9.312480075269882E-003
 Lowest  eigenvalues of input Hessian
    0.000000    0.000000    0.000000    0.000000    0.000000    0.000000
    0.010000    0.010065    0.010944    0.012445    0.012922    0.013595
    0.015895    0.016341    0.016856    0.018614    0.018876    0.019186
 Highest eigenvalues
    1.665243    1.726142    1.970883    2.112179    2.252225    2.293077
 

........................................................................
.............................. CYCLE   21 ..............................
........................................................................
   1    -59.0922495 -0.590922E+02  0.194E-02    1.91       0.0  T
   2    -59.0922581 -0.852796E-05  0.923E-03    1.91       1.9  T
   3    -59.0922588 -0.710645E-06  0.494E-03    1.91       3.5  T
   4    -59.0922588 -0.260382E-07  0.116E-03    1.91      15.1  T
   5    -59.0922588 -0.937427E-08  0.216E-04    1.91      80.6  T
   6    -59.0922588 -0.105955E-08  0.654E-05    1.91     266.0  T
   7    -59.0922588 -0.637854E-10  0.191E-05    1.91     909.5  T
     SCC iter.                  ...        0 min,  0.014 sec
     gradient                   ...        0 min,  0.056 sec
 * total energy  :   -58.5494342 Eh     change       -0.2464643E-03 Eh
   gradient norm :     0.0078771 Eh/α   predicted     0.0000000E+00 (-100.00%)
   displ. norm   :     0.0581840 α      lambda       -0.1227858E-03
   maximum displ.:     0.0373760 α      in ANC's #2, #3, #22, ...

........................................................................
.............................. CYCLE   22 ..............................
........................................................................
   1    -59.0936107 -0.590936E+02  0.775E-03    1.92       0.0  T
   2    -59.0936119 -0.126181E-05  0.325E-03    1.92       5.4  T
   3    -59.0936120 -0.592739E-07  0.175E-03    1.92      10.0  T
   4    -59.0936120 -0.533962E-08  0.577E-04    1.92      30.2  T
   5    -59.0936120 -0.126325E-08  0.688E-05    1.92     252.8  T
   6    -59.0936120 -0.709761E-10  0.191E-05    1.92     911.5  T
     SCC iter.                  ...        0 min,  0.012 sec
     gradient                   ...        0 min,  0.057 sec
 * total energy  :   -58.5495355 Eh     change       -0.1012386E-03 Eh
   gradient norm :     0.0034106 Eh/α   predicted    -0.6802740E-04 ( -32.80%)
   displ. norm   :     0.1131238 α      lambda       -0.1257633E-03
   maximum displ.:     0.0787925 α      in ANC's #2, #3, #1, ...

........................................................................
.............................. CYCLE   23 ..............................
........................................................................
   1    -59.0945435 -0.590945E+02  0.106E-02    1.93       0.0  T
   2    -59.0945467 -0.319721E-05  0.391E-03    1.94       4.5  T
   3    -59.0945467 -0.829370E-07  0.208E-03    1.94       8.4  T
   4    -59.0945467 -0.338629E-08  0.846E-04    1.94      20.6  T
   5    -59.0945467 -0.332552E-08  0.813E-05    1.94     214.0  T
   6    -59.0945467 -0.969820E-10  0.293E-05    1.94     594.4  T
     SCC iter.                  ...        0 min,  0.012 sec
     gradient                   ...        0 min,  0.056 sec
 * total energy  :   -58.5496241 Eh     change       -0.8865625E-04 Eh
   gradient norm :     0.0032258 Eh/α   predicted    -0.6369025E-04 ( -28.16%)
   displ. norm   :     0.1371343 α      lambda       -0.9063142E-04
   maximum displ.:     0.0965711 α      in ANC's #2, #3, #1, ...

........................................................................
.............................. CYCLE   24 ..............................
........................................................................
   1    -59.0944356 -0.590944E+02  0.915E-03    1.94       0.0  T
   2    -59.0944383 -0.269570E-05  0.334E-03    1.95       5.2  T
   3    -59.0944384 -0.855268E-07  0.178E-03    1.95       9.8  T
   4    -59.0944384 -0.366594E-08  0.787E-04    1.95      22.1  T
   5    -59.0944384 -0.297177E-08  0.902E-05    1.95     193.0  T
   6    -59.0944384 -0.162643E-09  0.343E-05    1.95     506.9  T
     SCC iter.                  ...        0 min,  0.012 sec
     gradient                   ...        0 min,  0.056 sec
 * total energy  :   -58.5496968 Eh     change       -0.7270792E-04 Eh
   gradient norm :     0.0049343 Eh/α   predicted    -0.4616846E-04 ( -36.50%)
   displ. norm   :     0.1995660 α      lambda       -0.1170420E-03
   maximum displ.:     0.1391819 α      in ANC's #2, #3, #1, ...

........................................................................
.............................. CYCLE   25 ..............................
........................................................................
   1    -59.0935379 -0.590935E+02  0.122E-02    1.95       0.0  T
   2    -59.0935425 -0.459483E-05  0.524E-03    1.96       3.3  T
   3    -59.0935428 -0.317385E-06  0.266E-03    1.96       6.5  T
   4    -59.0935428 -0.961550E-08  0.102E-03    1.96      17.1  T
   5    -59.0935428 -0.375154E-08  0.146E-04    1.96     119.5  T
   6    -59.0935428 -0.489337E-09  0.514E-05    1.96     338.5  T
     SCC iter.                  ...        0 min,  0.012 sec
     gradient                   ...        0 min,  0.056 sec
 * total energy  :   -58.5497887 Eh     change       -0.9186447E-04 Eh
   gradient norm :     0.0053203 Eh/α   predicted    -0.6085247E-04 ( -33.76%)
   displ. norm   :     0.2160252 α      lambda       -0.1070975E-03
   maximum displ.:     0.1503118 α      in ANC's #2, #3, #1, ...

........................................................................
.............................. CYCLE   26 ..............................
........................................................................
   1    -59.0926017 -0.590926E+02  0.121E-02    1.96       0.0  T
   2    -59.0926066 -0.492671E-05  0.562E-03    1.97       3.1  T
   3    -59.0926071 -0.469699E-06  0.267E-03    1.97       6.5  T
   4    -59.0926071 -0.845881E-08  0.904E-04    1.97      19.3  T
   5    -59.0926071 -0.215744E-08  0.157E-04    1.97     111.1  T
   6    -59.0926071 -0.493550E-09  0.481E-05    1.97     361.7  T
     SCC iter.                  ...        0 min,  0.012 sec
     gradient                   ...        0 min,  0.056 sec
 * total energy  :   -58.5498696 Eh     change       -0.8092055E-04 Eh
   gradient norm :     0.0041452 Eh/α   predicted    -0.5604870E-04 ( -30.74%)
   displ. norm   :     0.1836221 α      lambda       -0.8131660E-04
   maximum displ.:     0.1265873 α      in ANC's #2, #1, #4, ...

........................................................................
.............................. CYCLE   27 ..............................
........................................................................
   1    -59.0925069 -0.590925E+02  0.818E-03    1.97       0.0  T
   2    -59.0925099 -0.300701E-05  0.389E-03    1.98       4.5  T
   3    -59.0925102 -0.289586E-06  0.165E-03    1.98      10.6  T
   4    -59.0925102 -0.606911E-08  0.668E-04    1.98      26.1  T
   5    -59.0925102 -0.610612E-09  0.103E-04    1.98     169.5  T
   6    -59.0925102 -0.916103E-10  0.224E-05    1.98     776.8  T
     SCC iter.                  ...        0 min,  0.011 sec
     gradient                   ...        0 min,  0.056 sec
 * total energy  :   -58.5499341 Eh     change       -0.6447357E-04 Eh
   gradient norm :     0.0029937 Eh/α   predicted    -0.4203009E-04 ( -34.81%)
   displ. norm   :     0.2082655 α      lambda       -0.8672183E-04
   maximum displ.:     0.1387888 α      in ANC's #2, #1, #4, ...

........................................................................
.............................. CYCLE   28 ..............................
........................................................................
   1    -59.0926679 -0.590927E+02  0.776E-03    1.97       0.0  T
   2    -59.0926712 -0.334406E-05  0.371E-03    1.98       4.7  T
   3    -59.0926715 -0.351573E-06  0.128E-03    1.98      13.6  T
   4    -59.0926716 -0.781679E-08  0.683E-04    1.98      25.5  T
   5    -59.0926716 -0.683379E-09  0.154E-04    1.98     112.8  T
   6    -59.0926716 -0.442988E-09  0.354E-05    1.98     491.8  T
     SCC iter.                  ...        0 min,  0.011 sec
     gradient                   ...        0 min,  0.056 sec
 * total energy  :   -58.5500053 Eh     change       -0.7119625E-04 Eh
   gradient norm :     0.0036861 Eh/α   predicted    -0.4524207E-04 ( -36.45%)
   displ. norm   :     0.2770954 α      lambda       -0.1078042E-03
   maximum displ.:     0.1804152 α      in ANC's #2, #1, #4, ...

........................................................................
.............................. CYCLE   29 ..............................
........................................................................
   1    -59.0925685 -0.590926E+02  0.948E-03    1.98       0.0  T
   2    -59.0925735 -0.496237E-05  0.459E-03    1.99       3.8  T
   3    -59.0925741 -0.620969E-06  0.130E-03    1.99      13.4  T
   4    -59.0925741 -0.119150E-07  0.749E-04    1.99      23.2  T
   5    -59.0925741 -0.114188E-08  0.216E-04    1.99      80.5  T
   6    -59.0925741 -0.710394E-09  0.407E-05    1.99     427.4  T
   7    -59.0925741 -0.305249E-10  0.165E-05    1.99    1054.0  T
     SCC iter.                  ...        0 min,  0.013 sec
     gradient                   ...        0 min,  0.048 sec
 * total energy  :   -58.5500909 Eh     change       -0.8563579E-04 Eh
   gradient norm :     0.0048108 Eh/α   predicted    -0.5804342E-04 ( -32.22%)
   displ. norm   :     0.2965701 α      lambda       -0.1010266E-03
   maximum displ.:     0.1930997 α      in ANC's #2, #1, #4, ...

........................................................................
.............................. CYCLE   30 ..............................
........................................................................
   1    -59.0923919 -0.590924E+02  0.947E-03    1.99       0.0  T
   2    -59.0923967 -0.480774E-05  0.465E-03    2.00       3.7  T
   3    -59.0923973 -0.663244E-06  0.118E-03    2.00      14.8  T
   4    -59.0923973 -0.100440E-07  0.668E-04    2.00      26.1  T
   5    -59.0923973 -0.118249E-08  0.212E-04    2.00      82.0  T
   6    -59.0923973 -0.425864E-09  0.404E-05    2.00     431.0  T
   7    -59.0923973 -0.286775E-10  0.150E-05    2.00    1161.3  T
     SCC iter.                  ...        0 min,  0.014 sec
     gradient                   ...        0 min,  0.052 sec
 * total energy  :   -58.5501675 Eh     change       -0.7660312E-04 Eh
   gradient norm :     0.0051337 Eh/α   predicted    -0.5495857E-04 ( -28.26%)
   displ. norm   :     0.2509530 α      lambda       -0.7769270E-04
   maximum displ.:     0.1665968 α      in ANC's #2, #1, #4, ...

........................................................................
.............................. CYCLE   31 ..............................
........................................................................
   1    -59.0926795 -0.590927E+02  0.765E-03    2.00       0.0  T
   2    -59.0926825 -0.299204E-05  0.365E-03    2.02       4.8  T
   3    -59.0926829 -0.338797E-06  0.125E-03    2.01      13.9  T
   4    -59.0926829 -0.477593E-08  0.640E-04    2.01      27.2  T
   5    -59.0926829 -0.792575E-09  0.147E-04    2.01     118.3  T
   6    -59.0926829 -0.244462E-09  0.293E-05    2.01     594.4  T
     SCC iter.                  ...        0 min,  0.009 sec
     gradient                   ...        0 min,  0.047 sec
 * total energy  :   -58.5502258 Eh     change       -0.5822575E-04 Eh
   gradient norm :     0.0039608 Eh/α   predicted    -0.4129689E-04 ( -29.07%)
   displ. norm   :     0.2060403 α      lambda       -0.5534231E-04
   maximum displ.:     0.1410592 α      in ANC's #2, #1, #4, ...

........................................................................
.............................. CYCLE   32 ..............................
........................................................................
   1    -59.0930557 -0.590931E+02  0.651E-03    2.02       0.0  T
   2    -59.0930575 -0.183418E-05  0.243E-03    2.03       7.2  T
   3    -59.0930576 -0.700387E-07  0.126E-03    2.03      13.8  T
   4    -59.0930576 -0.791267E-08  0.611E-04    2.03      28.5  T
   5    -59.0930576 -0.130037E-08  0.816E-05    2.03     213.4  T
   6    -59.0930576 -0.866223E-10  0.166E-05    2.03    1048.9  T
     SCC iter.                  ...        0 min,  0.012 sec
     gradient                   ...        0 min,  0.053 sec
 * total energy  :   -58.5502670 Eh     change       -0.4119441E-04 Eh
   gradient norm :     0.0019581 Eh/α   predicted    -0.2884694E-04 ( -29.97%)
   displ. norm   :     0.2508932 α      lambda       -0.3239783E-04
   maximum displ.:     0.1760345 α      in ANC's #2, #1, #4, ...

........................................................................
.............................. CYCLE   33 ..............................
........................................................................
   1    -59.0934778 -0.590935E+02  0.703E-03    2.04       0.0  T
   2    -59.0934796 -0.180160E-05  0.209E-03    2.04       8.3  T
   3    -59.0934797 -0.216570E-07  0.127E-03    2.04      13.7  T
   4    -59.0934797 -0.277439E-08  0.500E-04    2.04      34.8  T
   5    -59.0934797 -0.194924E-08  0.806E-05    2.04     216.0  T
   6    -59.0934797 -0.116309E-09  0.231E-05    2.04     753.8  T
     SCC iter.                  ...        0 min,  0.012 sec
     gradient                   ...        0 min,  0.054 sec
 * total energy  :   -58.5503002 Eh     change       -0.3328611E-04 Eh
   gradient norm :     0.0023485 Eh/α   predicted    -0.1665385E-04 ( -49.97%)
   displ. norm   :     0.1018053 α      lambda       -0.1849469E-04
   maximum displ.:     0.0731741 α      in ANC's #2, #1, #6, ...

........................................................................
.............................. CYCLE   34 ..............................
........................................................................
   1    -59.0934566 -0.590935E+02  0.201E-03    2.05       0.0  T
   2    -59.0934567 -0.117997E-06  0.973E-04    2.05      17.9  T
   3    -59.0934567 -0.823353E-08  0.512E-04    2.05      34.0  T
   4    -59.0934567 -0.159432E-09  0.158E-04    2.05     109.9  T
   5    -59.0934567 -0.123450E-09  0.248E-05    2.05     702.4  T
     SCC iter.                  ...        0 min,  0.010 sec
     gradient                   ...        0 min,  0.055 sec
 * total energy  :   -58.5503172 Eh     change       -0.1699904E-04 Eh
   gradient norm :     0.0021420 Eh/α   predicted    -0.9347766E-05 ( -45.01%)
   displ. norm   :     0.1535705 α      lambda       -0.3853024E-04
   maximum displ.:     0.1048988 α      in ANC's #2, #1, #3, ...

........................................................................
.............................. CYCLE   35 ..............................
........................................................................
   1    -59.0943499 -0.590943E+02  0.311E-03    2.05       0.0  T
   2    -59.0943503 -0.428178E-06  0.199E-03    2.05       8.7  T
   3    -59.0943503 -0.485499E-07  0.101E-03    2.05      17.3  T
   4    -59.0943503  0.553399E-09  0.402E-04    2.05      43.3  T
   5    -59.0943503 -0.118807E-08  0.468E-05    2.05     371.8  T
   6    -59.0943503 -0.203357E-10  0.156E-05    2.05    1119.2  T
     SCC iter.                  ...        0 min,  0.011 sec
     gradient                   ...        0 min,  0.053 sec
 * total energy  :   -58.5503492 Eh     change       -0.3197859E-04 Eh
   gradient norm :     0.0023989 Eh/α   predicted    -0.1972060E-04 ( -38.33%)
   displ. norm   :     0.2726881 α      lambda       -0.6013660E-04
   maximum displ.:     0.1881451 α      in ANC's #2, #1, #6, ...

........................................................................
.............................. CYCLE   36 ..............................
........................................................................
   1    -59.0931398 -0.590931E+02  0.703E-03    2.05       0.0  T
   2    -59.0931415 -0.160832E-05  0.408E-03    2.05       4.3  T
   3    -59.0931416 -0.172167E-06  0.209E-03    2.05       8.3  T
   4    -59.0931416  0.178732E-08  0.605E-04    2.05      28.8  T
   5    -59.0931416 -0.325975E-08  0.808E-05    2.05     215.4  T
   6    -59.0931416 -0.150990E-09  0.263E-05    2.05     660.9  T
     SCC iter.                  ...        0 min,  0.011 sec
     gradient                   ...        0 min,  0.053 sec
 * total energy  :   -58.5503915 Eh     change       -0.4223420E-04 Eh
   gradient norm :     0.0023332 Eh/α   predicted    -0.3230830E-04 ( -23.50%)
   displ. norm   :     0.2171564 α      lambda       -0.4059128E-04
   maximum displ.:     0.1395856 α      in ANC's #2, #1, #3, ...

........................................................................
.............................. CYCLE   37 ..............................
........................................................................
   1    -59.0933331 -0.590933E+02  0.308E-03    2.05       0.0  T
   2    -59.0933334 -0.253992E-06  0.184E-03    2.05       9.5  T
   3    -59.0933334 -0.263860E-07  0.968E-04    2.05      18.0  T
   4    -59.0933334 -0.161000E-08  0.270E-04    2.05      64.6  T
   5    -59.0933334 -0.421096E-09  0.475E-05    2.05     366.2  T
   6    -59.0933334 -0.281801E-10  0.145E-05    2.05    1202.3  T
     SCC iter.                  ...        0 min,  0.011 sec
     gradient                   ...        0 min,  0.054 sec
 * total energy  :   -58.5504231 Eh     change       -0.3161476E-04 Eh
   gradient norm :     0.0030181 Eh/α   predicted    -0.2125333E-04 ( -32.77%)
   displ. norm   :     0.2610898 α      lambda       -0.4885556E-04
   maximum displ.:     0.1634724 α      in ANC's #2, #1, #3, ...

........................................................................
.............................. CYCLE   38 ..............................
........................................................................
   1    -59.0930773 -0.590931E+02  0.269E-03    2.05       0.0  T
   2    -59.0930774 -0.105930E-06  0.120E-03    2.05      14.5  T
   3    -59.0930774 -0.563067E-08  0.647E-04    2.05      26.9  T
   4    -59.0930774 -0.140760E-08  0.180E-04    2.05      97.0  T
   5    -59.0930774 -0.125340E-09  0.357E-05    2.05     487.7  T
     SCC iter.                  ...        0 min,  0.009 sec
     gradient                   ...        0 min,  0.053 sec
 * total energy  :   -58.5504623 Eh     change       -0.3927870E-04 Eh
   gradient norm :     0.0033755 Eh/α   predicted    -0.2609505E-04 ( -33.56%)
   displ. norm   :     0.2555182 α      lambda       -0.5993317E-04
   maximum displ.:     0.1520160 α      in ANC's #2, #1, #3, ...

........................................................................
.............................. CYCLE   39 ..............................
........................................................................
   1    -59.0929724 -0.590930E+02  0.348E-03    2.04       0.0  T
   2    -59.0929729 -0.454659E-06  0.188E-03    2.05       9.2  T
   3    -59.0929729 -0.504761E-07  0.891E-04    2.05      19.5  T
   4    -59.0929729 -0.876881E-10  0.377E-04    2.05      46.2  T
   5    -59.0929729 -0.105948E-08  0.556E-05    2.05     313.0  T
   6    -59.0929729 -0.196607E-10  0.195E-05    2.05     890.5  T
     SCC iter.                  ...        0 min,  0.011 sec
     gradient                   ...        0 min,  0.056 sec
 * total energy  :   -58.5505088 Eh     change       -0.4647878E-04 Eh
   gradient norm :     0.0032918 Eh/α   predicted    -0.3192813E-04 ( -31.31%)
   displ. norm   :     0.2497363 α      lambda       -0.6218706E-04
   maximum displ.:     0.1491683 α      in ANC's #2, #1, #4, ...

........................................................................
.............................. CYCLE   40 ..............................
........................................................................
   1    -59.0926179 -0.590926E+02  0.475E-03    2.04       0.0  T
   2    -59.0926191 -0.112869E-05  0.299E-03    2.04       5.8  T
   3    -59.0926192 -0.159948E-06  0.132E-03    2.04      13.2  T
   4    -59.0926192 -0.631154E-09  0.577E-04    2.04      30.2  T
   5    -59.0926192 -0.203767E-08  0.806E-05    2.04     216.1  T
   6    -59.0926192 -0.411475E-10  0.290E-05    2.04     599.6  T
     SCC iter.                  ...        0 min,  0.012 sec
     gradient                   ...        0 min,  0.056 sec
 * total energy  :   -58.5505537 Eh     change       -0.4483059E-04 Eh
   gradient norm :     0.0032104 Eh/α   predicted    -0.3303345E-04 ( -26.31%)
   displ. norm   :     0.1469087 α      lambda       -0.4407297E-04
   maximum displ.:     0.0799060 α      in ANC's #2, #4, #7, ...

........................................................................
.............................. CYCLE   41 ..............................
........................................................................
   1    -59.0933261 -0.590933E+02  0.463E-03    2.04       0.0  T
   2    -59.0933269 -0.835057E-06  0.281E-03    2.04       6.2  T
   3    -59.0933270 -0.123765E-06  0.131E-03    2.04      13.3  T
   4    -59.0933270 -0.728257E-09  0.418E-04    2.04      41.6  T
   5    -59.0933270 -0.949186E-09  0.834E-05    2.04     208.8  T
   6    -59.0933270 -0.670113E-10  0.291E-05    2.04     597.2  T
     SCC iter.                  ...        0 min,  0.011 sec
     gradient                   ...        0 min,  0.056 sec
 * total energy  :   -58.5505855 Eh     change       -0.3183353E-04 Eh
   gradient norm :     0.0029355 Eh/α   predicted    -0.2251625E-04 ( -29.27%)
   displ. norm   :     0.1709614 α      lambda       -0.4233414E-04
   maximum displ.:     0.1092390 α      in ANC's #2, #4, #7, ...

........................................................................
.............................. CYCLE   42 ..............................
........................................................................
   1    -59.0930114 -0.590930E+02  0.373E-03    2.05       0.0  T
   2    -59.0930117 -0.280040E-06  0.204E-03    2.05       8.5  T
   3    -59.0930117 -0.420034E-07  0.104E-03    2.05      16.7  T
   4    -59.0930117 -0.161052E-08  0.227E-04    2.05      76.7  T
   5    -59.0930117 -0.373142E-09  0.633E-05    2.05     275.1  T
   6    -59.0930117 -0.610214E-10  0.209E-05    2.05     832.3  T
     SCC iter.                  ...        0 min,  0.011 sec
     gradient                   ...        0 min,  0.056 sec
 * total energy  :   -58.5506156 Eh     change       -0.3015704E-04 Eh
   gradient norm :     0.0028253 Eh/α   predicted    -0.2178956E-04 ( -27.75%)
   displ. norm   :     0.1074615 α      lambda       -0.3589239E-04
   maximum displ.:     0.0607198 α      in ANC's #2, #4, #7, ...
 * RMSD in coord.:     0.6200741 α      energy gain  -0.1427872E-02 Eh

generating ANC from model Hessian ...
Using Lindh-Hessian (1995)
 Shifting diagonal of input Hessian by   9.324445829108043E-003
 Lowest  eigenvalues of input Hessian
    0.000000    0.000000    0.000000    0.000000    0.000000    0.000000
    0.010000    0.010090    0.010996    0.012520    0.012752    0.013645
    0.015903    0.016749    0.017012    0.018580    0.018881    0.019169
 Highest eigenvalues
    1.660523    1.729875    1.944626    2.110880    2.250176    2.284382
 

........................................................................
.............................. CYCLE   43 ..............................
........................................................................
   1    -59.0939216 -0.590939E+02  0.351E-03    2.05       0.0  T
   2    -59.0939217 -0.887502E-07  0.173E-03    2.05      10.1  T
   3    -59.0939217 -0.628522E-08  0.800E-04    2.05      21.8  T
   4    -59.0939217 -0.370078E-08  0.187E-04    2.05      93.3  T
   5    -59.0939217 -0.131898E-09  0.330E-05    2.05     526.8  T
     SCC iter.                  ...        0 min,  0.009 sec
     gradient                   ...        0 min,  0.056 sec
 * total energy  :   -58.5506392 Eh     change       -0.2354354E-04 Eh
   gradient norm :     0.0022014 Eh/α   predicted     0.0000000E+00 (-100.00%)
   displ. norm   :     0.0208201 α      lambda       -0.9246334E-05
   maximum displ.:     0.0131244 α      in ANC's #2, #15, #5, ...

........................................................................
.............................. CYCLE   44 ..............................
........................................................................
   1    -59.0938956 -0.590939E+02  0.236E-03    2.05       0.0  T
   2    -59.0938958 -0.169140E-06  0.798E-04    2.05      21.8  T
   3    -59.0938958 -0.115202E-07  0.373E-04    2.05      46.6  T
   4    -59.0938958 -0.674106E-09  0.168E-04    2.05     103.3  T
   5    -59.0938958 -0.152269E-10  0.315E-05    2.05     553.2  T
     SCC iter.                  ...        0 min,  0.011 sec
     gradient                   ...        0 min,  0.056 sec
 * total energy  :   -58.5506486 Eh     change       -0.9395158E-05 Eh
   gradient norm :     0.0010000 Eh/α   predicted    -0.5809147E-05 ( -38.17%)
   displ. norm   :     0.0707134 α      lambda       -0.1438164E-04
   maximum displ.:     0.0475956 α      in ANC's #2, #1, #5, ...

........................................................................
.............................. CYCLE   45 ..............................
........................................................................
   1    -59.0937945 -0.590938E+02  0.526E-03    2.04       0.0  T
   2    -59.0937955 -0.976910E-06  0.192E-03    2.04       9.1  T
   3    -59.0937956 -0.639573E-07  0.860E-04    2.04      20.2  T
   4    -59.0937956 -0.408677E-08  0.415E-04    2.04      42.0  T
   5    -59.0937956 -0.166757E-09  0.732E-05    2.04     238.0  T
   6    -59.0937956 -0.141156E-09  0.172E-05    2.04    1012.7  T
     SCC iter.                  ...        0 min,  0.011 sec
     gradient                   ...        0 min,  0.056 sec
 * total energy  :   -58.5506587 Eh     change       -0.1007946E-04 Eh
   gradient norm :     0.0016040 Eh/α   predicted    -0.7393631E-05 ( -26.65%)
   displ. norm   :     0.0214120 α      lambda       -0.3559943E-05
   maximum displ.:     0.0171745 α      in ANC's #2, #1, #5, ...

........................................................................
.............................. CYCLE   46 ..............................
........................................................................
   1    -59.0938553 -0.590939E+02  0.128E-03    2.04       0.0  T
   2    -59.0938553 -0.383435E-07  0.384E-04    2.04      45.3  T
   3    -59.0938553 -0.314906E-08  0.172E-04    2.04     101.0  T
   4    -59.0938553 -0.906795E-10  0.622E-05    2.04     280.0  T
     SCC iter.                  ...        0 min,  0.008 sec
     gradient                   ...        0 min,  0.056 sec
 * total energy  :   -58.5506634 Eh     change       -0.4691919E-05 Eh
   gradient norm :     0.0008886 Eh/α   predicted    -0.1781052E-05 ( -62.04%)
   displ. norm   :     0.0516177 α      lambda       -0.6535983E-05
   maximum displ.:     0.0390241 α      in ANC's #2, #1, #14, ...

   *** GEOMETRY OPTIMIZATION CONVERGED AFTER 46 ITERATIONS ***

------------------------------------------------------------------------
 total energy gain   :        -0.0218813 Eh      -13.7307 kcal/mol
 total RMSD          :         1.4143783 a0        0.7485 Å
 total power (kW/mol):        -1.2489007 (step)  -13.2097 (real)
------------------------------------------------------------------------

 ANCopt (total)                0 d,  0 h,  0 min,  4.349 sec
 optimizer setup                ...        0 min,  0.001 sec (  0.017%)
 model hessian                  ...        0 min,  0.070 sec (  1.610%)
 ANC generation                 ...        0 min,  0.005 sec (  0.104%)
 coordinate transformation      ...        0 min,  0.001 sec (  0.026%)
 single point calculation       ...        0 min,  4.239 sec ( 97.476%)
 optimization log               ...        0 min,  0.022 sec (  0.505%)
 hessian update                 ...        0 min,  0.001 sec (  0.023%)
 rational function              ...        0 min,  0.006 sec (  0.136%)

================
 final structure:
================
33
 xtb: 6.5.1 (579679a)
C            4.16224900526468       -1.40109107179305        0.34086582087177
O            3.30744686793554       -0.26698828688122        0.23543873896987
C            1.97794390547968       -0.50698703781237        0.29635697406989
O            1.53923225984247       -1.63022388129886        0.46876178682057
C            1.14347393430936        0.73651479666683       -0.03400526889147
C            1.79769480962582        2.01833088126637        0.49837054478628
N           -0.17888686770034        0.60029105326932        0.57174204045721
C           -1.11722224676822        0.04861921142495       -0.10423512020585
C           -2.47175072832716       -0.16333245887818        0.56972125321531
C           -2.53662369182327        0.63936164050616        1.87390245467505
C           -2.65509637300222       -1.65876616401996        0.85763882200201
N           -3.57159481009102        0.27544062681530       -0.29003516490115
N           -0.99250526532152       -0.41390680365464       -1.37763849479031
C            0.06949056528611        0.09602229035800       -2.22831607049820
O           -0.07888215322206       -0.01785008422762       -3.47869118969630
C            1.08318315994907        0.68512677851258       -1.53802180088666
O            2.18757024524784        1.25205946696010       -2.22710173248311
H            4.04562842828683       -1.87878597347542        1.31866119275843
H            5.18380307215693       -1.04193345229231        0.22578790737223
H            3.93298699784204       -2.13221618073290       -0.44023994040318
H            1.15538933466817        2.86882235277332        0.27212867955188
H            2.76901100047938        2.17386044733747        0.03181494362220
H            1.92583273814448        1.95340757229400        1.57853758288578
H           -3.51374764399406        0.50978655793986        2.33797675950529
H           -1.76265552759024        0.30308754195854        2.56416354628704
H           -2.38087348425830        1.69862626015471        1.66955114960079
H           -3.63356261526870       -1.83289235096221        1.30462880941478
H           -2.58639520489239       -2.23236770062127       -0.06655629399770
H           -1.88421057506109       -2.00769413203251        1.54512673930376
H           -3.70149320057968       -0.36461410957320       -1.06089195892133
H           -3.37824798482524        1.19310864929462       -0.66875224016843
H           -1.83407402767838       -0.65437451937267       -1.87613190507322
H            1.99688707588725        1.15155908009650       -3.17055956525449
 
 Bond Distances (Angstroems)
 ---------------------------
C1-O2=1.4241         C1-H18=1.0945        C1-H19=1.0889        C1-H20=1.0942        O2-C1=1.4241         O2-C3=1.3524         
C3-O2=1.3524         C3-O4=1.2181         C3-C5=1.5336         O4-C3=1.2181         C5-C3=1.5336         C5-C6=1.5344         
C5-N7=1.4609         C5-C16=1.5061        C6-C5=1.5344         C6-H21=1.0895        C6-H22=1.0887        C6-H23=1.0897        
N7-C5=1.4609         N7-C8=1.2813         C8-N7=1.2813         C8-C9=1.5277         C8-N13=1.3605        C9-C8=1.5277         
C9-C10=1.5328        C9-C11=1.5339        C9-N12=1.4633        C10-C9=1.5328        C10-H24=1.0895       C10-H25=1.0902       
C10-H26=1.0900       C11-C9=1.5339        C11-H27=1.0897       C11-H28=1.0899       C11-H29=1.0903       N12-C9=1.4633        
N12-H30=1.0103       N12-H31=1.0114       N13-C8=1.3605        N13-C14=1.4531       N13-H32=1.0073       C14-N13=1.4531       
C14-O15=1.2643       C14-C16=1.3606       O15-C14=1.2643       C16-C5=1.5061        C16-C14=1.3606       C16-O17=1.4198       
O17-C16=1.4198       O17-H33=0.9678       H18-C1=1.0945        H19-C1=1.0889        H20-C1=1.0942        H21-C6=1.0895        
H22-C6=1.0887        H23-C6=1.0897        H24-C10=1.0895       H25-C10=1.0902       H26-C10=1.0900       H27-C11=1.0897       
H28-C11=1.0899       H29-C11=1.0903       H30-N12=1.0103       H31-N12=1.0114       H32-N13=1.0073       H33-O17=0.9678       
 C  H  Rav=1.0904 sigma=0.0018  Rmin=1.0887  Rmax=1.0945    12
 C  C  Rav=1.5041 sigma=0.0594  Rmin=1.3606  Rmax=1.5344     7
 N  H  Rav=1.0097 sigma=0.0018  Rmin=1.0073  Rmax=1.0114     3
 N  C  Rav=1.4038 sigma=0.0723  Rmin=1.2813  Rmax=1.4633     5
 O  H  Rav=0.9678 sigma=0.0000  Rmin=0.9678  Rmax=0.9678     1
 O  C  Rav=1.3357 sigma=0.0826  Rmin=1.2181  Rmax=1.4241     5
 
 selected bond angles (degree)
 --------------------
H18-C1-O2=110.47               H19-C1-O2=107.01               H19-C1-H18=109.77              H20-C1-O2=110.70               
H20-C1-H18=108.89              H20-C1-H19=109.97              C3-O2-C1=116.45                O4-C3-O2=121.61                
C5-C3-O2=112.42                C5-C3-O4=125.61                C6-C5-C3=111.75                N7-C5-C3=109.12                
N7-C5-C6=108.66                C16-C5-C3=102.08               C16-C5-C6=113.08               C16-C5-N7=112.00               
H21-C6-C5=109.19               H22-C6-C5=110.55               H22-C6-H21=108.99              H23-C6-C5=110.14               
H23-C6-H21=108.76              H23-C6-H22=109.17              C8-N7-C5=118.97                C9-C8-N7=118.44                
N13-C8-N7=124.96               N13-C8-C9=116.55               C10-C9-C8=109.89               C11-C9-C8=108.91               
C11-C9-C10=110.23              N12-C9-C8=111.44               N12-C9-C10=108.12              N12-C9-C11=108.23              
H24-C10-C9=109.76              H25-C10-C9=110.31              H25-C10-H24=109.29             H26-C10-C9=110.08              
H26-C10-H24=108.88             H26-C10-H25=108.48             
 
 selected dihedral angles (degree)
 ---------------------------------
C3-O2-C1-H18=296.81           C3-O2-C1-H19=177.34           C3-O2-C1-H20= 57.51           O4-C3-O2-C1=  1.93            
C5-C3-O2-C1=188.55            C6-C5-C3-O2=323.83            C6-C5-C3-O4=150.77            N7-C5-C3-O2=203.63            
N7-C5-C3-O4= 30.57            C16-C5-C3-O2= 84.96           C16-C5-C3-O4=271.90           H21-C6-C5-C3=181.97           
H21-C6-C5-N7=302.44           H21-C6-C5-C16= 67.45          H22-C6-C5-C3= 62.07           H22-C6-C5-N7=182.53           
H22-C6-C5-C16=307.55          H23-C6-C5-C3=301.33           H23-C6-C5-N7= 61.80           H23-C6-C5-C16=186.82          
C8-N7-C5-C3=269.70            C8-N7-C5-C6=147.61            C8-N7-C5-C16= 21.97           C9-C8-N7-C5=176.40            
N13-C8-N7-C5=358.85           C10-C9-C8-N7= 13.07           C10-C9-C8-N13=190.82          C11-C9-C8-N7=252.23           
C11-C9-C8-N13= 69.98          N12-C9-C8-N7=132.90           N12-C9-C8-N13=310.66          H24-C10-C9-C8=178.36          
H24-C10-C9-C11=298.40         H24-C10-C9-N12= 56.52         H25-C10-C9-C8=298.84          H25-C10-C9-C11= 58.88         
H25-C10-C9-N12=177.01         H26-C10-C9-C8= 58.53          H26-C10-C9-C11=178.57         H26-C10-C9-N12=296.69         
           -------------------------------------------------
          |                Final Singlepoint                |
           -------------------------------------------------

          ...................................................
          :                      SETUP                      :
          :.................................................:
          :  # basis functions                 100          :
          :  # atomic orbitals                 100          :
          :  # shells                           66          :
          :  # electrons                        96          :
          :  # halogen bonds                     0          :
          :  max. iterations                   250          :
          :  Hamiltonian                  GFN1-xTB          :
          :  restarted?                      false          :
          :  GBSA solvation                   true          :
          :  PC potential                    false          :
          :  electronic temp.          300.0000000     K    :
          :  accuracy                    1.0000000          :
          :  -> integral cutoff          0.2500000E+02      :
          :  -> integral neglect         0.1000000E-07      :
          :  -> SCF convergence          0.1000000E-05 Eh   :
          :  -> wf. convergence          0.2000000E-04 e    :
          :  Broyden damping             0.4000000          :
          ...................................................

 iter      E             dE          RMSdq      gap      omega  full diag
   1    -59.0938553 -0.590939E+02  0.128E-05    2.04       0.0  T
   2    -59.0938553 -0.136424E-11  0.609E-06    2.04    2857.4  T
   3    -59.0938553 -0.270006E-12  0.347E-06    2.04    5021.9  T

   *** convergence criteria satisfied after 3 iterations ***

         #    Occupation            Energy/Eh            Energy/eV
      -------------------------------------------------------------
         1        2.0000           -0.8070447             -21.9608
       ...           ...                  ...                  ...
        42        2.0000           -0.4482623             -12.1978
        43        2.0000           -0.4309524             -11.7268
        44        2.0000           -0.3993414             -10.8666
        45        2.0000           -0.3873246             -10.5396
        46        2.0000           -0.3777621             -10.2794
        47        2.0000           -0.3703336             -10.0773
        48        2.0000           -0.3053522              -8.3091 (HOMO)
        49                         -0.2304852              -6.2718 (LUMO)
        50                         -0.2104151              -5.7257
        51                         -0.1276005              -3.4722
        52                         -0.1235928              -3.3631
        53                         -0.1094738              -2.9789
       ...                                ...                  ...
       100                          0.7089220              19.2907
      -------------------------------------------------------------
                  HL-Gap            0.0748670 Eh            2.0372 eV
             Fermi-level           -0.2679187 Eh           -7.2904 eV

 SCC (total)                   0 d,  0 h,  0 min,  0.089 sec
 SCC setup                      ...        0 min,  0.001 sec (  1.506%)
 Dispersion                     ...        0 min,  0.000 sec (  0.230%)
 classical contributions        ...        0 min,  0.000 sec (  0.083%)
 integral evaluation            ...        0 min,  0.025 sec ( 28.008%)
 iterations                     ...        0 min,  0.006 sec (  6.808%)
 molecular gradient             ...        0 min,  0.056 sec ( 62.729%)
 printout                       ...        0 min,  0.001 sec (  0.594%)

         :::::::::::::::::::::::::::::::::::::::::::::::::::::
         ::                     SUMMARY                     ::
         :::::::::::::::::::::::::::::::::::::::::::::::::::::
         :: total energy             -58.550663357959 Eh    ::
         :: total w/o Gsasa/hb       -58.531550061760 Eh    ::
         :: gradient norm              0.000889081409 Eh/a0 ::
         :: HOMO-LUMO gap              2.037234300844 eV    ::
         ::.................................................::
         :: SCC energy               -59.093855333801 Eh    ::
         :: -> electrostatic           0.371538537666 Eh    ::
         :: -> Gsolv                  -0.107023189081 Eh    ::
         ::    -> Gelec               -0.087909892882 Eh    ::
         ::    -> Gsasa               -0.018101011958 Eh    ::
         ::    -> Ghb                 -0.008636563245 Eh    ::
         ::    -> Gshift               0.007624279005 Eh    ::
         :: repulsion energy           0.562762445008 Eh    ::
         :: dispersion energy         -0.019570469166 Eh    ::
         :: halogen bond corr.         0.000000000000 Eh    ::
         :: add. restraining           0.000000000000 Eh    ::
         :: total charge              -1.000000000000 e     ::
         :::::::::::::::::::::::::::::::::::::::::::::::::::::

           -------------------------------------------------
          |                Property Printout                |
           -------------------------------------------------

    * Orbital Energies and Occupations

         #    Occupation            Energy/Eh            Energy/eV
      -------------------------------------------------------------
         1        2.0000           -0.8070447             -21.9608
       ...           ...                  ...                  ...
        36        2.0000           -0.4800659             -13.0633
        37        2.0000           -0.4731423             -12.8749
        38        2.0000           -0.4711602             -12.8209
        39        2.0000           -0.4662642             -12.6877
        40        2.0000           -0.4605780             -12.5330
        41        2.0000           -0.4556242             -12.3982
        42        2.0000           -0.4482623             -12.1978
        43        2.0000           -0.4309524             -11.7268
        44        2.0000           -0.3993414             -10.8666
        45        2.0000           -0.3873246             -10.5396
        46        2.0000           -0.3777621             -10.2794
        47        2.0000           -0.3703336             -10.0773
        48        2.0000           -0.3053522              -8.3091 (HOMO)
        49                         -0.2304852              -6.2718 (LUMO)
        50                         -0.2104151              -5.7257
        51                         -0.1276005              -3.4722
        52                         -0.1235928              -3.3631
        53                         -0.1094738              -2.9789
        54                         -0.1077391              -2.9317
        55                         -0.0958182              -2.6073
        56                         -0.0907040              -2.4682
        57                         -0.0642657              -1.7488
        58                         -0.0628738              -1.7109
        59                         -0.0609702              -1.6591
       ...                                ...                  ...
       100                          0.7089220              19.2907
      -------------------------------------------------------------
                  HL-Gap            0.0748670 Eh            2.0372 eV
             Fermi-level           -0.2679187 Eh           -7.2904 eV

  Mulliken/CM5 charges         n(s)   n(p)   n(d)
     1C     0.17182  0.05193   0.972  2.856  0.000
     2O    -0.43328 -0.52149   1.690  4.743  0.000
     3C     0.54177  0.60517   1.000  2.458  0.000
     4O    -0.60467 -0.64914   1.733  4.871  0.000
     5C     0.13825  0.19064   1.060  2.802  0.000
     6C    -0.08366 -0.22077   1.008  3.075  0.000
     7N    -0.47821 -0.66193   1.551  3.927  0.000
     8C     0.28461  0.43707   1.018  2.697  0.000
     9C     0.14284  0.17776   1.064  2.793  0.000
    10C    -0.08934 -0.22754   1.011  3.078  0.000
    11C    -0.09599 -0.23627   1.015  3.081  0.000
    12N    -0.52545 -0.97916   1.468  4.058  0.000
    13N    -0.37361 -0.71191   1.446  3.928  0.000
    14C     0.35818  0.44424   0.976  2.665  0.000
    15O    -0.73480 -0.77478   1.750  4.984  0.000
    16C     0.03153  0.05903   0.999  2.969  0.000
    17O    -0.60051 -0.79502   1.714  4.886  0.000
    18H     0.03485  0.09611   0.965  0.000  0.000
    19H     0.03782  0.09803   0.962  0.000  0.000
    20H     0.03915  0.10087   0.961  0.000  0.000
    21H     0.02313  0.07948   0.977  0.000  0.000
    22H     0.03222  0.09290   0.968  0.000  0.000
    23H     0.01531  0.07177   0.985  0.000  0.000
    24H     0.02171  0.07733   0.978  0.000  0.000
    25H     0.02365  0.08095   0.976  0.000  0.000
    26H     0.02684  0.08477   0.973  0.000  0.000
    27H     0.02981  0.08527   0.970  0.000  0.000
    28H     0.03336  0.09102   0.967  0.000  0.000
    29H     0.03004  0.08464   0.970  0.000  0.000
    30H     0.21017  0.40305   0.790  0.000  0.000
    31H     0.21102  0.40253   0.789  0.000  0.000
    32H     0.22568  0.43045   0.774  0.000  0.000
    33H     0.35573  0.53298   0.644  0.000  0.000

Wiberg/Mayer (AO) data.
largest (>0.10) Wiberg bond orders for each atom

 ---------------------------------------------------------------------------
     #   Z sym  total        # sym  WBO       # sym  WBO       # sym  WBO
 ---------------------------------------------------------------------------
     1   6 C    3.893 --    19 H    0.987    18 H    0.981    20 H    0.981
                             2 O    0.915
     2   8 O    2.170 --     3 C    1.063     1 C    0.915     4 O    0.114
     3   6 C    3.812 --     4 O    1.628     2 O    1.063     5 C    0.922
     4   8 O    1.889 --     3 C    1.628     2 O    0.114
     5   6 C    3.967 --     6 C    0.988     7 N    0.973    16 C    0.954
                             3 C    0.922
     6   6 C    3.997 --    23 H    0.988     5 C    0.988    21 H    0.987
                            22 H    0.985
     7   7 N    2.971 --     8 C    1.674     5 C    0.973    13 N    0.158
     8   6 C    3.945 --     7 N    1.674    13 N    1.185     9 C    0.961
     9   6 C    3.966 --    10 C    0.999    11 C    0.989    12 N    0.978
                             8 C    0.961
    10   6 C    3.997 --     9 C    0.999    24 H    0.988    25 H    0.986
                            26 H    0.985
    11   6 C    3.996 --     9 C    0.989    29 H    0.986    27 H    0.986
                            28 H    0.985
    12   7 N    2.953 --     9 C    0.978    31 H    0.946    30 H    0.944
    13   7 N    3.309 --     8 C    1.185    14 C    0.913    32 H    0.913
                             7 N    0.158
    14   6 C    3.920 --    16 C    1.509    15 O    1.362    13 N    0.913
    15   8 O    1.705 --    14 C    1.362    16 C    0.167
    16   6 C    3.791 --    14 C    1.509     5 C    0.954    17 O    0.941
                            15 O    0.167
    17   8 O    1.914 --    16 C    0.941    33 H    0.859
    18   1 H    1.012 --     1 C    0.981
    19   1 H    1.014 --     1 C    0.987
    20   1 H    1.012 --     1 C    0.981
    21   1 H    1.013 --     6 C    0.987
    22   1 H    1.018 --     6 C    0.985
    23   1 H    1.011 --     6 C    0.988
    24   1 H    1.010 --    10 C    0.988
    25   1 H    1.019 --    10 C    0.986
    26   1 H    1.013 --    10 C    0.985
    27   1 H    1.006 --    11 C    0.986
    28   1 H    1.005 --    11 C    0.985
    29   1 H    1.006 --    11 C    0.986
    30   1 H    0.963 --    12 N    0.944
    31   1 H    0.963 --    12 N    0.946
    32   1 H    0.965 --    13 N    0.913
    33   1 H    0.892 --    17 O    0.859
 ---------------------------------------------------------------------------

Topologies differ in total number of bonds
Writing topology from bond orders to xtbtopo.mol

 dipole moment from electron density (au)
     X       Y       Z   
  -1.0722  -0.1828   2.1518  total (Debye):    6.128

           -------------------------------------------------
          |                Geometry Summary                 |
           -------------------------------------------------

      molecular mass/u    :      242.2521403
   center of mass at/Å    :        0.2419339       0.0061793      -0.3441473
  moments of inertia/u·Å² :        0.7041538E+03   0.1437297E+04   0.1676795E+04
rotational constants/cm⁻¹ :        0.2394027E-01   0.1172871E-01   0.1005348E-01

 * 26 selected distances

     #   Z          #   Z                                           value/Å
     1   6 C        2   8 O                                       1.4240755
     2   8 O        3   6 C                                       1.3523642
     3   6 C        4   8 O                                       1.2181349
     5   6 C        6   6 C                                       1.5344321 (max)
     7   7 N        8   6 C                                       1.2813120
     9   6 C       10   6 C                                       1.5327803
     9   6 C       11   6 C                                       1.5338952
     9   6 C       12   7 N                                       1.4633388
     8   6 C       13   7 N                                       1.3605297
    14   6 C       16   6 C                                       1.3605599
     1   6 C       18   1 H                                       1.0944756
     1   6 C       19   1 H                                       1.0889491
     1   6 C       20   1 H                                       1.0941807
     6   6 C       21   1 H                                       1.0895309
     6   6 C       22   1 H                                       1.0887235
     6   6 C       23   1 H                                       1.0896767
    10   6 C       24   1 H                                       1.0894614
    10   6 C       25   1 H                                       1.0902145
    10   6 C       26   1 H                                       1.0899813
    11   6 C       27   1 H                                       1.0897323
    11   6 C       28   1 H                                       1.0898970
    11   6 C       29   1 H                                       1.0902548
    12   7 N       30   1 H                                       1.0103287
    12   7 N       31   1 H                                       1.0113973
    13   7 N       32   1 H                                       1.0072530
    17   8 O       33   1 H                                       0.9677671 (min)

 * 6 distinct bonds (by element types)

   Z      Z             #   av. dist./Å        max./Å        min./Å
   1 H    6 C          12     1.0904231     1.0944756     1.0887235
   6 C    6 C           4     1.4904169     1.5344321     1.3605599
   1 H    7 N           3     1.0096596     1.0113973     1.0072530
   6 C    7 N           3     1.3683935     1.4633388     1.2813120
   1 H    8 O           1     0.9677671     0.9677671     0.9677671
   6 C    8 O           3     1.3315249     1.4240755     1.2181349


optimized geometry written to: xtbopt.xyz


           -------------------------------------------------
          | TOTAL ENERGY              -58.550663357959 Eh   |
          | GRADIENT NORM               0.000889081409 Eh/α |
          | HOMO-LUMO GAP               2.037234300844 eV   |
           -------------------------------------------------

------------------------------------------------------------------------
 * finished run on 2023/06/20 at 14:58:50.391     
------------------------------------------------------------------------
 total:
 * wall-time:     0 d,  0 h,  0 min,  4.639 sec
 *  cpu-time:     0 d,  0 h,  0 min,  4.557 sec
 * ratio c/w:     0.982 speedup
 SCF:
 * wall-time:     0 d,  0 h,  0 min,  0.114 sec
 *  cpu-time:     0 d,  0 h,  0 min,  0.100 sec
 * ratio c/w:     0.883 speedup
 ANC optimizer:
 * wall-time:     0 d,  0 h,  0 min,  4.444 sec
 *  cpu-time:     0 d,  0 h,  0 min,  4.417 sec
 * ratio c/w:     0.994 speedup

