33
 energy: -58.550663357959 gnorm: 0.000889081409 xtb: 6.5.1 (579679a)
C            4.16224900526468       -1.40109107179305        0.34086582087177
O            3.30744686793554       -0.26698828688122        0.23543873896987
C            1.97794390547968       -0.50698703781237        0.29635697406989
O            1.53923225984247       -1.63022388129886        0.46876178682057
C            1.14347393430936        0.73651479666683       -0.03400526889147
C            1.79769480962582        2.01833088126637        0.49837054478628
N           -0.17888686770034        0.60029105326932        0.57174204045721
C           -1.11722224676822        0.04861921142495       -0.10423512020585
C           -2.47175072832716       -0.16333245887818        0.56972125321531
C           -2.53662369182327        0.63936164050616        1.87390245467505
C           -2.65509637300222       -1.65876616401996        0.85763882200201
N           -3.57159481009102        0.27544062681530       -0.29003516490115
N           -0.99250526532152       -0.41390680365464       -1.37763849479031
C            0.06949056528611        0.09602229035800       -2.22831607049820
O           -0.07888215322206       -0.01785008422762       -3.47869118969630
C            1.08318315994907        0.68512677851258       -1.53802180088666
O            2.18757024524784        1.25205946696010       -2.22710173248311
H            4.04562842828683       -1.87878597347542        1.31866119275843
H            5.18380307215693       -1.04193345229231        0.22578790737223
H            3.93298699784204       -2.13221618073290       -0.44023994040318
H            1.15538933466817        2.86882235277332        0.27212867955188
H            2.76901100047938        2.17386044733747        0.03181494362220
H            1.92583273814448        1.95340757229400        1.57853758288578
H           -3.51374764399406        0.50978655793986        2.33797675950529
H           -1.76265552759024        0.30308754195854        2.56416354628704
H           -2.38087348425830        1.69862626015471        1.66955114960079
H           -3.63356261526870       -1.83289235096221        1.30462880941478
H           -2.58639520489239       -2.23236770062127       -0.06655629399770
H           -1.88421057506109       -2.00769413203251        1.54512673930376
H           -3.70149320057968       -0.36461410957320       -1.06089195892133
H           -3.37824798482524        1.19310864929462       -0.66875224016843
H           -1.83407402767838       -0.65437451937267       -1.87613190507322
H            1.99688707588725        1.15155908009650       -3.17055956525449
