      -----------------------------------------------------------      
     |                   =====================                   |     
     |                           x T B                           |     
     |                   =====================                   |     
     |                         S. Grimme                         |     
     |          Mulliken Center for Theoretical Chemistry        |     
     |                    University of Bonn                     |     
      -----------------------------------------------------------      

   * xtb version 6.5.1 (579679a) compiled by 'ehlert@majestix' on 2022-07-11

   xtb is free software: you can redistribute it and/or modify it under
   the terms of the GNU Lesser General Public License as published by
   the Free Software Foundation, either version 3 of the License, or
   (at your option) any later version.
   
   xtb is distributed in the hope that it will be useful,
   but WITHOUT ANY WARRANTY; without even the implied warranty of
   MERCHANTABILITY or FITNESS FOR A PARTICULAR PURPOSE.  See the
   GNU Lesser General Public License for more details.
   
   Cite this work as:
   * C. Bannwarth, E. Caldeweyher, S. Ehlert, A. Hansen, P. Pracht,
     J. Seibert, S. Spicher, S. Grimme, WIREs Comput. Mol. Sci., 2020, 11,
     e01493. DOI: 10.1002/wcms.1493
   
   for GFN2-xTB:
   * C. Bannwarth, S. Ehlert and S. Grimme., J. Chem. Theory Comput., 2019,
     15, 1652-1671. DOI: 10.1021/acs.jctc.8b01176
   for GFN1-xTB:
   * S. Grimme, C. Bannwarth, P. Shushkov, J. Chem. Theory Comput., 2017,
     13, 1989-2009. DOI: 10.1021/acs.jctc.7b00118
   for GFN0-xTB:
   * P. Pracht, E. Caldeweyher, S. Ehlert, S. Grimme, ChemRxiv, 2019, preprint.
     DOI: 10.26434/chemrxiv.8326202.v1
   for GFN-FF:
   * S. Spicher and S. Grimme, Angew. Chem. Int. Ed., 2020, 59, 15665-15673.
     DOI: 10.1002/anie.202004239
   
   for ALPB and GBSA implicit solvation:
   * S. Ehlert, M. Stahn, S. Spicher, S. Grimme, J. Chem. Theory Comput.,
     2021, 17, 4250-4261. DOI: 10.1021/acs.jctc.1c00471
   
   for DFT-D4:
   * E. Caldeweyher, C. Bannwarth and S. Grimme, J. Chem. Phys., 2017,
     147, 034112. DOI: 10.1063/1.4993215
   * E. Caldeweyher, S. Ehlert, A. Hansen, H. Neugebauer, S. Spicher,
     C. Bannwarth and S. Grimme, J. Chem. Phys., 2019, 150, 154122.
     DOI: 10.1063/1.5090222
   * E. Caldeweyher, J.-M. Mewes, S. Ehlert and S. Grimme, Phys. Chem. Chem. Phys.
     2020, 22, 8499-8512. DOI: 10.1039/D0CP00502A
   
   for sTDA-xTB:
   * S. Grimme and C. Bannwarth, J. Chem. Phys., 2016, 145, 054103.
     DOI: 10.1063/1.4959605
   
   in the mass-spec context:
   * V. Asgeirsson, C. Bauer and S. Grimme, Chem. Sci., 2017, 8, 4879.
     DOI: 10.1039/c7sc00601b
   * J. Koopman and S. Grimme, ACS Omega 2019, 4, 12, 15120-15133.
     DOI: 10.1021/acsomega.9b02011
   
   for metadynamics refer to:
   * S. Grimme, J. Chem. Theory Comput., 2019, 155, 2847-2862
     DOI: 10.1021/acs.jctc.9b00143
   
   for SPH calculations refer to:
   * S. Spicher and S. Grimme, J. Chem. Theory Comput., 2021, 17, 1701-1714
     DOI: 10.1021/acs.jctc.0c01306
   
   with help from (in alphabetical order)
   P. Atkinson, C. Bannwarth, F. Bohle, G. Brandenburg, E. Caldeweyher
   M. Checinski, S. Dohm, S. Ehlert, S. Ehrlich, I. Gerasimov, C. Hölzer
   A. Katbashev, J. Koopman, C. Lavigne, S. Lehtola, F. März, M. Müller,
   F. Musil, H. Neugebauer, J. Pisarek, C. Plett, P. Pracht, F. Pultar,
   J. Seibert, P. Shushkov, S. Spicher, M. Stahn, M. Steiner, T. Strunk,
   J. Stückrath, T. Rose, and J. Unsleber
   
 * started run on 2023/06/21 at 17:27:30.118     

           -------------------------------------------------
          |                Calculation Setup                |
           -------------------------------------------------

          program call               : /lustre/hpc/kemi/ree/PhD/git/ReactivityQM/dep/xtb-6.5.1/bin/xtb --gfn 1 /lustre/hpc/kemi/ree/PhD/git/ReactivityQM/calculations/R02oxygendeprot/reac01prodN12/conf03/R02oxygendeprot_reac01prodN12_conf03_gfn1.xyz --opt --vfukui --chrg 0 --uhf 0 --alpb DMSO
          hostname                   : node070
          coordinate file            : /lustre/hpc/kemi/ree/PhD/git/ReactivityQM/calculations/R02oxygendeprot/reac01prodN12/conf03/R02oxygendeprot_reac01prodN12_conf03_gfn1.xyz
          omp threads                :                     1

   ID    Z sym.   atoms
    1    6 C      1, 3, 5, 7-10, 12, 14, 15, 18, 19, 22, 24
    2    8 O      2, 4, 13, 20, 23, 25
    3    7 N      6, 11, 16, 17, 21
    4    1 H      26-42

           -------------------------------------------------
          |                 G F N 1 - x T B                 |
           -------------------------------------------------

        Reference                      10.1021/acs.jctc.7b00118
      * Hamiltonian:
        H0-scaling (s, p, d)           1.850000    2.250000    2.000000
        zeta-weighting                 0.000000
      * Dispersion:
        s8                             2.400000
        a1                             0.630000
        a2                             5.000000
        s9                             0.000000
      * Repulsion:
        kExp                           1.500000
        rExp                           1.000000
      * Coulomb:
        alpha                          2.000000
        third order                    atomic
        anisotropic                    false
      * Halogen bond correction:
        rad-scale                      1.300000
        damping                        0.440000

      * Solvation model:               ALPB
        Solvent                        DMSO
        Parameter file                 internal GFN1-xTB/ALPB
        Dielectric constant                4.6680E+01
        Reference state                gsolv [1 M gas/solution]
        Free energy shift                  7.6243E-03 Eh       4.7843E+00 kcal/mol
        Temperature                        2.9815E+02 K
        Density                            1.1000E+00 kg/L
        Solvent mass                       7.8130E+01 g/mol
        Interaction kernel             P16
        Born radius scaling (c1)           1.7672E+00
        Born radii integrator          GBOBC
        Born offset                        0.0000E+00 a0       0.0000E+00 AA
        H-bond correction              true
        Ion screening                  false
        Surface tension                    1.0000E-05 Eh       1.5569E+01 dyn/cm
        Grid points                               230 per atom

          ...................................................
          :                      SETUP                      :
          :.................................................:
          :  # basis functions                 134          :
          :  # atomic orbitals                 134          :
          :  # shells                           84          :
          :  # electrons                       134          :
          :  # halogen bonds                     0          :
          :  max. iterations                   250          :
          :  Hamiltonian                  GFN1-xTB          :
          :  restarted?                      false          :
          :  GBSA solvation                   true          :
          :  PC potential                    false          :
          :  electronic temp.          300.0000000     K    :
          :  accuracy                    1.0000000          :
          :  -> integral cutoff          0.2500000E+02      :
          :  -> integral neglect         0.1000000E-07      :
          :  -> SCF convergence          0.1000000E-05 Eh   :
          :  -> wf. convergence          0.2000000E-04 e    :
          :  Broyden damping             0.4000000          :
          ...................................................

 iter      E             dE          RMSdq      gap      omega  full diag
   1    -83.2646868 -0.832647E+02  0.850E+00    1.48       0.0  T
   2    -83.4127282 -0.148041E+00  0.524E+00    0.30       1.0  T
   3    -83.4122816  0.446620E-03  0.325E+00    0.17       1.0  T
   4    -83.6179259 -0.205644E+00  0.112E+00    2.05       1.0  T
   5    -83.6569475 -0.390217E-01  0.628E-01    0.33       1.0  T
   6    -83.4325082  0.224439E+00  0.161E+00    0.44       1.0  T
   7    -83.6538951 -0.221387E+00  0.650E-01    0.38       1.0  T
   8    -83.6851095 -0.312144E-01  0.313E-01    0.04       1.0  T
   9    -83.6557237  0.293859E-01  0.618E-01    0.28       1.0  T
  10    -83.6938289 -0.381052E-01  0.153E-01    0.08       1.0  T
  11    -83.6814139  0.124150E-01  0.360E-01    0.04       1.0  T
  12    -83.6833255 -0.191160E-02  0.339E-01    0.11       1.0  T
  13    -83.6959324 -0.126069E-01  0.722E-02    0.05       1.0  T
  14    -83.6961177 -0.185340E-03  0.600E-02    0.07       1.0  T
  15    -83.6965299 -0.412184E-03  0.727E-03    0.06       2.1  T
  16    -83.6965329 -0.295872E-05  0.510E-03    0.06       3.0  T
  17    -83.6965356 -0.273706E-05  0.166E-03    0.06       9.3  T
  18    -83.6965358 -0.206991E-06  0.972E-04    0.06      15.9  T
  19    -83.6965359 -0.104636E-06  0.187E-04    0.06      82.3  T
  20    -83.6965359 -0.414889E-08  0.195E-06    0.06    7931.6  T

   *** convergence criteria satisfied after 20 iterations ***

         #    Occupation            Energy/Eh            Energy/eV
      -------------------------------------------------------------
         1        2.0000           -0.8776918             -23.8832
       ...           ...                  ...                  ...
        61        2.0000           -0.4812727             -13.0961
        62        2.0000           -0.4747811             -12.9195
        63        2.0000           -0.4718270             -12.8391
        64        2.0000           -0.4700081             -12.7896
        65        2.0000           -0.4557916             -12.4027
        66        2.0000           -0.4171058             -11.3500
        67        1.5220           -0.4015994             -10.9281 (HOMO)
        68        0.4780           -0.3993988             -10.8682 (LUMO)
        69                         -0.3087687              -8.4020
        70                         -0.2953226              -8.0361
        71                         -0.2856268              -7.7723
        72                         -0.2808985              -7.6436
       ...                                ...                  ...
       134                          0.7758291              21.1114
      -------------------------------------------------------------
                  HL-Gap            0.0022007 Eh            0.0599 eV
             Fermi-level           -0.4004991 Eh          -10.8981 eV

 SCC (total)                   0 d,  0 h,  0 min,  0.214 sec
 SCC setup                      ...        0 min,  0.002 sec (  0.828%)
 Dispersion                     ...        0 min,  0.000 sec (  0.124%)
 classical contributions        ...        0 min,  0.000 sec (  0.043%)
 integral evaluation            ...        0 min,  0.044 sec ( 20.371%)
 iterations                     ...        0 min,  0.107 sec ( 49.932%)
 molecular gradient             ...        0 min,  0.060 sec ( 28.089%)
 printout                       ...        0 min,  0.001 sec (  0.603%)

         :::::::::::::::::::::::::::::::::::::::::::::::::::::
         ::                     SUMMARY                     ::
         :::::::::::::::::::::::::::::::::::::::::::::::::::::
         :: total energy             -82.933988610187 Eh    ::
         :: total w/o Gsasa/hb       -82.914029438542 Eh    ::
         :: gradient norm              0.098275068408 Eh/a0 ::
         :: HOMO-LUMO gap              0.059883601038 eV    ::
         ::.................................................::
         :: SCC energy               -83.696535929202 Eh    ::
         :: -> electrostatic           0.389907689210 Eh    ::
         :: -> Gsolv                  -0.073824921370 Eh    ::
         ::    -> Gelec               -0.053865749725 Eh    ::
         ::    -> Gsasa               -0.024176192242 Eh    ::
         ::    -> Ghb                 -0.003407258409 Eh    ::
         ::    -> Gshift               0.007624279005 Eh    ::
         :: repulsion energy           0.789195992367 Eh    ::
         :: dispersion energy         -0.026648673353 Eh    ::
         :: halogen bond corr.         0.000000000000 Eh    ::
         :: add. restraining           0.000000000000 Eh    ::
         :: total charge               0.000000000000 e     ::
         :::::::::::::::::::::::::::::::::::::::::::::::::::::

      ----------------------------------------------------------- 
     |                   =====================                   |
     |                        A N C O P T                        |
     |                   =====================                   |
     |               Approximate Normal Coordinate               |
     |                Rational Function Optimizer                |
      ----------------------------------------------------------- 

          ...................................................
          :                      SETUP                      :
          :.................................................:
          :   optimization level            normal          :
          :   max. optcycles                   200          :
          :   ANC micro-cycles                  20          :
          :   degrees of freedom               120          :
          :.................................................:
          :   RF solver                   davidson          :
          :   write xtbopt.log                true          :
          :   linear?                        false          :
          :   energy convergence         0.5000000E-05 Eh   :
          :   grad. convergence          0.1000000E-02 Eh/α :
          :   maximium RF displ.         1.0000000          :
          :   Hlow (freq-cutoff)         0.1000000E-01      :
          :   Hmax (freq-cutoff)         5.0000000          :
          :   S6 in model hess.         20.0000000          :
          ...................................................

generating ANC from model Hessian ...
Using Lindh-Hessian (1995)
 Shifting diagonal of input Hessian by   9.835502098812470E-003
 Lowest  eigenvalues of input Hessian
    0.000000    0.000000    0.000000    0.000000    0.000000    0.000000
    0.010000    0.010307    0.010608    0.011007    0.012046    0.012340
    0.013074    0.013916    0.014845    0.015382    0.017343    0.018412
 Highest eigenvalues
    2.022302    2.084886    2.255904    2.297919    2.332643    2.462023
 

........................................................................
.............................. CYCLE    1 ..............................
........................................................................
   1    -83.6965359 -0.836965E+02  0.619E-05    0.06       0.0  T
   2    -83.6965358  0.152376E-06  0.115E-03    0.06      13.4  T
   3    -83.6965359 -0.152820E-06  0.472E-06    0.06    3270.7  T
   4    -83.6965359 -0.241585E-11  0.388E-07    0.06   39761.2  T
     SCC iter.                  ...        0 min,  0.021 sec
     gradient                   ...        0 min,  0.059 sec
 * total energy  :   -82.9339886 Eh     change        0.4263256E-13 Eh
   gradient norm :     0.0982751 Eh/α   predicted     0.0000000E+00 (-100.00%)
   displ. norm   :     0.3315974 α      lambda       -0.1450455E-01
   maximum displ.:     0.1532060 α      in ANC's #26, #22, #12, ...

........................................................................
.............................. CYCLE    2 ..............................
........................................................................
   1    -83.6811221 -0.836811E+02  0.470E-01    0.17       0.0  T
   2    -83.4230639  0.258058E+00  0.172E+00    0.45       1.0  T
   3    -83.5309621 -0.107898E+00  0.124E+00    0.12       1.0  T
   4    -83.7005320 -0.169570E+00  0.231E-01    0.10       1.0  T
   5    -83.7063298 -0.579785E-02  0.494E-02    0.07       1.0  T
   6    -83.7062489  0.808716E-04  0.567E-02    0.06       1.0  T
   7    -83.7063547 -0.105777E-03  0.475E-02    0.07       1.0  T
   8    -83.7066123 -0.257613E-03  0.547E-04    0.07      28.2  T
   9    -83.7066001  0.122045E-04  0.103E-02    0.07       1.5  T
  10    -83.7066123 -0.121814E-04  0.549E-04    0.07      28.1  T
  11    -83.7066123  0.564849E-08  0.599E-04    0.07      25.7  T
  12    -83.7066123 -0.396733E-07  0.110E-04    0.07     140.1  T
  13    -83.7066123 -0.126738E-08  0.301E-05    0.07     513.4  T
     SCC iter.                  ...        0 min,  0.066 sec
     gradient                   ...        0 min,  0.058 sec
 * total energy  :   -82.9446811 Eh     change       -0.1069251E-01 Eh
   gradient norm :     0.0504803 Eh/α   predicted    -0.8058994E-02 ( -24.63%)
   displ. norm   :     0.3483477 α      lambda       -0.7004904E-02
   maximum displ.:     0.1513045 α      in ANC's #26, #24, #8, ...

........................................................................
.............................. CYCLE    3 ..............................
........................................................................
   1    -83.6933080 -0.836933E+02  0.432E-01    0.17       0.0  T
   2    -83.4216327  0.271675E+00  0.173E+00    0.45       1.0  T
   3    -83.5868445 -0.165212E+00  0.106E+00    0.08       1.0  T
   4    -83.6971840 -0.110340E+00  0.394E-01    0.15       1.0  T
   5    -83.7076849 -0.105009E-01  0.243E-01    0.11       1.0  T
   6    -83.7115007 -0.381577E-02  0.159E-01    0.06       1.0  T
   7    -83.7143613 -0.286064E-02  0.150E-02    0.08       1.0  T
   8    -83.7143810 -0.196374E-04  0.668E-03    0.07       2.3  T
   9    -83.7143805  0.484560E-06  0.705E-03    0.07       2.2  T
  10    -83.7143862 -0.567267E-05  0.254E-04    0.07      60.8  T
  11    -83.7143861  0.292782E-07  0.567E-04    0.07      27.2  T
  12    -83.7143862 -0.343123E-07  0.137E-04    0.07     112.9  T
  13    -83.7143862 -0.213578E-08  0.937E-06    0.07    1646.1  T
     SCC iter.                  ...        0 min,  0.066 sec
     gradient                   ...        0 min,  0.057 sec
 * total energy  :   -82.9487946 Eh     change       -0.4113467E-02 Eh
   gradient norm :     0.0135725 Eh/α   predicted    -0.3928459E-02 (  -4.50%)
   displ. norm   :     0.2010282 α      lambda       -0.9029937E-03
   maximum displ.:     0.0720214 α      in ANC's #8, #19, #9, ...

........................................................................
.............................. CYCLE    4 ..............................
........................................................................
   1    -83.7137587 -0.837138E+02  0.125E-01    0.09       0.0  T
   2    -83.4626027  0.251156E+00  0.150E+00    0.24       1.0  T
   3    -83.7152059 -0.252603E+00  0.554E-02    0.07       1.0  T
   4    -83.7155113 -0.305371E-03  0.191E-02    0.08       1.0  T
   5    -83.7155505 -0.391793E-04  0.318E-03    0.08       4.9  T
   6    -83.7155502  0.238846E-06  0.318E-03    0.08       4.9  T
   7    -83.7155512 -0.102988E-05  0.101E-03    0.08      15.2  T
   8    -83.7155513 -0.108175E-06  0.217E-04    0.08      71.0  T
   9    -83.7155514 -0.325448E-08  0.132E-04    0.08     117.2  T
  10    -83.7155514 -0.182567E-08  0.358E-05    0.08     430.7  T
     SCC iter.                  ...        0 min,  0.051 sec
     gradient                   ...        0 min,  0.057 sec
 * total energy  :   -82.9494580 Eh     change       -0.6633779E-03 Eh
   gradient norm :     0.0102398 Eh/α   predicted    -0.4697486E-03 ( -29.19%)
   displ. norm   :     0.2561663 α      lambda       -0.6641532E-03
   maximum displ.:     0.1019546 α      in ANC's #7, #8, #19, ...

........................................................................
.............................. CYCLE    5 ..............................
........................................................................
   1    -83.7161706 -0.837162E+02  0.458E-02    0.08       0.0  T
   2    -83.6282162  0.879544E-01  0.877E-01    0.07       1.0  T
   3    -83.7164052 -0.881890E-01  0.700E-03    0.08       2.2  T
   4    -83.7164032  0.203203E-05  0.616E-03    0.08       2.5  T
   5    -83.7164066 -0.341007E-05  0.193E-03    0.08       8.0  T
   6    -83.7164066 -0.250247E-07  0.135E-03    0.08      11.4  T
   7    -83.7164068 -0.178610E-06  0.396E-04    0.08      39.0  T
   8    -83.7164068 -0.172505E-07  0.394E-05    0.08     391.7  T
   9    -83.7164068 -0.113118E-09  0.695E-06    0.08    2221.5  T
     SCC iter.                  ...        0 min,  0.045 sec
     gradient                   ...        0 min,  0.058 sec
 * total energy  :   -82.9499006 Eh     change       -0.4426596E-03 Eh
   gradient norm :     0.0075205 Eh/α   predicted    -0.3539097E-03 ( -20.05%)
   displ. norm   :     0.1911641 α      lambda       -0.2550169E-03
   maximum displ.:     0.0891587 α      in ANC's #7, #2, #4, ...

........................................................................
.............................. CYCLE    6 ..............................
........................................................................
   1    -83.7171680 -0.837172E+02  0.202E-02    0.08       0.0  T
   2    -83.7111512  0.601683E-02  0.232E-01    0.11       1.0  T
   3    -83.7172071 -0.605589E-02  0.567E-03    0.08       2.7  T
   4    -83.7172085 -0.139861E-05  0.279E-03    0.08       5.5  T
   5    -83.7172090 -0.497416E-06  0.991E-04    0.08      15.6  T
   6    -83.7172090 -0.277770E-07  0.399E-04    0.08      38.7  T
   7    -83.7172090 -0.783483E-08  0.289E-04    0.08      53.4  T
   8    -83.7172091 -0.728141E-08  0.139E-04    0.08     110.9  T
   9    -83.7172091 -0.171042E-08  0.656E-05    0.08     235.4  T
     SCC iter.                  ...        0 min,  0.046 sec
     gradient                   ...        0 min,  0.056 sec
 * total energy  :   -82.9500832 Eh     change       -0.1825875E-03 Eh
   gradient norm :     0.0054988 Eh/α   predicted    -0.1321937E-03 ( -27.60%)
   displ. norm   :     0.1879318 α      lambda       -0.1751990E-03
   maximum displ.:     0.0949060 α      in ANC's #7, #2, #3, ...

........................................................................
.............................. CYCLE    7 ..............................
........................................................................
   1    -83.7177926 -0.837178E+02  0.447E-02    0.07       0.0  T
   2    -83.6985606  0.192320E-01  0.421E-01    0.17       1.0  T
   3    -83.7178844 -0.193238E-01  0.344E-02    0.08       1.0  T
   4    -83.7179501 -0.657828E-04  0.249E-02    0.08       1.0  T
   5    -83.7179893 -0.391378E-04  0.166E-02    0.08       1.0  T
   6    -83.7180208 -0.315214E-04  0.366E-04    0.08      42.2  T
   7    -83.7180208  0.565685E-07  0.727E-04    0.08      21.2  T
   8    -83.7180208 -0.586860E-07  0.132E-04    0.08     117.1  T
   9    -83.7180208 -0.195870E-08  0.973E-06    0.08    1585.6  T
     SCC iter.                  ...        0 min,  0.052 sec
     gradient                   ...        0 min,  0.063 sec
 * total energy  :   -82.9502077 Eh     change       -0.1245288E-03 Eh
   gradient norm :     0.0040418 Eh/α   predicted    -0.9070430E-04 ( -27.16%)
   displ. norm   :     0.1724725 α      lambda       -0.1191589E-03
   maximum displ.:     0.0867296 α      in ANC's #7, #2, #3, ...

........................................................................
.............................. CYCLE    8 ..............................
........................................................................
   1    -83.7182378 -0.837182E+02  0.488E-02    0.07       0.0  T
   2    -83.6972258  0.210120E-01  0.442E-01    0.18       1.0  T
   3    -83.7182713 -0.210456E-01  0.460E-02    0.08       1.0  T
   4    -83.7184062 -0.134896E-03  0.306E-02    0.08       1.0  T
   5    -83.7185045 -0.983078E-04  0.892E-03    0.08       1.7  T
   6    -83.7185137 -0.912882E-05  0.229E-04    0.08      67.5  T
   7    -83.7185137 -0.939224E-09  0.385E-05    0.08     400.4  T
   8    -83.7185137  0.152174E-08  0.118E-04    0.08     130.8  T
     SCC iter.                  ...        0 min,  0.047 sec
     gradient                   ...        0 min,  0.064 sec
 * total energy  :   -82.9502951 Eh     change       -0.8737562E-04 Eh
   gradient norm :     0.0036299 Eh/α   predicted    -0.6135231E-04 ( -29.78%)
   displ. norm   :     0.1791566 α      lambda       -0.1005918E-03
   maximum displ.:     0.0870864 α      in ANC's #2, #7, #3, ...

........................................................................
.............................. CYCLE    9 ..............................
........................................................................
   1    -83.7184648 -0.837185E+02  0.391E-02    0.07       0.0  T
   2    -83.7011705  0.172944E-01  0.399E-01    0.16       1.0  T
   3    -83.7185291 -0.173586E-01  0.316E-02    0.08       1.0  T
   4    -83.7186180 -0.888892E-04  0.145E-02    0.08       1.1  T
   5    -83.7186369 -0.189085E-04  0.687E-03    0.08       2.2  T
   6    -83.7186419 -0.504613E-05  0.167E-03    0.08       9.3  T
   7    -83.7186422 -0.249190E-06  0.776E-04    0.08      19.9  T
   8    -83.7186422 -0.690945E-07  0.482E-05    0.08     319.9  T
   9    -83.7186422 -0.179327E-09  0.259E-05    0.08     594.8  T
     SCC iter.                  ...        0 min,  0.053 sec
     gradient                   ...        0 min,  0.066 sec
 * total energy  :   -82.9503719 Eh     change       -0.7679726E-04 Eh
   gradient norm :     0.0034891 Eh/α   predicted    -0.5191161E-04 ( -32.40%)
   displ. norm   :     0.2194097 α      lambda       -0.9713961E-04
   maximum displ.:     0.1112729 α      in ANC's #2, #7, #3, ...

........................................................................
.............................. CYCLE   10 ..............................
........................................................................
   1    -83.7181472 -0.837181E+02  0.227E-02    0.08       0.0  T
   2    -83.7092756  0.887158E-02  0.283E-01    0.12       1.0  T
   3    -83.7181856 -0.890994E-02  0.139E-02    0.08       1.1  T
   4    -83.7182066 -0.210569E-04  0.160E-03    0.08       9.6  T
   5    -83.7182067 -0.111120E-06  0.109E-03    0.08      14.2  T
   6    -83.7182068 -0.320185E-07  0.785E-04    0.08      19.7  T
   7    -83.7182068 -0.494616E-07  0.427E-04    0.08      36.2  T
   8    -83.7182068 -0.200519E-07  0.918E-05    0.08     168.1  T
   9    -83.7182068 -0.855934E-09  0.288E-05    0.08     535.2  T
     SCC iter.                  ...        0 min,  0.053 sec
     gradient                   ...        0 min,  0.066 sec
 * total energy  :   -82.9504411 Eh     change       -0.6922918E-04 Eh
   gradient norm :     0.0034950 Eh/α   predicted    -0.5091007E-04 ( -26.46%)
   displ. norm   :     0.1667766 α      lambda       -0.6026977E-04
   maximum displ.:     0.0894147 α      in ANC's #2, #3, #7, ...

........................................................................
.............................. CYCLE   11 ..............................
........................................................................
   1    -83.7181444 -0.837181E+02  0.694E-03    0.08       0.0  T
   2    -83.7167565  0.138785E-02  0.111E-01    0.07       1.0  T
   3    -83.7181489 -0.139242E-02  0.225E-03    0.08       6.8  T
   4    -83.7181491 -0.201717E-06  0.142E-03    0.08      10.9  T
   5    -83.7181493 -0.177860E-06  0.243E-04    0.08      63.5  T
   6    -83.7181493  0.238629E-09  0.986E-05    0.08     156.6  T
   7    -83.7181493 -0.881130E-09  0.202E-05    0.08     765.7  T
     SCC iter.                  ...        0 min,  0.042 sec
     gradient                   ...        0 min,  0.065 sec
 * total energy  :   -82.9504853 Eh     change       -0.4415346E-04 Eh
   gradient norm :     0.0029064 Eh/α   predicted    -0.3097360E-04 ( -29.85%)
   displ. norm   :     0.1278220 α      lambda       -0.4314700E-04
   maximum displ.:     0.0732950 α      in ANC's #2, #3, #8, ...

........................................................................
.............................. CYCLE   12 ..............................
........................................................................
   1    -83.7182630 -0.837183E+02  0.227E-02    0.08       0.0  T
   2    -83.6967254  0.215376E-01  0.434E-01    0.05       1.0  T
   3    -83.7183224 -0.215970E-01  0.100E-03    0.08      15.4  T
   4    -83.7183221  0.265789E-06  0.167E-03    0.08       9.3  T
   5    -83.7183224 -0.269836E-06  0.440E-04    0.08      35.0  T
   6    -83.7183224 -0.133713E-07  0.568E-05    0.08     271.7  T
   7    -83.7183224  0.670468E-10  0.432E-05    0.08     357.3  T
     SCC iter.                  ...        0 min,  0.041 sec
     gradient                   ...        0 min,  0.064 sec
 * total energy  :   -82.9505170 Eh     change       -0.3174759E-04 Eh
   gradient norm :     0.0019982 Eh/α   predicted    -0.2192684E-04 ( -30.93%)
   displ. norm   :     0.1596532 α      lambda       -0.3125101E-04
   maximum displ.:     0.0972130 α      in ANC's #2, #3, #10, ...

........................................................................
.............................. CYCLE   13 ..............................
........................................................................
   1    -83.7186242 -0.837186E+02  0.349E-02    0.08       0.0  T
   2    -83.6638412  0.547830E-01  0.692E-01    0.06       1.0  T
   3    -83.7187663 -0.549251E-01  0.219E-03    0.08       7.0  T
   4    -83.7187635  0.287798E-05  0.534E-03    0.08       2.9  T
   5    -83.7187659 -0.247686E-05  0.243E-03    0.08       6.4  T
   6    -83.7187665 -0.610416E-06  0.201E-04    0.08      76.8  T
   7    -83.7187665 -0.375803E-08  0.277E-05    0.08     556.3  T
   8    -83.7187665 -0.389520E-10  0.152E-05    0.08    1015.0  T
     SCC iter.                  ...        0 min,  0.045 sec
     gradient                   ...        0 min,  0.063 sec
 * total energy  :   -82.9505475 Eh     change       -0.3046149E-04 Eh
   gradient norm :     0.0023016 Eh/α   predicted    -0.1580464E-04 ( -48.12%)
   displ. norm   :     0.0730371 α      lambda       -0.2028031E-04
   maximum displ.:     0.0465500 α      in ANC's #2, #3, #5, ...

........................................................................
.............................. CYCLE   14 ..............................
........................................................................
   1    -83.7187673 -0.837188E+02  0.456E-03    0.08       0.0  T
   2    -83.7181202  0.647062E-03  0.757E-02    0.07       1.0  T
   3    -83.7187691 -0.648923E-03  0.243E-03    0.08       6.3  T
   4    -83.7187693 -0.155219E-06  0.198E-03    0.08       7.8  T
   5    -83.7187697 -0.390187E-06  0.503E-04    0.08      30.7  T
   6    -83.7187697 -0.229528E-07  0.769E-05    0.08     200.7  T
   7    -83.7187697 -0.598590E-09  0.748E-06    0.08    2062.2  T
     SCC iter.                  ...        0 min,  0.040 sec
     gradient                   ...        0 min,  0.064 sec
 * total energy  :   -82.9505659 Eh     change       -0.1834853E-04 Eh
   gradient norm :     0.0020124 Eh/α   predicted    -0.1019547E-04 ( -44.43%)
   displ. norm   :     0.1667983 α      lambda       -0.5125294E-04
   maximum displ.:     0.0981382 α      in ANC's #2, #3, #5, ...

........................................................................
.............................. CYCLE   15 ..............................
........................................................................
   1    -83.7192923 -0.837193E+02  0.307E-03    0.08       0.0  T
   2    -83.7192058  0.864629E-04  0.279E-02    0.08       1.0  T
   3    -83.7192906 -0.847073E-04  0.501E-03    0.08       3.1  T
   4    -83.7192918 -0.126746E-05  0.343E-03    0.08       4.5  T
   5    -83.7192929 -0.110636E-05  0.105E-03    0.08      14.8  T
   6    -83.7192930 -0.908717E-07  0.325E-04    0.08      47.5  T
   7    -83.7192930 -0.117492E-07  0.195E-05    0.08     792.0  T
   8    -83.7192930 -0.184741E-10  0.789E-06    0.08    1956.7  T
     SCC iter.                  ...        0 min,  0.047 sec
     gradient                   ...        0 min,  0.065 sec
 * total energy  :   -82.9506051 Eh     change       -0.3928771E-04 Eh
   gradient norm :     0.0020072 Eh/α   predicted    -0.2634342E-04 ( -32.95%)
   displ. norm   :     0.2056245 α      lambda       -0.4296371E-04
   maximum displ.:     0.1266228 α      in ANC's #2, #3, #5, ...

........................................................................
.............................. CYCLE   16 ..............................
........................................................................
   1    -83.7184881 -0.837185E+02  0.683E-03    0.08       0.0  T
   2    -83.7176604  0.827761E-03  0.856E-02    0.09       1.0  T
   3    -83.7184874 -0.827040E-03  0.675E-03    0.08       2.3  T
   4    -83.7184918 -0.440412E-05  0.210E-03    0.08       7.3  T
   5    -83.7184920 -0.200299E-06  0.144E-03    0.08      10.7  T
   6    -83.7184922 -0.221179E-06  0.843E-05    0.08     183.1  T
   7    -83.7184922 -0.531315E-09  0.177E-05    0.08     869.4  T
     SCC iter.                  ...        0 min,  0.041 sec
     gradient                   ...        0 min,  0.066 sec
 * total energy  :   -82.9506363 Eh     change       -0.3113851E-04 Eh
   gradient norm :     0.0024898 Eh/α   predicted    -0.2239126E-04 ( -28.09%)
   displ. norm   :     0.1588731 α      lambda       -0.2662864E-04
   maximum displ.:     0.0982174 α      in ANC's #2, #3, #1, ...

........................................................................
.............................. CYCLE   17 ..............................
........................................................................
   1    -83.7185456 -0.837185E+02  0.104E-02    0.08       0.0  T
   2    -83.7161521  0.239347E-02  0.146E-01    0.10       1.0  T
   3    -83.7185574 -0.240527E-02  0.221E-03    0.08       7.0  T
   4    -83.7185578 -0.458498E-06  0.582E-04    0.08      26.5  T
   5    -83.7185578 -0.218654E-07  0.253E-04    0.08      61.1  T
   6    -83.7185578 -0.174205E-08  0.180E-04    0.08      85.6  T
   7    -83.7185578 -0.343370E-08  0.302E-05    0.08     510.8  T
     SCC iter.                  ...        0 min,  0.039 sec
     gradient                   ...        0 min,  0.063 sec
 * total energy  :   -82.9506582 Eh     change       -0.2189975E-04 Eh
   gradient norm :     0.0024045 Eh/α   predicted    -0.1365124E-04 ( -37.66%)
   displ. norm   :     0.2146996 α      lambda       -0.3746673E-04
   maximum displ.:     0.1344371 α      in ANC's #2, #3, #1, ...

........................................................................
.............................. CYCLE   18 ..............................
........................................................................
   1    -83.7185508 -0.837186E+02  0.148E-02    0.08       0.0  T
   2    -83.7140656  0.448513E-02  0.201E-01    0.11       1.0  T
   3    -83.7185662 -0.450053E-02  0.980E-03    0.08       1.6  T
   4    -83.7185763 -0.101219E-04  0.170E-03    0.08       9.1  T
   5    -83.7185765 -0.221015E-06  0.722E-04    0.08      21.4  T
   6    -83.7185765  0.123906E-07  0.704E-04    0.08      21.9  T
   7    -83.7185765 -0.509929E-07  0.189E-04    0.08      81.5  T
   8    -83.7185765 -0.402460E-08  0.407E-05    0.08     379.2  T
     SCC iter.                  ...        0 min,  0.046 sec
     gradient                   ...        0 min,  0.063 sec
 * total energy  :   -82.9506884 Eh     change       -0.3025371E-04 Eh
   gradient norm :     0.0019560 Eh/α   predicted    -0.1959841E-04 ( -35.22%)
   displ. norm   :     0.4129230 α      lambda       -0.3869991E-04
   maximum displ.:     0.2600317 α      in ANC's #2, #3, #1, ...

........................................................................
.............................. CYCLE   19 ..............................
........................................................................
   1    -83.7179183 -0.837179E+02  0.929E-03    0.08       0.0  T
   2    -83.7162374  0.168085E-02  0.123E-01    0.10       1.0  T
   3    -83.7179198 -0.168235E-02  0.853E-03    0.08       1.8  T
   4    -83.7179270 -0.726670E-05  0.171E-03    0.08       9.0  T
   5    -83.7179271 -0.942572E-07  0.980E-04    0.08      15.7  T
   6    -83.7179271 -0.135744E-07  0.870E-04    0.08      17.7  T
   7    -83.7179272 -0.827068E-07  0.149E-04    0.08     103.6  T
   8    -83.7179272 -0.248963E-08  0.229E-05    0.08     674.1  T
     SCC iter.                  ...        0 min,  0.047 sec
     gradient                   ...        0 min,  0.064 sec
 * total energy  :   -82.9507237 Eh     change       -0.3527972E-04 Eh
   gradient norm :     0.0026907 Eh/α   predicted    -0.2081923E-04 ( -40.99%)
   displ. norm   :     0.1358052 α      lambda       -0.2156166E-04
   maximum displ.:     0.0867962 α      in ANC's #2, #3, #1, ...

........................................................................
.............................. CYCLE   20 ..............................
........................................................................
   1    -83.7187021 -0.837187E+02  0.220E-03    0.08       0.0  T
   2    -83.7186754  0.267035E-04  0.155E-02    0.09       1.0  T
   3    -83.7187015 -0.260685E-04  0.309E-03    0.08       5.0  T
   4    -83.7187023 -0.819503E-06  0.124E-03    0.08      12.4  T
   5    -83.7187025 -0.122876E-06  0.362E-04    0.08      42.6  T
   6    -83.7187025 -0.949797E-08  0.104E-04    0.08     147.8  T
   7    -83.7187025 -0.101444E-08  0.200E-05    0.08     770.1  T
     SCC iter.                  ...        0 min,  0.041 sec
     gradient                   ...        0 min,  0.064 sec
 * total energy  :   -82.9507408 Eh     change       -0.1708319E-04 Eh
   gradient norm :     0.0023062 Eh/α   predicted    -0.1098194E-04 ( -35.71%)
   displ. norm   :     0.3447121 α      lambda       -0.4226613E-04
   maximum displ.:     0.2234478 α      in ANC's #2, #3, #1, ...
 * RMSD in coord.:     0.4763111 α      energy gain  -0.1675219E-01 Eh

generating ANC from model Hessian ...
Using Lindh-Hessian (1995)
 Shifting diagonal of input Hessian by   9.839687536228709E-003
 Lowest  eigenvalues of input Hessian
    0.000000    0.000000    0.000000    0.000000    0.000000    0.000000
    0.010000    0.010256    0.010661    0.011002    0.011984    0.012281
    0.012745    0.013811    0.014714    0.015174    0.017316    0.018344
 Highest eigenvalues
    2.031217    2.082522    2.250418    2.342500    2.389135    2.392868
 

........................................................................
.............................. CYCLE   21 ..............................
........................................................................
   1    -83.7186541 -0.837187E+02  0.197E-02    0.09       0.0  T
   2    -83.7043696  0.142845E-01  0.354E-01    0.06       1.0  T
   3    -83.7186928 -0.143232E-01  0.573E-03    0.08       2.7  T
   4    -83.7186956 -0.280305E-05  0.316E-03    0.08       4.9  T
   5    -83.7186965 -0.919448E-06  0.112E-03    0.08      13.8  T
   6    -83.7186966 -0.996872E-07  0.484E-04    0.08      31.9  T
   7    -83.7186966 -0.248586E-07  0.724E-05    0.08     213.2  T
   8    -83.7186966 -0.452786E-09  0.129E-05    0.08    1193.9  T
     SCC iter.                  ...        0 min,  0.047 sec
     gradient                   ...        0 min,  0.065 sec
 * total energy  :   -82.9507756 Eh     change       -0.3477167E-04 Eh
   gradient norm :     0.0018587 Eh/α   predicted     0.0000000E+00 (-100.00%)
   displ. norm   :     0.0387944 α      lambda       -0.1156660E-04
   maximum displ.:     0.0179296 α      in ANC's #1, #2, #8, ...

........................................................................
.............................. CYCLE   22 ..............................
........................................................................
   1    -83.7190922 -0.837191E+02  0.589E-03    0.08       0.0  T
   2    -83.7180919  0.100036E-02  0.940E-02    0.08       1.0  T
   3    -83.7190960 -0.100412E-02  0.917E-04    0.08      16.8  T
   4    -83.7190960 -0.988695E-08  0.480E-04    0.08      32.1  T
   5    -83.7190960  0.459646E-08  0.273E-04    0.08      56.6  T
   6    -83.7190960 -0.529965E-08  0.363E-05    0.08     424.7  T
   7    -83.7190960 -0.900968E-10  0.772E-06    0.08    1998.0  T
     SCC iter.                  ...        0 min,  0.041 sec
     gradient                   ...        0 min,  0.064 sec
 * total energy  :   -82.9507911 Eh     change       -0.1554042E-04 Eh
   gradient norm :     0.0007454 Eh/α   predicted    -0.6506580E-05 ( -58.13%)
   displ. norm   :     0.1071392 α      lambda       -0.2232837E-04
   maximum displ.:     0.0527363 α      in ANC's #1, #2, #8, ...

........................................................................
.............................. CYCLE   23 ..............................
........................................................................
   1    -83.7194234 -0.837194E+02  0.940E-03    0.09       0.0  T
   2    -83.7165046  0.291882E-02  0.160E-01    0.07       1.0  T
   3    -83.7194305 -0.292591E-02  0.565E-03    0.08       2.7  T
   4    -83.7194332 -0.264769E-05  0.259E-03    0.08       6.0  T
   5    -83.7194338 -0.636107E-06  0.667E-04    0.08      23.1  T
   6    -83.7194339 -0.353518E-07  0.135E-04    0.08     114.4  T
   7    -83.7194339 -0.176972E-08  0.159E-05    0.08     973.3  T
     SCC iter.                  ...        0 min,  0.041 sec
     gradient                   ...        0 min,  0.063 sec
 * total energy  :   -82.9508127 Eh     change       -0.2157522E-04 Eh
   gradient norm :     0.0014155 Eh/α   predicted    -0.1122186E-04 ( -47.99%)
   displ. norm   :     0.0953418 α      lambda       -0.1257726E-04
   maximum displ.:     0.0521414 α      in ANC's #1, #2, #8, ...

........................................................................
.............................. CYCLE   24 ..............................
........................................................................
   1    -83.7193816 -0.837194E+02  0.352E-03    0.08       0.0  T
   2    -83.7190034  0.378226E-03  0.579E-02    0.08       1.0  T
   3    -83.7193811 -0.377729E-03  0.432E-03    0.08       3.6  T
   4    -83.7193830 -0.188684E-05  0.123E-03    0.08      12.5  T
   5    -83.7193831 -0.133571E-06  0.443E-04    0.08      34.8  T
   6    -83.7193831 -0.154470E-07  0.179E-04    0.08      86.0  T
   7    -83.7193831 -0.346870E-08  0.878E-06    0.08    1756.9  T
     SCC iter.                  ...        0 min,  0.040 sec
     gradient                   ...        0 min,  0.064 sec
 * total energy  :   -82.9508255 Eh     change       -0.1279902E-04 Eh
   gradient norm :     0.0016973 Eh/α   predicted    -0.6316094E-05 ( -50.65%)
   displ. norm   :     0.1123569 α      lambda       -0.1379779E-04
   maximum displ.:     0.0659896 α      in ANC's #1, #2, #4, ...

........................................................................
.............................. CYCLE   25 ..............................
........................................................................
   1    -83.7192619 -0.837193E+02  0.156E-03    0.08       0.0  T
   2    -83.7192287  0.332222E-04  0.171E-02    0.08       1.0  T
   3    -83.7192620 -0.333105E-04  0.112E-03    0.08      13.7  T
   4    -83.7192621 -0.112961E-06  0.340E-04    0.08      45.4  T
   5    -83.7192621  0.867686E-09  0.248E-04    0.08      62.1  T
   6    -83.7192621 -0.632335E-08  0.459E-05    0.08     336.1  T
   7    -83.7192621 -0.114028E-09  0.235E-05    0.08     657.6  T
     SCC iter.                  ...        0 min,  0.041 sec
     gradient                   ...        0 min,  0.063 sec
 * total energy  :   -82.9508423 Eh     change       -0.1686219E-04 Eh
   gradient norm :     0.0012694 Eh/α   predicted    -0.6939031E-05 ( -58.85%)
   displ. norm   :     0.1516782 α      lambda       -0.1912107E-04
   maximum displ.:     0.0936722 α      in ANC's #1, #2, #3, ...

........................................................................
.............................. CYCLE   26 ..............................
........................................................................
   1    -83.7189949 -0.837190E+02  0.309E-03    0.08       0.0  T
   2    -83.7188281  0.166809E-03  0.386E-02    0.09       1.0  T
   3    -83.7189957 -0.167592E-03  0.104E-03    0.08      14.9  T
   4    -83.7189957  0.529882E-07  0.101E-03    0.08      15.2  T
   5    -83.7189957 -0.838849E-07  0.280E-04    0.08      55.1  T
   6    -83.7189958 -0.687099E-08  0.665E-05    0.08     232.2  T
   7    -83.7189958 -0.203116E-09  0.360E-05    0.08     429.0  T
     SCC iter.                  ...        0 min,  0.041 sec
     gradient                   ...        0 min,  0.065 sec
 * total energy  :   -82.9508650 Eh     change       -0.2263110E-04 Eh
   gradient norm :     0.0008966 Eh/α   predicted    -0.9659604E-05 ( -57.32%)
   displ. norm   :     0.1540968 α      lambda       -0.1719299E-04
   maximum displ.:     0.0990408 α      in ANC's #1, #2, #3, ...

........................................................................
.............................. CYCLE   27 ..............................
........................................................................
   1    -83.7188255 -0.837188E+02  0.643E-03    0.08       0.0  T
   2    -83.7178253  0.100014E-02  0.944E-02    0.10       1.0  T
   3    -83.7188290 -0.100362E-02  0.352E-03    0.08       4.4  T
   4    -83.7188302 -0.124909E-05  0.744E-04    0.08      20.7  T
   5    -83.7188302 -0.414579E-07  0.164E-04    0.08      94.3  T
   6    -83.7188302  0.362625E-08  0.202E-04    0.08      76.4  T
   7    -83.7188302 -0.424353E-08  0.433E-05    0.08     356.5  T
     SCC iter.                  ...        0 min,  0.041 sec
     gradient                   ...        0 min,  0.066 sec
 * total energy  :   -82.9508854 Eh     change       -0.2042141E-04 Eh
   gradient norm :     0.0014031 Eh/α   predicted    -0.8687931E-05 ( -57.46%)
   displ. norm   :     0.1472769 α      lambda       -0.1659640E-04
   maximum displ.:     0.0963055 α      in ANC's #1, #2, #3, ...

........................................................................
.............................. CYCLE   28 ..............................
........................................................................
   1    -83.7188640 -0.837189E+02  0.922E-03    0.08       0.0  T
   2    -83.7168490  0.201506E-02  0.134E-01    0.10       1.0  T
   3    -83.7188705 -0.202154E-02  0.580E-03    0.08       2.7  T
   4    -83.7188742 -0.369757E-05  0.361E-04    0.08      42.7  T
   5    -83.7188742  0.248327E-07  0.530E-04    0.08      29.1  T
   6    -83.7188742 -0.200549E-07  0.263E-04    0.08      58.7  T
   7    -83.7188742 -0.693410E-08  0.746E-05    0.08     206.7  T
   8    -83.7188742 -0.484661E-09  0.398E-05    0.08     388.1  T
     SCC iter.                  ...        0 min,  0.045 sec
     gradient                   ...        0 min,  0.064 sec
 * total energy  :   -82.9509065 Eh     change       -0.2111606E-04 Eh
   gradient norm :     0.0015846 Eh/α   predicted    -0.8379543E-05 ( -60.32%)
   displ. norm   :     0.2085789 α      lambda       -0.2344604E-04
   maximum displ.:     0.1361793 α      in ANC's #1, #2, #3, ...

........................................................................
.............................. CYCLE   29 ..............................
........................................................................
   1    -83.7187402 -0.837187E+02  0.123E-02    0.08       0.0  T
   2    -83.7154050  0.333517E-02  0.173E-01    0.11       1.0  T
   3    -83.7187516 -0.334660E-02  0.774E-03    0.08       2.0  T
   4    -83.7187582 -0.657048E-05  0.625E-04    0.08      24.7  T
   5    -83.7187579  0.251090E-06  0.161E-03    0.08       9.6  T
   6    -83.7187582 -0.285590E-06  0.148E-04    0.08     104.1  T
   7    -83.7187582 -0.145899E-08  0.761E-05    0.08     202.7  T
     SCC iter.                  ...        0 min,  0.040 sec
     gradient                   ...        0 min,  0.065 sec
 * total energy  :   -82.9509367 Eh     change       -0.3015924E-04 Eh
   gradient norm :     0.0015119 Eh/α   predicted    -0.1195407E-04 ( -60.36%)
   displ. norm   :     0.3054292 α      lambda       -0.3126402E-04
   maximum displ.:     0.2001419 α      in ANC's #1, #2, #3, ...

........................................................................
.............................. CYCLE   30 ..............................
........................................................................
   1    -83.7183620 -0.837184E+02  0.181E-02    0.08       0.0  T
   2    -83.7121234  0.623858E-02  0.237E-01    0.12       1.0  T
   3    -83.7183841 -0.626074E-02  0.122E-02    0.09       1.3  T
   4    -83.7184003 -0.161120E-04  0.175E-03    0.08       8.8  T
   5    -83.7183988  0.147854E-05  0.406E-03    0.08       3.8  T
   6    -83.7184006 -0.185182E-05  0.625E-05    0.08     247.0  T
   7    -83.7184006  0.109821E-09  0.486E-05    0.08     317.4  T
   8    -83.7184006  0.376644E-09  0.692E-05    0.08     223.0  T
     SCC iter.                  ...        0 min,  0.044 sec
     gradient                   ...        0 min,  0.058 sec
 * total energy  :   -82.9509733 Eh     change       -0.3664174E-04 Eh
   gradient norm :     0.0019139 Eh/α   predicted    -0.1628266E-04 ( -55.56%)
   displ. norm   :     0.2991330 α      lambda       -0.2908872E-04
   maximum displ.:     0.2005368 α      in ANC's #1, #2, #3, ...

........................................................................
.............................. CYCLE   31 ..............................
........................................................................
   1    -83.7185228 -0.837185E+02  0.134E-02    0.08       0.0  T
   2    -83.7147975  0.372533E-02  0.183E-01    0.11       1.0  T
   3    -83.7185411 -0.374364E-02  0.450E-03    0.08       3.4  T
   4    -83.7185432 -0.212153E-05  0.607E-04    0.08      25.4  T
   5    -83.7185431  0.132953E-06  0.121E-03    0.08      12.8  T
   6    -83.7185433 -0.159861E-06  0.132E-04    0.08     117.0  T
   7    -83.7185433 -0.158371E-08  0.213E-05    0.08     725.2  T
     SCC iter.                  ...        0 min,  0.037 sec
     gradient                   ...        0 min,  0.057 sec
 * total energy  :   -82.9510061 Eh     change       -0.3274622E-04 Eh
   gradient norm :     0.0019931 Eh/α   predicted    -0.1512384E-04 ( -53.82%)
   displ. norm   :     0.2892539 α      lambda       -0.2679925E-04
   maximum displ.:     0.1976315 α      in ANC's #1, #2, #3, ...

........................................................................
.............................. CYCLE   32 ..............................
........................................................................
   1    -83.7187167 -0.837187E+02  0.639E-03    0.08       0.0  T
   2    -83.7178377  0.879062E-03  0.886E-02    0.10       1.0  T
   3    -83.7187209 -0.883256E-03  0.934E-04    0.08      16.5  T
   4    -83.7187206  0.291478E-06  0.182E-03    0.08       8.5  T
   5    -83.7187209 -0.269216E-06  0.810E-04    0.08      19.1  T
   6    -83.7187210 -0.663263E-07  0.134E-04    0.08     115.4  T
   7    -83.7187210  0.254232E-09  0.129E-04    0.08     119.3  T
     SCC iter.                  ...        0 min,  0.037 sec
     gradient                   ...        0 min,  0.056 sec
 * total energy  :   -82.9510407 Eh     change       -0.3465866E-04 Eh
   gradient norm :     0.0019681 Eh/α   predicted    -0.1389831E-04 ( -59.90%)
   displ. norm   :     0.4539069 α      lambda       -0.4527386E-04
   maximum displ.:     0.3145603 α      in ANC's #1, #2, #3, ...

........................................................................
.............................. CYCLE   33 ..............................
........................................................................
   1    -83.7186483 -0.837186E+02  0.392E-03    0.09       0.0  T
   2    -83.7186215  0.267716E-04  0.157E-02    0.09       1.0  T
   3    -83.7186216 -0.120041E-07  0.156E-02    0.08       1.0  T
   4    -83.7186489 -0.273551E-04  0.148E-03    0.09      10.5  T
   5    -83.7186491 -0.150016E-06  0.773E-04    0.09      20.0  T
   6    -83.7186491 -0.593280E-07  0.913E-05    0.09     169.0  T
   7    -83.7186491  0.851315E-09  0.111E-04    0.09     139.5  T
     SCC iter.                  ...        0 min,  0.035 sec
     gradient                   ...        0 min,  0.056 sec
 * total energy  :   -82.9510880 Eh     change       -0.4724024E-04 Eh
   gradient norm :     0.0021366 Eh/α   predicted    -0.2471115E-04 ( -47.69%)
   displ. norm   :     0.1614558 α      lambda       -0.3079313E-04
   maximum displ.:     0.1164653 α      in ANC's #1, #2, #8, ...

........................................................................
.............................. CYCLE   34 ..............................
........................................................................
   1    -83.7202882 -0.837203E+02  0.750E-03    0.09       0.0  T
   2    -83.7187640  0.152416E-02  0.116E-01    0.08       1.0  T
   3    -83.7202905 -0.152655E-02  0.585E-03    0.09       2.6  T
   4    -83.7202941 -0.355483E-05  0.826E-04    0.09      18.7  T
   5    -83.7202941  0.641705E-08  0.423E-04    0.09      36.5  T
   6    -83.7202941 -0.148628E-07  0.735E-05    0.09     210.0  T
   7    -83.7202941 -0.351676E-09  0.218E-05    0.09     706.9  T
     SCC iter.                  ...        0 min,  0.036 sec
     gradient                   ...        0 min,  0.056 sec
 * total energy  :   -82.9511055 Eh     change       -0.1754854E-04 Eh
   gradient norm :     0.0019509 Eh/α   predicted    -0.1580085E-04 (  -9.96%)
   displ. norm   :     0.6414979 α      lambda       -0.4840780E-04
   maximum displ.:     0.4498234 α      in ANC's #1, #2, #3, ...

........................................................................
.............................. CYCLE   35 ..............................
........................................................................
   1    -83.7172407 -0.837172E+02  0.116E-02    0.09       0.0  T
   2    -83.7158278  0.141294E-02  0.113E-01    0.10       1.0  T
   3    -83.7172453 -0.141755E-02  0.671E-03    0.09       2.3  T
   4    -83.7172438  0.149841E-05  0.726E-03    0.09       2.1  T
   5    -83.7172490 -0.517947E-05  0.148E-03    0.09      10.4  T
   6    -83.7172492 -0.209006E-06  0.145E-04    0.09     106.7  T
   7    -83.7172492  0.100482E-07  0.307E-04    0.09      50.3  T
   8    -83.7172492 -0.952153E-08  0.925E-05    0.09     166.9  T
     SCC iter.                  ...        0 min,  0.042 sec
     gradient                   ...        0 min,  0.058 sec
 * total energy  :   -82.9511073 Eh     change       -0.1764227E-05 Eh
   gradient norm :     0.0051909 Eh/α   predicted    -0.2863165E-04 (1522.90%)
   displ. norm   :     0.1442426 α      lambda       -0.5875528E-04
   maximum displ.:     0.0950256 α      in ANC's #1, #2, #3, ...

........................................................................
.............................. CYCLE   36 ..............................
........................................................................
   1    -83.7192150 -0.837192E+02  0.137E-02    0.09       0.0  T
   2    -83.7131158  0.609925E-02  0.232E-01    0.07       1.0  T
   3    -83.7192333 -0.611755E-02  0.528E-03    0.09       2.9  T
   4    -83.7192338 -0.486199E-06  0.438E-03    0.09       3.5  T
   5    -83.7192351 -0.126478E-05  0.235E-03    0.09       6.6  T
   6    -83.7192357 -0.594017E-06  0.343E-04    0.09      45.0  T
   7    -83.7192357 -0.123475E-07  0.400E-05    0.09     385.4  T
   8    -83.7192357 -0.140375E-09  0.777E-06    0.09    1986.2  T
     SCC iter.                  ...        0 min,  0.043 sec
     gradient                   ...        0 min,  0.059 sec
 * total energy  :   -82.9511436 Eh     change       -0.3627676E-04 Eh
   gradient norm :     0.0017090 Eh/α   predicted    -0.2998991E-04 ( -17.33%)
   displ. norm   :     0.0664257 α      lambda       -0.1628413E-04
   maximum displ.:     0.0459980 α      in ANC's #1, #2, #15, ...

........................................................................
.............................. CYCLE   37 ..............................
........................................................................
   1    -83.7202790 -0.837203E+02  0.772E-03    0.09       0.0  T
   2    -83.7185209  0.175808E-02  0.125E-01    0.08       1.0  T
   3    -83.7202837 -0.176282E-02  0.440E-03    0.09       3.5  T
   4    -83.7202849 -0.112448E-05  0.274E-03    0.09       5.6  T
   5    -83.7202854 -0.498578E-06  0.145E-03    0.09      10.7  T
   6    -83.7202856 -0.223595E-06  0.191E-04    0.09      80.7  T
   7    -83.7202856 -0.379787E-08  0.223E-05    0.09     690.7  T
     SCC iter.                  ...        0 min,  0.038 sec
     gradient                   ...        0 min,  0.058 sec
 * total energy  :   -82.9511590 Eh     change       -0.1545339E-04 Eh
   gradient norm :     0.0014080 Eh/α   predicted    -0.8160074E-05 ( -47.20%)
   displ. norm   :     0.1832759 α      lambda       -0.1250752E-04
   maximum displ.:     0.1360714 α      in ANC's #1, #2, #5, ...

........................................................................
.............................. CYCLE   38 ..............................
........................................................................
   1    -83.7202395 -0.837202E+02  0.480E-03    0.09       0.0  T
   2    -83.7196936  0.545974E-03  0.698E-02    0.10       1.0  T
   3    -83.7202418 -0.548189E-03  0.193E-03    0.09       8.0  T
   4    -83.7202422 -0.389487E-06  0.294E-04    0.09      52.5  T
   5    -83.7202422 -0.426380E-08  0.986E-05    0.09     156.4  T
   6    -83.7202422 -0.187725E-10  0.426E-05    0.09     362.4  T
     SCC iter.                  ...        0 min,  0.033 sec
     gradient                   ...        0 min,  0.058 sec
 * total energy  :   -82.9511747 Eh     change       -0.1568676E-04 Eh
   gradient norm :     0.0013566 Eh/α   predicted    -0.6348454E-05 ( -59.53%)
   displ. norm   :     0.2786367 α      lambda       -0.1637544E-04
   maximum displ.:     0.2063136 α      in ANC's #1, #2, #5, ...

........................................................................
.............................. CYCLE   39 ..............................
........................................................................
   1    -83.7197006 -0.837197E+02  0.893E-03    0.09       0.0  T
   2    -83.7179358  0.176486E-02  0.126E-01    0.10       1.0  T
   3    -83.7197056 -0.176979E-02  0.631E-03    0.09       2.4  T
   4    -83.7197097 -0.418714E-05  0.955E-04    0.09      16.2  T
   5    -83.7197097  0.694983E-07  0.119E-03    0.09      13.0  T
   6    -83.7197098 -0.154000E-06  0.116E-04    0.09     132.6  T
   7    -83.7197098 -0.112358E-08  0.382E-05    0.09     404.3  T
     SCC iter.                  ...        0 min,  0.038 sec
     gradient                   ...        0 min,  0.057 sec
 * total energy  :   -82.9511918 Eh     change       -0.1715088E-04 Eh
   gradient norm :     0.0013188 Eh/α   predicted    -0.8473069E-05 ( -50.60%)
   displ. norm   :     0.2034264 α      lambda       -0.9829828E-05
   maximum displ.:     0.1502406 α      in ANC's #1, #2, #5, ...

........................................................................
.............................. CYCLE   40 ..............................
........................................................................
   1    -83.7189957 -0.837190E+02  0.656E-03    0.09       0.0  T
   2    -83.7180084  0.987221E-03  0.940E-02    0.10       1.0  T
   3    -83.7189984 -0.989952E-03  0.452E-03    0.09       3.4  T
   4    -83.7190005 -0.213862E-05  0.538E-04    0.09      28.7  T
   5    -83.7190005  0.192869E-07  0.518E-04    0.09      29.8  T
   6    -83.7190005 -0.254172E-07  0.132E-04    0.09     116.8  T
   7    -83.7190005 -0.174386E-08  0.325E-05    0.09     475.0  T
     SCC iter.                  ...        0 min,  0.038 sec
     gradient                   ...        0 min,  0.057 sec
 * total energy  :   -82.9512018 Eh     change       -0.9989472E-05 Eh
   gradient norm :     0.0016148 Eh/α   predicted    -0.5008805E-05 ( -49.86%)
   displ. norm   :     0.2982858 α      lambda       -0.1383183E-04
   maximum displ.:     0.2225630 α      in ANC's #1, #2, #5, ...

........................................................................
.............................. CYCLE   41 ..............................
........................................................................
   1    -83.7191172 -0.837191E+02  0.632E-03    0.09       0.0  T
   2    -83.7182145  0.902773E-03  0.899E-02    0.10       1.0  T
   3    -83.7191206 -0.906159E-03  0.327E-03    0.09       4.7  T
   4    -83.7191217 -0.108419E-05  0.779E-04    0.09      19.8  T
   5    -83.7191218 -0.359525E-07  0.396E-04    0.09      38.9  T
   6    -83.7191218 -0.103596E-07  0.185E-04    0.09      83.3  T
   7    -83.7191218 -0.352597E-08  0.237E-05    0.09     652.0  T
     SCC iter.                  ...        0 min,  0.037 sec
     gradient                   ...        0 min,  0.057 sec
 * total energy  :   -82.9512198 Eh     change       -0.1797604E-04 Eh
   gradient norm :     0.0016885 Eh/α   predicted    -0.7193501E-05 ( -59.98%)
   displ. norm   :     0.8167998 α      lambda       -0.3790150E-04
   maximum displ.:     0.6102782 α      in ANC's #1, #2, #5, ...

........................................................................
.............................. CYCLE   42 ..............................
........................................................................
   1    -83.7168973 -0.837169E+02  0.161E-02    0.09       0.0  T
   2    -83.7126724  0.422491E-02  0.195E-01    0.11       1.0  T
   3    -83.7169234 -0.425096E-02  0.239E-03    0.09       6.5  T
   4    -83.7169223  0.107213E-05  0.348E-03    0.09       4.4  T
   5    -83.7169235 -0.116093E-05  0.492E-04    0.09      31.4  T
   6    -83.7169235 -0.590238E-08  0.148E-04    0.09     104.4  T
   7    -83.7169235 -0.113745E-08  0.514E-05    0.09     300.0  T
     SCC iter.                  ...        0 min,  0.035 sec
     gradient                   ...        0 min,  0.056 sec
 * total energy  :   -82.9512599 Eh     change       -0.4011586E-04 Eh
   gradient norm :     0.0045750 Eh/α   predicted    -0.2458551E-04 ( -38.71%)
   displ. norm   :     0.3465912 α      lambda       -0.4992813E-04
   maximum displ.:     0.2627812 α      in ANC's #1, #2, #7, ...
 * RMSD in coord.:     0.7675003 α      energy gain  -0.5191251E-03 Eh

generating ANC from model Hessian ...
Using Lindh-Hessian (1995)
 Shifting diagonal of input Hessian by   9.848119968405490E-003
 Lowest  eigenvalues of input Hessian
    0.000000    0.000000    0.000000    0.000000    0.000000    0.000000
    0.010000    0.010211    0.010583    0.010879    0.011855    0.012231
    0.012642    0.013588    0.014707    0.015131    0.017254    0.018103
 Highest eigenvalues
    2.029616    2.080073    2.248675    2.340535    2.389147    2.393306
 

........................................................................
.............................. CYCLE   43 ..............................
........................................................................
   1    -83.7181255 -0.837181E+02  0.461E-03    0.09       0.0  T
   2    -83.7177999  0.325596E-03  0.538E-02    0.08       1.0  T
   3    -83.7181271 -0.327242E-03  0.131E-03    0.09      11.8  T
   4    -83.7181272 -0.319515E-07  0.673E-04    0.09      22.9  T
   5    -83.7181272 -0.750703E-09  0.267E-04    0.09      57.8  T
   6    -83.7181272 -0.218759E-08  0.684E-05    0.09     225.5  T
   7    -83.7181272 -0.305050E-09  0.197E-05    0.09     782.1  T
     SCC iter.                  ...        0 min,  0.038 sec
     gradient                   ...        0 min,  0.060 sec
 * total energy  :   -82.9513014 Eh     change       -0.4144779E-04 Eh
   gradient norm :     0.0034882 Eh/α   predicted     0.0000000E+00 (-100.00%)
   displ. norm   :     0.0293925 α      lambda       -0.3598777E-04
   maximum displ.:     0.0099723 α      in ANC's #9, #15, #11, ...

........................................................................
.............................. CYCLE   44 ..............................
........................................................................
   1    -83.7199588 -0.837200E+02  0.751E-03    0.09       0.0  T
   2    -83.7186142  0.134457E-02  0.109E-01    0.08       1.0  T
   3    -83.7199640 -0.134971E-02  0.217E-03    0.09       7.1  T
   4    -83.7199636  0.390396E-06  0.255E-03    0.09       6.1  T
   5    -83.7199642 -0.622721E-06  0.313E-04    0.09      49.3  T
   6    -83.7199642 -0.524963E-08  0.864E-05    0.09     178.6  T
   7    -83.7199642 -0.627352E-09  0.350E-05    0.09     441.1  T
     SCC iter.                  ...        0 min,  0.040 sec
     gradient                   ...        0 min,  0.060 sec
 * total energy  :   -82.9513287 Eh     change       -0.2733369E-04 Eh
   gradient norm :     0.0013709 Eh/α   predicted    -0.1842788E-04 ( -32.58%)
   displ. norm   :     0.0843937 α      lambda       -0.3093089E-04
   maximum displ.:     0.0337385 α      in ANC's #15, #9, #3, ...

........................................................................
.............................. CYCLE   45 ..............................
........................................................................
   1    -83.7219854 -0.837220E+02  0.227E-02    0.09       0.0  T
   2    -83.7029544  0.190310E-01  0.409E-01    0.06       1.0  T
   3    -83.7220437 -0.190893E-01  0.275E-03    0.09       5.6  T
   4    -83.7220440 -0.311317E-06  0.156E-03    0.09       9.9  T
   5    -83.7220441 -0.122672E-06  0.558E-04    0.09      27.7  T
   6    -83.7220441 -0.110989E-07  0.134E-04    0.09     115.4  T
   7    -83.7220441 -0.144993E-08  0.549E-05    0.09     281.0  T
     SCC iter.                  ...        0 min,  0.040 sec
     gradient                   ...        0 min,  0.059 sec
 * total energy  :   -82.9513520 Eh     change       -0.2331905E-04 Eh
   gradient norm :     0.0022116 Eh/α   predicted    -0.1551455E-04 ( -33.47%)
   displ. norm   :     0.0335130 α      lambda       -0.1168739E-04
   maximum displ.:     0.0150714 α      in ANC's #15, #3, #2, ...

........................................................................
.............................. CYCLE   46 ..............................
........................................................................
   1    -83.7215787 -0.837216E+02  0.371E-03    0.09       0.0  T
   2    -83.7211880  0.390762E-03  0.590E-02    0.08       1.0  T
   3    -83.7215799 -0.391899E-03  0.212E-03    0.09       7.3  T
   4    -83.7215802 -0.339195E-06  0.110E-03    0.09      14.0  T
   5    -83.7215803 -0.119180E-06  0.188E-04    0.09      81.9  T
   6    -83.7215803 -0.290839E-08  0.363E-05    0.09     425.3  T
     SCC iter.                  ...        0 min,  0.034 sec
     gradient                   ...        0 min,  0.060 sec
 * total energy  :   -82.9513626 Eh     change       -0.1054818E-04 Eh
   gradient norm :     0.0015740 Eh/α   predicted    -0.6013995E-05 ( -42.99%)
   displ. norm   :     0.1913549 α      lambda       -0.3615664E-04
   maximum displ.:     0.0870277 α      in ANC's #15, #3, #1, ...

........................................................................
.............................. CYCLE   47 ..............................
........................................................................
   1    -83.7190110 -0.837190E+02  0.851E-03    0.09       0.0  T
   2    -83.7174801  0.153091E-02  0.117E-01    0.08       1.0  T
   3    -83.7190158 -0.153569E-02  0.466E-03    0.09       3.3  T
   4    -83.7190149  0.824954E-06  0.500E-03    0.09       3.1  T
   5    -83.7190174 -0.246907E-05  0.619E-04    0.09      24.9  T
   6    -83.7190174 -0.309119E-07  0.773E-05    0.09     199.7  T
   7    -83.7190174  0.129248E-09  0.746E-05    0.09     206.8  T
     SCC iter.                  ...        0 min,  0.040 sec
     gradient                   ...        0 min,  0.060 sec
 * total energy  :   -82.9513829 Eh     change       -0.2030166E-04 Eh
   gradient norm :     0.0024779 Eh/α   predicted    -0.1837947E-04 (  -9.47%)
   displ. norm   :     0.0128723 α      lambda       -0.9645997E-05
   maximum displ.:     0.0054173 α      in ANC's #1, #2, #9, ...

........................................................................
.............................. CYCLE   48 ..............................
........................................................................
   1    -83.7196961 -0.837197E+02  0.577E-03    0.09       0.0  T
   2    -83.7189120  0.784081E-03  0.838E-02    0.10       1.0  T
   3    -83.7196987 -0.786732E-03  0.346E-03    0.09       4.5  T
   4    -83.7196999 -0.121598E-05  0.792E-04    0.09      19.5  T
   5    -83.7197000 -0.453573E-07  0.293E-04    0.09      52.7  T
   6    -83.7197000 -0.640433E-08  0.114E-04    0.09     135.0  T
   7    -83.7197000 -0.141961E-08  0.191E-05    0.09     810.0  T
     SCC iter.                  ...        0 min,  0.039 sec
     gradient                   ...        0 min,  0.060 sec
 * total energy  :   -82.9513908 Eh     change       -0.7883483E-05 Eh
   gradient norm :     0.0015429 Eh/α   predicted    -0.4824480E-05 ( -38.80%)
   displ. norm   :     0.0788377 α      lambda       -0.1861210E-04
   maximum displ.:     0.0426021 α      in ANC's #1, #2, #3, ...

........................................................................
.............................. CYCLE   49 ..............................
........................................................................
   1    -83.7216138 -0.837216E+02  0.210E-02    0.09       0.0  T
   2    -83.7143200  0.729379E-02  0.257E-01    0.13       1.0  T
   3    -83.7216359 -0.731586E-02  0.166E-02    0.09       1.0  T
   4    -83.7216658 -0.299072E-04  0.153E-03    0.09      10.1  T
   5    -83.7216650  0.776171E-06  0.307E-03    0.09       5.0  T
   6    -83.7216660 -0.998322E-06  0.270E-04    0.09      57.1  T
   7    -83.7216660 -0.560819E-08  0.144E-04    0.09     107.4  T
   8    -83.7216660 -0.207828E-08  0.502E-05    0.09     307.3  T
     SCC iter.                  ...        0 min,  0.045 sec
     gradient                   ...        0 min,  0.060 sec
 * total energy  :   -82.9514051 Eh     change       -0.1429584E-04 Eh
   gradient norm :     0.0016708 Eh/α   predicted    -0.9352343E-05 ( -34.58%)
   displ. norm   :     0.0795754 α      lambda       -0.7717869E-05
   maximum displ.:     0.0408930 α      in ANC's #1, #2, #3, ...

........................................................................
.............................. CYCLE   50 ..............................
........................................................................
   1    -83.7213811 -0.837214E+02  0.121E-03    0.09       0.0  T
   2    -83.7213684  0.126677E-04  0.106E-02    0.09       1.5  T
   3    -83.7213811 -0.126867E-04  0.866E-04    0.09      17.8  T
   4    -83.7213812 -0.543763E-07  0.331E-04    0.09      46.6  T
   5    -83.7213812  0.528546E-08  0.315E-04    0.09      49.0  T
   6    -83.7213812 -0.106456E-07  0.519E-05    0.09     297.6  T
   7    -83.7213812 -0.285013E-09  0.536E-06    0.09    2876.3  T
     SCC iter.                  ...        0 min,  0.039 sec
     gradient                   ...        0 min,  0.058 sec
 * total energy  :   -82.9514156 Eh     change       -0.1057334E-04 Eh
   gradient norm :     0.0012703 Eh/α   predicted    -0.3896653E-05 ( -63.15%)
   displ. norm   :     0.1948252 α      lambda       -0.1891361E-04
   maximum displ.:     0.1024687 α      in ANC's #1, #2, #3, ...

........................................................................
.............................. CYCLE   51 ..............................
........................................................................
   1    -83.7203711 -0.837204E+02  0.243E-03    0.09       0.0  T
   2    -83.7203686  0.249176E-05  0.487E-03    0.09       3.2  T
   3    -83.7203587  0.992063E-05  0.107E-02    0.09       1.4  T
   4    -83.7203711 -0.123887E-04  0.137E-03    0.09      11.3  T
   5    -83.7203711 -0.427665E-07  0.106E-03    0.09      14.6  T
   6    -83.7203712 -0.121709E-06  0.575E-05    0.09     268.4  T
   7    -83.7203712 -0.232376E-09  0.148E-05    0.09    1040.8  T
     SCC iter.                  ...        0 min,  0.038 sec
     gradient                   ...        0 min,  0.058 sec
 * total energy  :   -82.9514378 Eh     change       -0.2214178E-04 Eh
   gradient norm :     0.0008488 Eh/α   predicted    -0.9619733E-05 ( -56.55%)
   displ. norm   :     0.2512507 α      lambda       -0.1804089E-04
   maximum displ.:     0.1358731 α      in ANC's #1, #2, #3, ...

........................................................................
.............................. CYCLE   52 ..............................
........................................................................
   1    -83.7194285 -0.837194E+02  0.290E-03    0.09       0.0  T
   2    -83.7194154  0.131743E-04  0.109E-02    0.09       1.4  T
   3    -83.7194242 -0.887008E-05  0.656E-03    0.09       2.4  T
   4    -83.7194286 -0.436473E-05  0.158E-03    0.09       9.7  T
   5    -83.7194286 -0.143255E-07  0.139E-03    0.09      11.1  T
   6    -83.7194288 -0.210736E-06  0.830E-05    0.09     186.0  T
   7    -83.7194288 -0.542883E-09  0.309E-05    0.09     498.8  T
     SCC iter.                  ...        0 min,  0.038 sec
     gradient                   ...        0 min,  0.056 sec
 * total energy  :   -82.9514591 Eh     change       -0.2137089E-04 Eh
   gradient norm :     0.0019175 Eh/α   predicted    -0.9274455E-05 ( -56.60%)
   displ. norm   :     0.2568219 α      lambda       -0.1951588E-04
   maximum displ.:     0.1432461 α      in ANC's #1, #2, #3, ...

........................................................................
.............................. CYCLE   53 ..............................
........................................................................
   1    -83.7192606 -0.837193E+02  0.478E-03    0.09       0.0  T
   2    -83.7188164  0.444223E-03  0.630E-02    0.10       1.0  T
   3    -83.7192617 -0.445348E-03  0.340E-03    0.09       4.5  T
   4    -83.7192629 -0.118920E-05  0.875E-04    0.09      17.6  T
   5    -83.7192629  0.524097E-07  0.103E-03    0.09      15.0  T
   6    -83.7192630 -0.110176E-06  0.191E-04    0.09      80.9  T
   7    -83.7192630 -0.334560E-08  0.892E-05    0.09     173.0  T
     SCC iter.                  ...        0 min,  0.034 sec
     gradient                   ...        0 min,  0.055 sec
 * total energy  :   -82.9514845 Eh     change       -0.2536572E-04 Eh
   gradient norm :     0.0021057 Eh/α   predicted    -0.1005003E-04 ( -60.38%)
   displ. norm   :     0.2540055 α      lambda       -0.3240976E-04
   maximum displ.:     0.1439109 α      in ANC's #1, #2, #3, ...

........................................................................
.............................. CYCLE   54 ..............................
........................................................................
   1    -83.7194254 -0.837194E+02  0.261E-03    0.09       0.0  T
   2    -83.7193960  0.294091E-04  0.163E-02    0.09       1.0  T
   3    -83.7194256 -0.296639E-04  0.141E-03    0.09      11.0  T
   4    -83.7194258 -0.142796E-06  0.400E-04    0.09      38.6  T
   5    -83.7194257  0.848874E-07  0.897E-04    0.09      17.2  T
   6    -83.7194258 -0.866773E-07  0.985E-05    0.09     156.7  T
   7    -83.7194258 -0.916557E-09  0.347E-05    0.09     444.5  T
     SCC iter.                  ...        0 min,  0.035 sec
     gradient                   ...        0 min,  0.056 sec
 * total energy  :   -82.9515124 Eh     change       -0.2791134E-04 Eh
   gradient norm :     0.0019528 Eh/α   predicted    -0.1725409E-04 ( -38.18%)
   displ. norm   :     0.5046653 α      lambda       -0.4132673E-04
   maximum displ.:     0.2907653 α      in ANC's #1, #2, #3, ...

........................................................................
.............................. CYCLE   55 ..............................
........................................................................
   1    -83.7196623 -0.837197E+02  0.521E-03    0.09       0.0  T
   2    -83.7194609  0.201398E-03  0.424E-02    0.09       1.0  T
   3    -83.7196641 -0.203167E-03  0.191E-03    0.09       8.1  T
   4    -83.7196641 -0.110422E-07  0.132E-03    0.09      11.7  T
   5    -83.7196638  0.317364E-06  0.203E-03    0.09       7.6  T
   6    -83.7196642 -0.442082E-06  0.936E-05    0.09     164.9  T
   7    -83.7196642  0.579021E-09  0.961E-05    0.09     160.6  T
     SCC iter.                  ...        0 min,  0.034 sec
     gradient                   ...        0 min,  0.055 sec
 * total energy  :   -82.9515578 Eh     change       -0.4536944E-04 Eh
   gradient norm :     0.0021360 Eh/α   predicted    -0.2300685E-04 ( -49.29%)
   displ. norm   :     0.2575852 α      lambda       -0.2945960E-04
   maximum displ.:     0.1524240 α      in ANC's #1, #2, #3, ...

........................................................................
.............................. CYCLE   56 ..............................
........................................................................
   1    -83.7201913 -0.837202E+02  0.315E-03    0.09       0.0  T
   2    -83.7200854  0.105902E-03  0.308E-02    0.09       1.0  T
   3    -83.7201920 -0.106563E-03  0.116E-03    0.09      13.3  T
   4    -83.7201921 -0.703157E-07  0.407E-04    0.09      37.9  T
   5    -83.7201920  0.511004E-07  0.703E-04    0.09      22.0  T
   6    -83.7201921 -0.527291E-07  0.712E-05    0.09     216.7  T
   7    -83.7201921 -0.434099E-09  0.153E-05    0.09    1011.0  T
     SCC iter.                  ...        0 min,  0.034 sec
     gradient                   ...        0 min,  0.054 sec
 * total energy  :   -82.9515839 Eh     change       -0.2610344E-04 Eh
   gradient norm :     0.0016225 Eh/α   predicted    -0.1571170E-04 ( -39.81%)
   displ. norm   :     0.5641864 α      lambda       -0.4360738E-04
   maximum displ.:     0.3389191 α      in ANC's #1, #2, #3, ...

........................................................................
.............................. CYCLE   57 ..............................
........................................................................
   1    -83.7204146 -0.837204E+02  0.101E-02    0.09       0.0  T
   2    -83.7188054  0.160919E-02  0.120E-01    0.10       1.0  T
   3    -83.7204242 -0.161874E-02  0.264E-03    0.09       5.8  T
   4    -83.7204245 -0.357443E-06  0.989E-04    0.09      15.6  T
   5    -83.7204243  0.255463E-06  0.166E-03    0.09       9.3  T
   6    -83.7204246 -0.290664E-06  0.103E-04    0.09     149.5  T
   7    -83.7204246  0.352784E-09  0.969E-05    0.09     159.2  T
     SCC iter.                  ...        0 min,  0.034 sec
     gradient                   ...        0 min,  0.055 sec
 * total energy  :   -82.9516310 Eh     change       -0.4713409E-04 Eh
   gradient norm :     0.0015243 Eh/α   predicted    -0.2488911E-04 ( -47.20%)
   displ. norm   :     0.2451977 α      lambda       -0.1911332E-04
   maximum displ.:     0.1582943 α      in ANC's #1, #2, #5, ...

........................................................................
[...]
N21-C7-C8=120.81               C9-C8-C7=108.52                C10-C8-C7=114.26               C10-C8-C9=111.41               
N11-C8-C7=107.63               N11-C8-C9=106.57               N11-C8-C10=108.11              H29-C9-C8=109.59               
H30-C9-C8=109.62               H30-C9-H29=109.22              H31-C9-C8=110.00               H31-C9-H29=108.97              
H31-C9-H30=109.43              H32-C10-C8=110.32              H33-C10-C8=110.55              H33-C10-H32=109.67             
H34-C10-C8=109.16              H34-C10-H32=108.55             H34-C10-H33=108.55             
 
 selected dihedral angles (degree)
 ---------------------------------
C3-O2-C1-H26=300.34           C3-O2-C1-H27= 60.82           C3-O2-C1-H28=180.50           O4-C3-O2-C1=  0.93            
C5-C3-O2-C1=181.17            N6-C5-C3-O2=176.73            N6-C5-C3-O4=356.98            C24-C5-C3-O2=356.46           
C24-C5-C3-O4=176.71           C7-N6-C5-C3=179.98            C7-N6-C5-C24=  0.25           C8-C7-N6-C5=178.20            
N21-C7-N6-C5=  2.27           C9-C8-C7-N6=303.87            C9-C8-C7-N21=119.85           C10-C8-C7-N6=178.90           
C10-C8-C7-N21=354.88          N11-C8-C7-N6= 58.84           N11-C8-C7-N21=234.82          H29-C9-C8-C7=294.37           
H29-C9-C8-C10= 61.00          H29-C9-C8-N11=178.71          H30-C9-C8-C7= 54.22           H30-C9-C8-C10=180.85          
H30-C9-C8-N11=298.56          H31-C9-C8-C7=174.59           H31-C9-C8-C10=301.22          H31-C9-C8-N11= 58.94          
H32-C10-C8-C7= 64.28          H32-C10-C8-C9=300.86          H32-C10-C8-N11=184.08         H33-C10-C8-C7=302.81          
H33-C10-C8-C9=179.38          H33-C10-C8-N11= 62.60         H34-C10-C8-C7=183.47          H34-C10-C8-C9= 60.05          
H34-C10-C8-N11=303.27         
           -------------------------------------------------
          |                Final Singlepoint                |
           -------------------------------------------------

          ...................................................
          :                      SETUP                      :
          :.................................................:
          :  # basis functions                 134          :
          :  # atomic orbitals                 134          :
          :  # shells                           84          :
          :  # electrons                       134          :
          :  # halogen bonds                     0          :
          :  max. iterations                   250          :
          :  Hamiltonian                  GFN1-xTB          :
          :  restarted?                      false          :
          :  GBSA solvation                   true          :
          :  PC potential                    false          :
          :  electronic temp.          300.0000000     K    :
          :  accuracy                    1.0000000          :
          :  -> integral cutoff          0.2500000E+02      :
          :  -> integral neglect         0.1000000E-07      :
          :  -> SCF convergence          0.1000000E-05 Eh   :
          :  -> wf. convergence          0.2000000E-04 e    :
          :  Broyden damping             0.4000000          :
          ...................................................

 iter      E             dE          RMSdq      gap      omega  full diag
   1    -83.7241688 -0.837242E+02  0.365E-06    0.14       0.0  T
   2    -83.7241688  0.122284E-09  0.336E-05    0.14     459.5  T
   3    -83.7241688 -0.122569E-09  0.281E-06    0.14    5497.4  T

   *** convergence criteria satisfied after 3 iterations ***

         #    Occupation            Energy/Eh            Energy/eV
      -------------------------------------------------------------
         1        2.0000           -0.8882099             -24.1694
       ...           ...                  ...                  ...
        61        2.0000           -0.4774683             -12.9926
        62        2.0000           -0.4769539             -12.9786
        63        2.0000           -0.4704976             -12.8029
        64        2.0000           -0.4685856             -12.7509
        65        2.0000           -0.4528773             -12.3234
        66        2.0000           -0.4154298             -11.3044
        67        1.8857           -0.3997713             -10.8783 (HOMO)
        68        0.1143           -0.3944448             -10.7334 (LUMO)
        69                         -0.3024505              -8.2301
        70                         -0.2894712              -7.8769
        71                         -0.2774758              -7.5505
        72                         -0.2761065              -7.5132
       ...                                ...                  ...
       134                          0.7464311              20.3114
      -------------------------------------------------------------
                  HL-Gap            0.0053265 Eh            0.1449 eV
             Fermi-level           -0.3971080 Eh          -10.8059 eV

 SCC (total)                   0 d,  0 h,  0 min,  0.100 sec
 SCC setup                      ...        0 min,  0.002 sec (  1.655%)
 Dispersion                     ...        0 min,  0.000 sec (  0.230%)
 classical contributions        ...        0 min,  0.000 sec (  0.091%)
 integral evaluation            ...        0 min,  0.025 sec ( 24.873%)
 iterations                     ...        0 min,  0.016 sec ( 15.571%)
 molecular gradient             ...        0 min,  0.056 sec ( 56.461%)
 printout                       ...        0 min,  0.001 sec (  1.100%)

         :::::::::::::::::::::::::::::::::::::::::::::::::::::
         ::                     SUMMARY                     ::
         :::::::::::::::::::::::::::::::::::::::::::::::::::::
         :: total energy             -82.953742927498 Eh    ::
         :: total w/o Gsasa/hb       -82.932959491757 Eh    ::
         :: gradient norm              0.000599046327 Eh/a0 ::
         :: HOMO-LUMO gap              0.144941194051 eV    ::
         ::.................................................::
         :: SCC energy               -83.724168757061 Eh    ::
         :: -> electrostatic           0.403013274594 Eh    ::
         :: -> Gsolv                  -0.087400410887 Eh    ::
         ::    -> Gelec               -0.066616975146 Eh    ::
         ::    -> Gsasa               -0.023919430583 Eh    ::
         ::    -> Ghb                 -0.004488284164 Eh    ::
         ::    -> Gshift               0.007624279005 Eh    ::
         :: repulsion energy           0.797427979688 Eh    ::
         :: dispersion energy         -0.027002150125 Eh    ::
         :: halogen bond corr.         0.000000000000 Eh    ::
         :: add. restraining           0.000000000000 Eh    ::
         :: total charge              -0.000000000000 e     ::
         :::::::::::::::::::::::::::::::::::::::::::::::::::::

           -------------------------------------------------
          |                Property Printout                |
           -------------------------------------------------

    * Orbital Energies and Occupations

         #    Occupation            Energy/Eh            Energy/eV
      -------------------------------------------------------------
         1        2.0000           -0.8882099             -24.1694
       ...           ...                  ...                  ...
        55        2.0000           -0.5143453             -13.9960
        56        2.0000           -0.5107240             -13.8975
        57        2.0000           -0.5082844             -13.8311
        58        2.0000           -0.4950455             -13.4709
        59        2.0000           -0.4887573             -13.2998
        60        2.0000           -0.4881333             -13.2828
        61        2.0000           -0.4774683             -12.9926
        62        2.0000           -0.4769539             -12.9786
        63        2.0000           -0.4704976             -12.8029
        64        2.0000           -0.4685856             -12.7509
        65        2.0000           -0.4528773             -12.3234
        66        2.0000           -0.4154298             -11.3044
        67        1.8857           -0.3997713             -10.8783 (HOMO)
        68        0.1143           -0.3944448             -10.7334 (LUMO)
        69                         -0.3024505              -8.2301
        70                         -0.2894712              -7.8769
        71                         -0.2774758              -7.5505
        72                         -0.2761065              -7.5132
        73                         -0.2288578              -6.2275
        74                         -0.1581740              -4.3041
        75                         -0.1482350              -4.0337
        76                         -0.1439240              -3.9164
        77                         -0.1400650              -3.8114
        78                         -0.1358840              -3.6976
       ...                                ...                  ...
       134                          0.7464311              20.3114
      -------------------------------------------------------------
                  HL-Gap            0.0053265 Eh            0.1449 eV
             Fermi-level           -0.3971080 Eh          -10.8059 eV

  Mulliken/CM5 charges         n(s)   n(p)   n(d)
     1C     0.16665  0.04636   0.977  2.857  0.000
     2O    -0.41264 -0.49618   1.685  4.728  0.000
     3C     0.56427  0.63090   0.970  2.466  0.000
     4O    -0.58793 -0.63158   1.730  4.858  0.000
     5C     0.05174  0.13262   1.059  2.889  0.000
     6N    -0.35510 -0.53916   1.526  3.829  0.000
     7C     0.28393  0.43612   1.010  2.706  0.000
     8C     0.14842  0.18671   1.071  2.780  0.000
     9C    -0.10520 -0.24479   1.023  3.082  0.000
    10C    -0.12229 -0.26284   1.024  3.098  0.000
    11N    -0.31655 -0.67325   1.435  3.881  0.000
    12C     0.48784  0.60302   0.990  2.522  0.000
    13O    -0.53555 -0.57800   1.724  4.811  0.000
    14C     0.32287  0.40986   1.046  2.631  0.000
    15C    -0.09201 -0.22875   1.024  3.068  0.000
    16N    -0.16756 -0.26045   1.587  3.580  0.000
    17N    -0.19989 -0.30072   1.548  3.652  0.000
    18C     0.43235  0.53575   1.029  2.538  0.000
    19C    -0.11126 -0.24843   1.016  3.095  0.000
    20O    -0.36548 -0.42884   1.695  4.671  0.000
    21N    -0.28910 -0.63631   1.435  3.854  0.000
    22C     0.44352  0.54620   1.009  2.547  0.000
    23O    -0.55921 -0.59768   1.729  4.830  0.000
    24C     0.31080  0.35737   1.037  2.652  0.000
    25O    -0.56318 -0.60220   1.739  4.825  0.000
    26H     0.04498  0.10686   0.955  0.000  0.000
    27H     0.04613  0.10789   0.954  0.000  0.000
    28H     0.04867  0.10899   0.951  0.000  0.000
    29H     0.05738  0.11199   0.943  0.000  0.000
    30H     0.05745  0.11765   0.943  0.000  0.000
    31H     0.05940  0.11529   0.941  0.000  0.000
    32H     0.05977  0.11536   0.940  0.000  0.000
    33H     0.06085  0.12066   0.939  0.000  0.000
    34H     0.06401  0.12021   0.936  0.000  0.000
    35H     0.27495  0.48177   0.725  0.000  0.000
    36H     0.07826  0.13674   0.922  0.000  0.000
    37H     0.07421  0.13068   0.926  0.000  0.000
    38H     0.07706  0.13460   0.923  0.000  0.000
    39H     0.09027  0.14574   0.910  0.000  0.000
    40H     0.09654  0.15213   0.903  0.000  0.000
    41H     0.10581  0.15994   0.894  0.000  0.000
    42H     0.27478  0.47777   0.725  0.000  0.000

Wiberg/Mayer (AO) data.
largest (>0.10) Wiberg bond orders for each atom

 ---------------------------------------------------------------------------
     #   Z sym  total        # sym  WBO       # sym  WBO       # sym  WBO
 ---------------------------------------------------------------------------
     1   6 C    3.881 --    28 H    0.986    26 H    0.980    27 H    0.979
                             2 O    0.907
     2   8 O    2.187 --     3 C    1.097     1 C    0.907     4 O    0.127
     3   6 C    3.840 --     4 O    1.619     2 O    1.097     5 C    1.039
     4   8 O    1.878 --     3 C    1.619     2 O    0.127
     5   6 C    3.827 --     6 N    1.279    24 C    1.183     3 C    1.039
     6   7 N    3.004 --     7 C    1.490     5 C    1.279
     7   6 C    3.875 --     6 N    1.490    21 N    1.170     8 C    0.986
     8   6 C    3.925 --    10 C    0.997     7 C    0.986     9 C    0.980
                            11 N    0.892
     9   6 C    3.978 --    29 H    0.983    31 H    0.983    30 H    0.981
                             8 C    0.980
    10   6 C    3.990 --     8 C    0.997    34 H    0.981    32 H    0.981
                            33 H    0.981
    11   7 N    3.364 --    12 C    1.328     8 C    0.892    35 H    0.887
                            13 O    0.172
    12   6 C    3.888 --    13 O    1.628    11 N    1.328    14 C    0.806
    13   8 O    1.986 --    12 C    1.628    11 N    0.172
    14   6 C    3.851 --    16 N    1.065    15 C    0.937    20 O    0.908
                            12 C    0.806
    15   6 C    3.943 --    37 H    0.982    38 H    0.979    36 H    0.979
                            14 C    0.937
    16   7 N    2.814 --    17 N    1.457    14 C    1.065
    17   7 N    2.971 --    16 N    1.457    18 C    1.361
    18   6 C    3.694 --    17 N    1.361    20 O    1.157    19 C    1.052
    19   6 C    3.973 --    18 C    1.052    39 H    0.968    40 H    0.967
                            41 H    0.933
    20   8 O    2.243 --    18 C    1.157    14 C    0.908
    21   7 N    3.433 --     7 C    1.170    22 C    1.123    42 H    0.884
                            23 O    0.120
    22   6 C    3.850 --    23 O    1.632    21 N    1.123    24 C    0.954
    23   8 O    1.868 --    22 C    1.632    21 N    0.120
    24   6 C    3.881 --    25 O    1.593     5 C    1.183    22 C    0.954
    25   8 O    1.794 --    24 C    1.593
    26   1 H    1.009 --     1 C    0.980
    27   1 H    1.008 --     1 C    0.979
    28   1 H    1.012 --     1 C    0.986
    29   1 H    0.998 --     9 C    0.983
    30   1 H    1.009 --     9 C    0.981
    31   1 H    0.996 --     9 C    0.983
    32   1 H    0.996 --    10 C    0.981
    33   1 H    0.998 --    10 C    0.981
    34   1 H    0.998 --    10 C    0.981
    35   1 H    0.931 --    11 N    0.887
    36   1 H    1.000 --    15 C    0.979
    37   1 H    0.995 --    15 C    0.982
    38   1 H    0.994 --    15 C    0.979
    39   1 H    0.991 --    19 C    0.968
    40   1 H    0.988 --    19 C    0.967
    41   1 H    0.977 --    19 C    0.933
    42   1 H    0.935 --    21 N    0.884
 ---------------------------------------------------------------------------

Topologies differ in total number of bonds
Writing topology from bond orders to xtbtopo.mol

 dipole moment from electron density (au)
     X       Y       Z   
  -9.0546   1.1879   3.3541  total (Debye):   24.728

           -------------------------------------------------
          |                Geometry Summary                 |
           -------------------------------------------------

      molecular mass/u    :      351.3152409
   center of mass at/Å    :        0.4793241      -0.1041043      -0.1410893
  moments of inertia/u·Å² :        0.1648158E+04   0.3204703E+04   0.3979187E+04
rotational constants/cm⁻¹ :        0.1022816E-01   0.5260279E-02   0.4236451E-02

 * 38 selected distances

     #   Z          #   Z                                           value/Å
     1   6 C        2   8 O                                       1.4264885
     2   8 O        3   6 C                                       1.3381510
     3   6 C        4   8 O                                       1.2175460
     5   6 C        6   7 N                                       1.3540260
     6   7 N        7   6 C                                       1.3002948
     8   6 C        9   6 C                                       1.5320303 (max)
     8   6 C       10   6 C                                       1.5270680
     8   6 C       11   7 N                                       1.4804564
    11   7 N       12   6 C                                       1.3258319
    12   6 C       13   8 O                                       1.2089244
    14   6 C       15   6 C                                       1.5269238
    14   6 C       16   7 N                                       1.4206530
    16   7 N       17   7 N                                       1.2969989
    17   7 N       18   6 C                                       1.3301086
    18   6 C       19   6 C                                       1.4695232
    14   6 C       20   8 O                                       1.4107004
    18   6 C       20   8 O                                       1.3177375
     7   6 C       21   7 N                                       1.3613660
    21   7 N       22   6 C                                       1.3814042
    22   6 C       23   8 O                                       1.2184817
    24   6 C       25   8 O                                       1.2323680
     1   6 C       26   1 H                                       1.0929845
     1   6 C       27   1 H                                       1.0929472
     1   6 C       28   1 H                                       1.0884251
     9   6 C       29   1 H                                       1.0885409
     9   6 C       30   1 H                                       1.0896894
     9   6 C       31   1 H                                       1.0876072
    10   6 C       32   1 H                                       1.0883539
    10   6 C       33   1 H                                       1.0889793
    10   6 C       34   1 H                                       1.0880057
    11   7 N       35   1 H                                       1.0052671 (min)
    15   6 C       36   1 H                                       1.0879681
    15   6 C       37   1 H                                       1.0869822
    15   6 C       38   1 H                                       1.0873197
    19   6 C       39   1 H                                       1.0882887
    19   6 C       40   1 H                                       1.0878865
    19   6 C       41   1 H                                       1.0924499
    21   7 N       42   1 H                                       1.0064802

 * 6 distinct bonds (by element types)

   Z      Z             #   av. dist./Å        max./Å        min./Å
   1 H    6 C          15     1.0890952     1.0929845     1.0869822
   6 C    6 C           4     1.5138863     1.5320303     1.4695232
   1 H    7 N           2     1.0058736     1.0064802     1.0052671
   6 C    7 N           8     1.3692676     1.4804564     1.3002948
   7 N    7 N           1     1.2969989     1.2969989     1.2969989
   6 C    8 O           8     1.2962997     1.4264885     1.2089244


optimized geometry written to: xtbopt.xyz


           -------------------------------------------------
          | TOTAL ENERGY              -82.953742927498 Eh   |
          | GRADIENT NORM               0.000599046327 Eh/α |
          | HOMO-LUMO GAP               0.144941194051 eV   |
           -------------------------------------------------

------------------------------------------------------------------------
 * finished run on 2023/06/21 at 17:27:45.155     
------------------------------------------------------------------------
 total:
 * wall-time:     0 d,  0 h,  0 min, 15.038 sec
 *  cpu-time:     0 d,  0 h,  0 min, 14.907 sec
 * ratio c/w:     0.991 speedup
 SCF:
 * wall-time:     0 d,  0 h,  0 min,  0.215 sec
 *  cpu-time:     0 d,  0 h,  0 min,  0.196 sec
 * ratio c/w:     0.913 speedup
 ANC optimizer:
 * wall-time:     0 d,  0 h,  0 min, 14.695 sec
 *  cpu-time:     0 d,  0 h,  0 min, 14.672 sec
 * ratio c/w:     0.998 speedup

