      -----------------------------------------------------------      
     |                   =====================                   |     
     |                           x T B                           |     
     |                   =====================                   |     
     |                         S. Grimme                         |     
     |          Mulliken Center for Theoretical Chemistry        |     
     |                    University of Bonn                     |     
      -----------------------------------------------------------      

   * xtb version 6.5.1 (579679a) compiled by 'ehlert@majestix' on 2022-07-11

   xtb is free software: you can redistribute it and/or modify it under
   the terms of the GNU Lesser General Public License as published by
   the Free Software Foundation, either version 3 of the License, or
   (at your option) any later version.
   
   xtb is distributed in the hope that it will be useful,
   but WITHOUT ANY WARRANTY; without even the implied warranty of
   MERCHANTABILITY or FITNESS FOR A PARTICULAR PURPOSE.  See the
   GNU Lesser General Public License for more details.
   
   Cite this work as:
   * C. Bannwarth, E. Caldeweyher, S. Ehlert, A. Hansen, P. Pracht,
     J. Seibert, S. Spicher, S. Grimme, WIREs Comput. Mol. Sci., 2020, 11,
     e01493. DOI: 10.1002/wcms.1493
   
   for GFN2-xTB:
   * C. Bannwarth, S. Ehlert and S. Grimme., J. Chem. Theory Comput., 2019,
     15, 1652-1671. DOI: 10.1021/acs.jctc.8b01176
   for GFN1-xTB:
   * S. Grimme, C. Bannwarth, P. Shushkov, J. Chem. Theory Comput., 2017,
     13, 1989-2009. DOI: 10.1021/acs.jctc.7b00118
   for GFN0-xTB:
   * P. Pracht, E. Caldeweyher, S. Ehlert, S. Grimme, ChemRxiv, 2019, preprint.
     DOI: 10.26434/chemrxiv.8326202.v1
   for GFN-FF:
   * S. Spicher and S. Grimme, Angew. Chem. Int. Ed., 2020, 59, 15665-15673.
     DOI: 10.1002/anie.202004239
   
   for ALPB and GBSA implicit solvation:
   * S. Ehlert, M. Stahn, S. Spicher, S. Grimme, J. Chem. Theory Comput.,
     2021, 17, 4250-4261. DOI: 10.1021/acs.jctc.1c00471
   
   for DFT-D4:
   * E. Caldeweyher, C. Bannwarth and S. Grimme, J. Chem. Phys., 2017,
     147, 034112. DOI: 10.1063/1.4993215
   * E. Caldeweyher, S. Ehlert, A. Hansen, H. Neugebauer, S. Spicher,
     C. Bannwarth and S. Grimme, J. Chem. Phys., 2019, 150, 154122.
     DOI: 10.1063/1.5090222
   * E. Caldeweyher, J.-M. Mewes, S. Ehlert and S. Grimme, Phys. Chem. Chem. Phys.
     2020, 22, 8499-8512. DOI: 10.1039/D0CP00502A
   
   for sTDA-xTB:
   * S. Grimme and C. Bannwarth, J. Chem. Phys., 2016, 145, 054103.
     DOI: 10.1063/1.4959605
   
   in the mass-spec context:
   * V. Asgeirsson, C. Bauer and S. Grimme, Chem. Sci., 2017, 8, 4879.
     DOI: 10.1039/c7sc00601b
   * J. Koopman and S. Grimme, ACS Omega 2019, 4, 12, 15120-15133.
     DOI: 10.1021/acsomega.9b02011
   
   for metadynamics refer to:
   * S. Grimme, J. Chem. Theory Comput., 2019, 155, 2847-2862
     DOI: 10.1021/acs.jctc.9b00143
   
   for SPH calculations refer to:
   * S. Spicher and S. Grimme, J. Chem. Theory Comput., 2021, 17, 1701-1714
     DOI: 10.1021/acs.jctc.0c01306
   
   with help from (in alphabetical order)
   P. Atkinson, C. Bannwarth, F. Bohle, G. Brandenburg, E. Caldeweyher
   M. Checinski, S. Dohm, S. Ehlert, S. Ehrlich, I. Gerasimov, C. Hölzer
   A. Katbashev, J. Koopman, C. Lavigne, S. Lehtola, F. März, M. Müller,
   F. Musil, H. Neugebauer, J. Pisarek, C. Plett, P. Pracht, F. Pultar,
   J. Seibert, P. Shushkov, S. Spicher, M. Stahn, M. Steiner, T. Strunk,
   J. Stückrath, T. Rose, and J. Unsleber
   
 * started run on 2023/06/21 at 17:04:44.958     

           -------------------------------------------------
          |                Calculation Setup                |
           -------------------------------------------------

          program call               : /lustre/hpc/kemi/ree/PhD/git/ReactivityQM/dep/xtb-6.5.1/bin/xtb --gfn 1 /lustre/hpc/kemi/ree/PhD/git/ReactivityQM/calculations/R02oxygendeprot/reac01prodE04/conf11/R02oxygendeprot_reac01prodE04_conf11_gfn1.xyz --opt --vfukui --chrg -2 --uhf 0 --alpb DMSO
          hostname                   : node070
          coordinate file            : /lustre/hpc/kemi/ree/PhD/git/ReactivityQM/calculations/R02oxygendeprot/reac01prodE04/conf11/R02oxygendeprot_reac01prodE04_conf11_gfn1.xyz
          omp threads                :                     1

   ID    Z sym.   atoms
    1    6 C      1, 3, 5, 6, 8-11, 13, 15, 18, 19, 22, 24
    2    8 O      2, 4, 14, 20, 23, 25
    3    7 N      7, 12, 16, 17, 21
    4    1 H      26-42

           -------------------------------------------------
          |                 G F N 1 - x T B                 |
           -------------------------------------------------

        Reference                      10.1021/acs.jctc.7b00118
      * Hamiltonian:
        H0-scaling (s, p, d)           1.850000    2.250000    2.000000
        zeta-weighting                 0.000000
      * Dispersion:
        s8                             2.400000
        a1                             0.630000
        a2                             5.000000
        s9                             0.000000
      * Repulsion:
        kExp                           1.500000
        rExp                           1.000000
      * Coulomb:
        alpha                          2.000000
        third order                    atomic
        anisotropic                    false
      * Halogen bond correction:
        rad-scale                      1.300000
        damping                        0.440000

      * Solvation model:               ALPB
        Solvent                        DMSO
        Parameter file                 internal GFN1-xTB/ALPB
        Dielectric constant                4.6680E+01
        Reference state                gsolv [1 M gas/solution]
        Free energy shift                  7.6243E-03 Eh       4.7843E+00 kcal/mol
        Temperature                        2.9815E+02 K
        Density                            1.1000E+00 kg/L
        Solvent mass                       7.8130E+01 g/mol
        Interaction kernel             P16
        Born radius scaling (c1)           1.7672E+00
        Born radii integrator          GBOBC
        Born offset                        0.0000E+00 a0       0.0000E+00 AA
        H-bond correction              true
        Ion screening                  false
        Surface tension                    1.0000E-05 Eh       1.5569E+01 dyn/cm
        Grid points                               230 per atom

          ...................................................
          :                      SETUP                      :
          :.................................................:
          :  # basis functions                 134          :
          :  # atomic orbitals                 134          :
          :  # shells                           84          :
          :  # electrons                       136          :
          :  # halogen bonds                     0          :
          :  max. iterations                   250          :
          :  Hamiltonian                  GFN1-xTB          :
          :  restarted?                      false          :
          :  GBSA solvation                   true          :
          :  PC potential                    false          :
          :  electronic temp.          300.0000000     K    :
          :  accuracy                    1.0000000          :
          :  -> integral cutoff          0.2500000E+02      :
          :  -> integral neglect         0.1000000E-07      :
          :  -> SCF convergence          0.1000000E-05 Eh   :
          :  -> wf. convergence          0.2000000E-04 e    :
          :  Broyden damping             0.4000000          :
          ...................................................

 iter      E             dE          RMSdq      gap      omega  full diag
   1    -83.9460512 -0.839461E+02  0.869E+00    0.79       0.0  T
   2    -84.0462820 -0.100231E+00  0.543E+00    1.33       1.0  T
   3    -83.9710977  0.751843E-01  0.307E+00    1.25       1.0  T
   4    -84.2178547 -0.246757E+00  0.119E+00    0.75       1.0  T
   5    -84.2557620 -0.379073E-01  0.736E-01    0.23       1.0  T
   6    -84.1171742  0.138588E+00  0.127E+00    0.82       1.0  T
   7    -84.2503620 -0.133188E+00  0.742E-01    0.36       1.0  T
   8    -84.1610815  0.892805E-01  0.104E+00    0.18       1.0  T
   9    -84.2703301 -0.109249E+00  0.607E-01    0.17       1.0  T
  10    -84.3195174 -0.491874E-01  0.162E-01    0.03       1.0  T
  11    -84.3224516 -0.293418E-02  0.841E-02    0.04       1.0  T
  12    -84.3234639 -0.101226E-02  0.838E-03    0.04       1.8  T
  13    -84.3233827  0.811706E-04  0.245E-02    0.04       1.0  T
  14    -84.3233238  0.589145E-04  0.314E-02    0.03       1.0  T
  15    -84.3234633 -0.139480E-03  0.760E-03    0.04       2.0  T
  16    -84.3234655 -0.218014E-05  0.658E-03    0.04       2.3  T
  17    -84.3234719 -0.647737E-05  0.249E-04    0.04      61.9  T
  18    -84.3234720 -0.907745E-08  0.154E-05    0.04     999.2  T
  19    -84.3234720  0.942222E-09  0.808E-05    0.04     191.1  T

   *** convergence criteria satisfied after 19 iterations ***

         #    Occupation            Energy/Eh            Energy/eV
      -------------------------------------------------------------
         1        2.0000           -0.8037220             -21.8704
       ...           ...                  ...                  ...
        62        2.0000           -0.3927870             -10.6883
        63        2.0000           -0.3835127             -10.4359
        64        2.0000           -0.3824470             -10.4069
        65        2.0000           -0.3788249             -10.3083
        66        2.0000           -0.3755099             -10.2181
        67        2.0000           -0.3431737              -9.3382
        68        1.3356           -0.2509570              -6.8289 (HOMO)
        69        0.6644           -0.2496303              -6.7928 (LUMO)
        70                         -0.2304406              -6.2706
        71                         -0.2041540              -5.5553
        72                         -0.2019491              -5.4953
        73                         -0.1326532              -3.6097
       ...                                ...                  ...
       134                          0.8515873              23.1729
      -------------------------------------------------------------
                  HL-Gap            0.0013267 Eh            0.0361 eV
             Fermi-level           -0.2502936 Eh           -6.8108 eV

 SCC (total)                   0 d,  0 h,  0 min,  0.197 sec
 SCC setup                      ...        0 min,  0.002 sec (  1.031%)
 Dispersion                     ...        0 min,  0.000 sec (  0.149%)
 classical contributions        ...        0 min,  0.000 sec (  0.053%)
 integral evaluation            ...        0 min,  0.027 sec ( 13.772%)
 iterations                     ...        0 min,  0.105 sec ( 53.148%)
 molecular gradient             ...        0 min,  0.061 sec ( 31.140%)
 printout                       ...        0 min,  0.001 sec (  0.691%)

         :::::::::::::::::::::::::::::::::::::::::::::::::::::
         ::                     SUMMARY                     ::
         :::::::::::::::::::::::::::::::::::::::::::::::::::::
         :: total energy             -83.580189985578 Eh    ::
         :: total w/o Gsasa/hb       -83.561570927521 Eh    ::
         :: gradient norm              0.206738354998 Eh/a0 ::
         :: HOMO-LUMO gap              0.036101826453 eV    ::
         ::.................................................::
         :: SCC energy               -84.323471951706 Eh    ::
         :: -> electrostatic           0.664678743730 Eh    ::
         :: -> Gsolv                  -0.261137587694 Eh    ::
         ::    -> Gelec               -0.242518529637 Eh    ::
         ::    -> Gsasa               -0.023664109187 Eh    ::
         ::    -> Ghb                 -0.002579227875 Eh    ::
         ::    -> Gshift               0.007624279005 Eh    ::
         :: repulsion energy           0.769852002867 Eh    ::
         :: dispersion energy         -0.026570036739 Eh    ::
         :: halogen bond corr.         0.000000000000 Eh    ::
         :: add. restraining           0.000000000000 Eh    ::
         :: total charge              -2.000000001679 e     ::
         :::::::::::::::::::::::::::::::::::::::::::::::::::::

      ----------------------------------------------------------- 
     |                   =====================                   |
     |                        A N C O P T                        |
     |                   =====================                   |
     |               Approximate Normal Coordinate               |
     |                Rational Function Optimizer                |
      ----------------------------------------------------------- 

          ...................................................
          :                      SETUP                      :
          :.................................................:
          :   optimization level            normal          :
          :   max. optcycles                   200          :
          :   ANC micro-cycles                  20          :
          :   degrees of freedom               120          :
          :.................................................:
          :   RF solver                   davidson          :
          :   write xtbopt.log                true          :
          :   linear?                        false          :
          :   energy convergence         0.5000000E-05 Eh   :
          :   grad. convergence          0.1000000E-02 Eh/α :
          :   maximium RF displ.         1.0000000          :
          :   Hlow (freq-cutoff)         0.1000000E-01      :
          :   Hmax (freq-cutoff)         5.0000000          :
          :   S6 in model hess.         20.0000000          :
          ...................................................

generating ANC from model Hessian ...
Using Lindh-Hessian (1995)
 Shifting diagonal of input Hessian by   9.845059780309398E-003
 Lowest  eigenvalues of input Hessian
    0.000000    0.000000    0.000000    0.000000    0.000000    0.000000
    0.010000    0.010147    0.010552    0.010857    0.011480    0.011842
    0.013250    0.013806    0.014389    0.015139    0.015799    0.017406
 Highest eigenvalues
    2.046741    2.080316    2.209636    2.243545    2.305024    2.358980
 

........................................................................
.............................. CYCLE    1 ..............................
........................................................................
   1    -84.3234720 -0.843235E+02  0.354E-05    0.04       0.0  T
   2    -84.3234719  0.854774E-07  0.757E-04    0.04      20.4  T
   3    -84.3234720 -0.856642E-07  0.759E-07    0.04   20334.3  T
   4    -84.3234720  0.270006E-12  0.942E-07    0.04   16381.1  T
     SCC iter.                  ...        0 min,  0.023 sec
     gradient                   ...        0 min,  0.062 sec
 * total energy  :   -83.5801900 Eh     change       -0.9729320E-09 Eh
   gradient norm :     0.2067302 Eh/α   predicted     0.0000000E+00 (-100.00%)
   displ. norm   :     0.2848333 α      lambda       -0.2995319E-01
   maximum displ.:     0.1544356 α      in ANC's #26, #60, #27, ...

........................................................................
.............................. CYCLE    2 ..............................
........................................................................
   1    -84.2465447 -0.842465E+02  0.743E-01    0.32       0.0  T
   2    -84.0591895  0.187355E+00  0.155E+00    1.63       1.0  T
   3    -84.1173932 -0.582037E-01  0.120E+00    0.31       1.0  T
   4    -84.2996275 -0.182234E+00  0.357E-01    0.09       1.0  T
   5    -84.2920714  0.755604E-02  0.431E-01    0.03       1.0  T
   6    -84.2704214  0.216501E-01  0.579E-01    0.16       1.0  T
   7    -84.3108390 -0.404177E-01  0.228E-01    0.07       1.0  T
   8    -84.3057502  0.508886E-02  0.296E-01    0.02       1.0  T
   9    -84.3153377 -0.958748E-02  0.148E-01    0.05       1.0  T
  10    -84.3185511 -0.321344E-02  0.541E-03    0.04       2.9  T
  11    -84.3185541 -0.295439E-05  0.295E-03    0.04       5.2  T
  12    -84.3185475  0.654330E-05  0.729E-03    0.04       2.1  T
  13    -84.3185551 -0.760445E-05  0.114E-03    0.04      13.5  T
  14    -84.3185552 -0.957027E-07  0.805E-04    0.04      19.2  T
  15    -84.3185553 -0.747670E-07  0.360E-04    0.04      42.8  T
  16    -84.3185553 -0.188014E-07  0.492E-05    0.04     313.8  T
  17    -84.3185553 -0.300673E-09  0.199E-05    0.04     776.6  T
     SCC iter.                  ...        0 min,  0.093 sec
     gradient                   ...        0 min,  0.061 sec
 * total energy  :   -83.6009082 Eh     change       -0.2071824E-01 Eh
   gradient norm :     0.0855820 Eh/α   predicted    -0.1620100E-01 ( -21.80%)
   displ. norm   :     0.3293213 α      lambda       -0.1196070E-01
   maximum displ.:     0.2013025 α      in ANC's #26, #27, #29, ...

........................................................................
.............................. CYCLE    3 ..............................
........................................................................
   1    -84.2644000 -0.842644E+02  0.678E-01    0.25       0.0  T
   2    -84.0556385  0.208761E+00  0.157E+00    1.61       1.0  T
   3    -84.1107193 -0.550808E-01  0.125E+00    0.31       1.0  T
   4    -84.3200855 -0.209366E+00  0.196E-01    0.06       1.0  T
   5    -84.3124514  0.763407E-02  0.303E-01    0.02       1.0  T
   6    -84.3022892  0.101622E-01  0.404E-01    0.10       1.0  T
   7    -84.3250069 -0.227177E-01  0.638E-02    0.04       1.0  T
   8    -84.3245172  0.489674E-03  0.865E-02    0.03       1.0  T
   9    -84.3251218 -0.604579E-03  0.573E-02    0.04       1.0  T
  10    -84.3255832 -0.461364E-03  0.915E-03    0.04       1.7  T
  11    -84.3255937 -0.105205E-04  0.330E-03    0.04       4.7  T
  12    -84.3255952 -0.150868E-05  0.647E-04    0.04      23.8  T
  13    -84.3255952 -0.551622E-07  0.182E-04    0.04      84.7  T
  14    -84.3255953 -0.334028E-08  0.101E-04    0.04     152.1  T
     SCC iter.                  ...        0 min,  0.078 sec
     gradient                   ...        0 min,  0.060 sec
 * total energy  :   -83.6083485 Eh     change       -0.7440312E-02 Eh
   gradient norm :     0.0306644 Eh/α   predicted    -0.6628938E-02 ( -10.91%)
   displ. norm   :     0.2638904 α      lambda       -0.2554217E-02
   maximum displ.:     0.1480532 α      in ANC's #26, #11, #5, ...

........................................................................
.............................. CYCLE    4 ..............................
........................................................................
   1    -84.2968541 -0.842969E+02  0.491E-01    0.13       0.0  T
   2    -84.0689936  0.227861E+00  0.150E+00    1.26       1.0  T
   3    -84.1185010 -0.495074E-01  0.123E+00    0.22       1.0  T
   4    -84.3288737 -0.210373E+00  0.116E-01    0.05       1.0  T
   5    -84.3298783 -0.100468E-02  0.786E-02    0.03       1.0  T
   6    -84.3293623  0.516059E-03  0.987E-02    0.05       1.0  T
   7    -84.3306559 -0.129361E-02  0.268E-02    0.03       1.0  T
   8    -84.3307572 -0.101285E-03  0.256E-03    0.04       6.0  T
   9    -84.3307567  0.476281E-06  0.312E-03    0.04       4.9  T
  10    -84.3307577 -0.101698E-05  0.164E-03    0.04       9.4  T
  11    -84.3307580 -0.306203E-06  0.743E-04    0.04      20.8  T
  12    -84.3307581 -0.792113E-07  0.281E-06    0.04    5497.6  T
  13    -84.3307581  0.502780E-10  0.187E-05    0.04     827.1  T
     SCC iter.                  ...        0 min,  0.072 sec
     gradient                   ...        0 min,  0.061 sec
 * total energy  :   -83.6101583 Eh     change       -0.1809769E-02 Eh
   gradient norm :     0.0274289 Eh/α   predicted    -0.1366144E-02 ( -24.51%)
   displ. norm   :     0.2995429 α      lambda       -0.1702087E-02
   maximum displ.:     0.1349171 α      in ANC's #26, #5, #11, ...

........................................................................
.............................. CYCLE    5 ..............................
........................................................................
   1    -84.3189515 -0.843190E+02  0.336E-01    0.09       0.0  T
   2    -84.0830198  0.235932E+00  0.142E+00    0.87       1.0  T
   3    -84.1895898 -0.106570E+00  0.101E+00    0.10       1.0  T
   4    -84.3193700 -0.129780E+00  0.333E-01    0.09       1.0  T
   5    -84.3344606 -0.150906E-01  0.643E-02    0.05       1.0  T
   6    -84.3350422 -0.581582E-03  0.436E-03    0.04       3.5  T
   7    -84.3350429 -0.747610E-06  0.198E-03    0.04       7.8  T
   8    -84.3350315  0.114220E-04  0.910E-03    0.04       1.7  T
   9    -84.3350429 -0.114470E-04  0.169E-03    0.04       9.1  T
  10    -84.3350432 -0.323071E-06  0.786E-04    0.04      19.6  T
  11    -84.3350433 -0.864256E-07  0.101E-04    0.04     153.2  T
  12    -84.3350433 -0.114781E-08  0.464E-05    0.04     332.3  T
     SCC iter.                  ...        0 min,  0.065 sec
     gradient                   ...        0 min,  0.061 sec
 * total energy  :   -83.6113356 Eh     change       -0.1177328E-02 Eh
   gradient norm :     0.0199733 Eh/α   predicted    -0.9274081E-03 ( -21.23%)
   displ. norm   :     0.2576462 α      lambda       -0.8625762E-03
   maximum displ.:     0.1234656 α      in ANC's #5, #11, #17, ...

........................................................................
.............................. CYCLE    6 ..............................
........................................................................
   1    -84.3376550 -0.843377E+02  0.369E-02    0.04       0.0  T
   2    -84.2656743  0.719807E-01  0.708E-01    0.05       1.0  T
   3    -84.3377788 -0.721044E-01  0.187E-02    0.04       1.0  T
   4    -84.3378141 -0.352853E-04  0.858E-03    0.04       1.8  T
   5    -84.3378174 -0.331233E-05  0.591E-03    0.04       2.6  T
   6    -84.3378212 -0.384939E-05  0.608E-04    0.04      25.4  T
   7    -84.3378212 -0.624766E-08  0.382E-04    0.04      40.4  T
   8    -84.3378213 -0.188901E-07  0.615E-05    0.04     250.7  T
   9    -84.3378213  0.258481E-09  0.594E-05    0.04     259.9  T
     SCC iter.                  ...        0 min,  0.048 sec
     gradient                   ...        0 min,  0.061 sec
 * total energy  :   -83.6119258 Eh     change       -0.5901461E-03 Eh
   gradient norm :     0.0102656 Eh/α   predicted    -0.4599912E-03 ( -22.05%)
   displ. norm   :     0.2193903 α      lambda       -0.4134757E-03
   maximum displ.:     0.1167116 α      in ANC's #5, #11, #17, ...

........................................................................
.............................. CYCLE    7 ..............................
........................................................................
   1    -84.3374367 -0.843374E+02  0.922E-02    0.03       0.0  T
   2    -84.2807644  0.566724E-01  0.657E-01    0.29       1.0  T
   3    -84.3359778 -0.552134E-01  0.136E-01    0.06       1.0  T
   4    -84.3352416  0.736231E-03  0.153E-01    0.02       1.0  T
   5    -84.3382007 -0.295910E-02  0.539E-02    0.05       1.0  T
   6    -84.3385955 -0.394886E-03  0.117E-02    0.04       1.3  T
   7    -84.3386133 -0.177469E-04  0.296E-03    0.04       5.2  T
   8    -84.3386145 -0.122883E-05  0.471E-04    0.04      32.8  T
   9    -84.3386146 -0.264236E-07  0.188E-04    0.04      82.0  T
  10    -84.3386146 -0.464247E-08  0.509E-05    0.04     303.1  T
     SCC iter.                  ...        0 min,  0.054 sec
     gradient                   ...        0 min,  0.062 sec
 * total energy  :   -83.6122231 Eh     change       -0.2972837E-03 Eh
   gradient norm :     0.0072400 Eh/α   predicted    -0.2166893E-03 ( -27.11%)
   displ. norm   :     0.2498641 α      lambda       -0.3067796E-03
   maximum displ.:     0.1414274 α      in ANC's #5, #11, #3, ...

........................................................................
.............................. CYCLE    8 ..............................
........................................................................
   1    -84.3361571 -0.843362E+02  0.125E-01    0.03       0.0  T
   2    -84.2769725  0.591846E-01  0.688E-01    0.38       1.0  T
   3    -84.3280689 -0.510964E-01  0.269E-01    0.08       1.0  T
   4    -84.3380045 -0.993563E-02  0.503E-02    0.03       1.0  T
   5    -84.3382147 -0.210146E-03  0.328E-02    0.04       1.0  T
   6    -84.3383655 -0.150799E-03  0.367E-03    0.04       4.2  T
   7    -84.3383671 -0.161466E-05  0.709E-04    0.04      21.8  T
   8    -84.3383663  0.724649E-06  0.233E-03    0.04       6.6  T
   9    -84.3383671 -0.776917E-06  0.189E-04    0.04      81.8  T
  10    -84.3383671 -0.492096E-08  0.271E-05    0.04     569.7  T
     SCC iter.                  ...        0 min,  0.054 sec
     gradient                   ...        0 min,  0.060 sec
 * total energy  :   -83.6124409 Eh     change       -0.2178716E-03 Eh
   gradient norm :     0.0068138 Eh/α   predicted    -0.1629671E-03 ( -25.20%)
   displ. norm   :     0.2199770 α      lambda       -0.2049525E-03
   maximum displ.:     0.1219723 α      in ANC's #5, #3, #11, ...

........................................................................
.............................. CYCLE    9 ..............................
........................................................................
   1    -84.3359119 -0.843359E+02  0.127E-01    0.02       0.0  T
   2    -84.2761762  0.597358E-01  0.693E-01    0.39       1.0  T
   3    -84.3257842 -0.496080E-01  0.296E-01    0.08       1.0  T
   4    -84.3380451 -0.122609E-01  0.397E-02    0.04       1.0  T
   5    -84.3382670 -0.221900E-03  0.333E-03    0.04       4.6  T
   6    -84.3382682 -0.117333E-05  0.825E-04    0.04      18.7  T
   7    -84.3382659  0.223976E-05  0.397E-03    0.04       3.9  T
   8    -84.3382670 -0.108058E-05  0.285E-03    0.04       5.4  T
   9    -84.3382682 -0.116248E-05  0.170E-04    0.04      90.9  T
  10    -84.3382682 -0.390257E-08  0.400E-05    0.04     385.6  T
  11    -84.3382682  0.177735E-09  0.529E-05    0.04     291.9  T
     SCC iter.                  ...        0 min,  0.059 sec
     gradient                   ...        0 min,  0.061 sec
 * total energy  :   -83.6125870 Eh     change       -0.1460543E-03 Eh
   gradient norm :     0.0066283 Eh/α   predicted    -0.1074383E-03 ( -26.44%)
   displ. norm   :     0.1880115 α      lambda       -0.1604795E-03
   maximum displ.:     0.0927245 α      in ANC's #5, #3, #1, ...

........................................................................
.............................. CYCLE   10 ..............................
........................................................................
   1    -84.3369016 -0.843369E+02  0.105E-01    0.03       0.0  T
   2    -84.2778036  0.590980E-01  0.678E-01    0.33       1.0  T
   3    -84.3311188 -0.533152E-01  0.228E-01    0.07       1.0  T
   4    -84.3385195 -0.740069E-02  0.108E-02    0.04       1.4  T
   5    -84.3385308 -0.113448E-04  0.572E-03    0.04       2.7  T
   6    -84.3385348 -0.402045E-05  0.273E-03    0.04       5.6  T
   7    -84.3385344  0.417339E-06  0.304E-03    0.04       5.1  T
   8    -84.3385355 -0.109364E-05  0.125E-03    0.04      12.3  T
   9    -84.3385357 -0.225084E-06  0.101E-04    0.04     153.1  T
  10    -84.3385357 -0.135670E-08  0.247E-05    0.04     624.9  T
     SCC iter.                  ...        0 min,  0.053 sec
     gradient                   ...        0 min,  0.061 sec
 * total energy  :   -83.6127066 Eh     change       -0.1196214E-03 Eh
   gradient norm :     0.0060236 Eh/α   predicted    -0.8308737E-04 ( -30.54%)
   displ. norm   :     0.1990093 α      lambda       -0.1533419E-03
   maximum displ.:     0.0879232 α      in ANC's #3, #1, #5, ...

........................................................................
.............................. CYCLE   11 ..............................
........................................................................
   1    -84.3383847 -0.843384E+02  0.427E-02    0.03       0.0  T
   2    -84.2958878  0.424969E-01  0.552E-01    0.16       1.0  T
   3    -84.3382506 -0.423629E-01  0.535E-02    0.04       1.0  T
   4    -84.3385644 -0.313758E-03  0.254E-02    0.03       1.0  T
   5    -84.3386361 -0.716586E-04  0.127E-02    0.04       1.2  T
   6    -84.3386579 -0.218739E-04  0.242E-03    0.04       6.4  T
   7    -84.3386587 -0.748496E-06  0.469E-04    0.04      32.9  T
   8    -84.3386587 -0.296818E-07  0.562E-05    0.04     274.7  T
   9    -84.3386587 -0.421664E-09  0.111E-05    0.04    1385.8  T
     SCC iter.                  ...        0 min,  0.048 sec
     gradient                   ...        0 min,  0.061 sec
 * total energy  :   -83.6128219 Eh     change       -0.1152565E-03 Eh
   gradient norm :     0.0052638 Eh/α   predicted    -0.7971255E-04 ( -30.84%)
   displ. norm   :     0.2271031 α      lambda       -0.1414020E-03
   maximum displ.:     0.1080313 α      in ANC's #3, #1, #5, ...

........................................................................
.............................. CYCLE   12 ..............................
........................................................................
   1    -84.3383615 -0.843384E+02  0.702E-03    0.04       0.0  T
   2    -84.3383631 -0.155870E-05  0.363E-03    0.04       4.3  T
   3    -84.3381793  0.183812E-03  0.360E-02    0.04       1.0  T
   4    -84.3383584 -0.179088E-03  0.653E-03    0.04       2.4  T
   5    -84.3383630 -0.459784E-05  0.289E-03    0.04       5.3  T
   6    -84.3383640 -0.106656E-05  0.353E-04    0.04      43.7  T
   7    -84.3383640 -0.157500E-07  0.491E-05    0.04     314.0  T
   8    -84.3383640 -0.692921E-10  0.337E-05    0.04     457.4  T
     SCC iter.                  ...        0 min,  0.043 sec
     gradient                   ...        0 min,  0.060 sec
 * total energy  :   -83.6129264 Eh     change       -0.1045342E-03 Eh
   gradient norm :     0.0048466 Eh/α   predicted    -0.7434909E-04 ( -28.88%)
   displ. norm   :     0.2181469 α      lambda       -0.1180691E-03
   maximum displ.:     0.1072821 α      in ANC's #3, #1, #2, ...

........................................................................
.............................. CYCLE   13 ..............................
........................................................................
   1    -84.3381969 -0.843382E+02  0.329E-02    0.04       0.0  T
   2    -84.2584045  0.797923E-01  0.745E-01    0.05       1.0  T
   3    -84.3383261 -0.799216E-01  0.121E-02    0.04       1.3  T
   4    -84.3383451 -0.189780E-04  0.236E-03    0.04       6.5  T
   5    -84.3383457 -0.641610E-06  0.770E-04    0.04      20.0  T
   6    -84.3383457  0.222844E-07  0.487E-04    0.04      31.7  T
   7    -84.3383458 -0.285353E-07  0.156E-04    0.04      99.0  T
   8    -84.3383458 -0.336073E-08  0.162E-05    0.04     953.5  T
     SCC iter.                  ...        0 min,  0.043 sec
     gradient                   ...        0 min,  0.060 sec
 * total energy  :   -83.6130071 Eh     change       -0.8072892E-04 Eh
   gradient norm :     0.0042969 Eh/α   predicted    -0.6184409E-04 ( -23.39%)
   displ. norm   :     0.1337993 α      lambda       -0.7846612E-04
   maximum displ.:     0.0632679 α      in ANC's #1, #3, #2, ...

........................................................................
.............................. CYCLE   14 ..............................
........................................................................
   1    -84.3385970 -0.843386E+02  0.376E-02    0.04       0.0  T
   2    -84.2357064  0.102891E+00  0.847E-01    0.07       1.0  T
   3    -84.3387996 -0.103093E+00  0.441E-03    0.04       3.5  T
   4    -84.3388007 -0.112222E-05  0.183E-03    0.04       8.4  T
   5    -84.3388004  0.262870E-06  0.211E-03    0.04       7.3  T
   6    -84.3388009 -0.460205E-06  0.723E-04    0.04      21.4  T
   7    -84.3388010 -0.729998E-07  0.777E-05    0.04     198.6  T
   8    -84.3388010 -0.761091E-09  0.106E-05    0.04    1452.7  T
     SCC iter.                  ...        0 min,  0.043 sec
     gradient                   ...        0 min,  0.060 sec
 * total energy  :   -83.6130647 Eh     change       -0.5755170E-04 Eh
   gradient norm :     0.0035084 Eh/α   predicted    -0.3993650E-04 ( -30.61%)
   displ. norm   :     0.1532336 α      lambda       -0.6804687E-04
   maximum displ.:     0.0735643 α      in ANC's #1, #2, #3, ...

........................................................................
.............................. CYCLE   15 ..............................
........................................................................
   1    -84.3386822 -0.843387E+02  0.177E-02    0.04       0.0  T
   2    -84.3120187  0.266635E-01  0.431E-01    0.02       1.0  T
   3    -84.3387032 -0.266845E-01  0.137E-02    0.04       1.1  T
   4    -84.3387244 -0.211816E-04  0.600E-03    0.04       2.6  T
   5    -84.3387270 -0.264686E-05  0.396E-03    0.04       3.9  T
   6    -84.3387291 -0.204968E-05  0.733E-04    0.04      21.0  T
   7    -84.3387291 -0.740470E-07  0.581E-05    0.04     265.4  T
   8    -84.3387291 -0.182240E-09  0.377E-05    0.04     408.9  T
     SCC iter.                  ...        0 min,  0.043 sec
     gradient                   ...        0 min,  0.061 sec
 * total energy  :   -83.6131103 Eh     change       -0.4565071E-04 Eh
   gradient norm :     0.0029266 Eh/α   predicted    -0.3482377E-04 ( -23.72%)
   displ. norm   :     0.1152229 α      lambda       -0.4304485E-04
   maximum displ.:     0.0515339 α      in ANC's #2, #1, #14, ...

........................................................................
.............................. CYCLE   16 ..............................
........................................................................
   1    -84.3392343 -0.843392E+02  0.893E-03    0.04       0.0  T
   2    -84.3354890  0.374539E-02  0.162E-01    0.06       1.0  T
   3    -84.3392337 -0.374474E-02  0.865E-03    0.04       1.8  T
   4    -84.3392434 -0.974986E-05  0.203E-03    0.04       7.6  T
   5    -84.3392439 -0.414624E-06  0.816E-04    0.04      18.9  T
   6    -84.3392439 -0.377904E-07  0.457E-04    0.04      33.8  T
   7    -84.3392439 -0.290290E-07  0.358E-05    0.04     431.6  T
   8    -84.3392439 -0.120707E-09  0.119E-05    0.04    1297.1  T
     SCC iter.                  ...        0 min,  0.043 sec
     gradient                   ...        0 min,  0.060 sec
 * total energy  :   -83.6131404 Eh     change       -0.3002830E-04 Eh
   gradient norm :     0.0035692 Eh/α   predicted    -0.2182169E-04 ( -27.33%)
   displ. norm   :     0.1720353 α      lambda       -0.5472218E-04
   maximum displ.:     0.0837745 α      in ANC's #2, #1, #14, ...

........................................................................
.............................. CYCLE   17 ..............................
........................................................................
   1    -84.3384361 -0.843384E+02  0.142E-02    0.04       0.0  T
   2    -84.3308412  0.759483E-02  0.231E-01    0.07       1.0  T
   3    -84.3384240 -0.758283E-02  0.161E-02    0.04       1.0  T
   4    -84.3384585 -0.344023E-04  0.300E-03    0.04       5.2  T
   5    -84.3384594 -0.975217E-06  0.110E-03    0.04      14.0  T
   6    -84.3384595 -0.111400E-06  0.232E-04    0.04      66.4  T
   7    -84.3384595 -0.530234E-08  0.395E-05    0.04     390.7  T
   8    -84.3384595 -0.143316E-09  0.103E-05    0.04    1497.2  T
     SCC iter.                  ...        0 min,  0.043 sec
     gradient                   ...        0 min,  0.060 sec
 * total energy  :   -83.6131794 Eh     change       -0.3908284E-04 Eh
   gradient norm :     0.0033500 Eh/α   predicted    -0.2817161E-04 ( -27.92%)
   displ. norm   :     0.2114574 α      lambda       -0.7121612E-04
   maximum displ.:     0.1020186 α      in ANC's #2, #1, #14, ...

........................................................................
.............................. CYCLE   18 ..............................
........................................................................
   1    -84.3386347 -0.843386E+02  0.667E-03    0.04       0.0  T
   2    -84.3382972  0.337543E-03  0.491E-02    0.03       1.0  T
   3    -84.3386225 -0.325392E-03  0.104E-02    0.04       1.5  T
   4    -84.3386245 -0.200022E-05  0.982E-03    0.04       1.6  T
   5    -84.3386368 -0.122964E-04  0.252E-03    0.04       6.1  T
   6    -84.3386376 -0.805381E-06  0.265E-04    0.04      58.2  T
   7    -84.3386377 -0.925523E-08  0.544E-05    0.04     283.9  T
   8    -84.3386377 -0.214087E-09  0.298E-05    0.04     517.7  T
     SCC iter.                  ...        0 min,  0.044 sec
     gradient                   ...        0 min,  0.060 sec
 * total energy  :   -83.6132309 Eh     change       -0.5143676E-04 Eh
   gradient norm :     0.0044989 Eh/α   predicted    -0.3720470E-04 ( -27.67%)
   displ. norm   :     0.2387232 α      lambda       -0.8094615E-04
   maximum displ.:     0.1188020 α      in ANC's #2, #1, #14, ...

........................................................................
.............................. CYCLE   19 ..............................
........................................................................
   1    -84.3377811 -0.843378E+02  0.724E-03    0.04       0.0  T
   2    -84.3373120  0.469137E-03  0.574E-02    0.03       1.0  T
   3    -84.3377512 -0.439187E-03  0.154E-02    0.04       1.0  T
   4    -84.3377837 -0.324986E-04  0.236E-03    0.04       6.5  T
   5    -84.3377841 -0.365393E-06  0.114E-03    0.04      13.5  T
   6    -84.3377842 -0.113690E-06  0.431E-04    0.04      35.8  T
   7    -84.3377842 -0.244764E-07  0.715E-05    0.04     215.7  T
   8    -84.3377842 -0.261167E-09  0.488E-05    0.04     316.1  T
     SCC iter.                  ...        0 min,  0.047 sec
     gradient                   ...        0 min,  0.061 sec
 * total energy  :   -83.6132849 Eh     change       -0.5397948E-04 Eh
   gradient norm :     0.0057313 Eh/α   predicted    -0.4278104E-04 ( -20.75%)
   displ. norm   :     0.1807584 α      lambda       -0.7419372E-04
   maximum displ.:     0.0864433 α      in ANC's #2, #1, #5, ...

........................................................................
.............................. CYCLE   20 ..............................
........................................................................
   1    -84.3385707 -0.843386E+02  0.347E-02    0.04       0.0  T
   2    -84.2464801  0.920905E-01  0.800E-01    0.06       1.0  T
   3    -84.3387418 -0.922617E-01  0.560E-03    0.04       2.8  T
   4    -84.3387387  0.318361E-05  0.708E-03    0.04       2.2  T
   5    -84.3387441 -0.546306E-05  0.309E-03    0.04       5.0  T
   6    -84.3387454 -0.125353E-05  0.208E-04    0.04      74.0  T
   7    -84.3387454 -0.529330E-08  0.508E-05    0.04     303.5  T
   8    -84.3387454 -0.252285E-09  0.126E-05    0.04    1222.3  T
     SCC iter.                  ...        0 min,  0.044 sec
     gradient                   ...        0 min,  0.060 sec
 * total energy  :   -83.6133353 Eh     change       -0.5045428E-04 Eh
   gradient norm :     0.0050250 Eh/α   predicted    -0.3831246E-04 ( -24.06%)
   displ. norm   :     0.2213184 α      lambda       -0.6309019E-04
   maximum displ.:     0.1107886 α      in ANC's #2, #1, #14, ...
 * RMSD in coord.:     0.4426574 α      energy gain  -0.3314533E-01 Eh

generating ANC from model Hessian ...
Using Lindh-Hessian (1995)
 Shifting diagonal of input Hessian by   9.812629381167615E-003
 Lowest  eigenvalues of input Hessian
    0.000000    0.000000    0.000000    0.000000    0.000000    0.000000
    0.010000    0.010166    0.010557    0.011084    0.011783    0.011948
    0.013082    0.013808    0.014216    0.015194    0.016300    0.017383
 Highest eigenvalues
    2.047817    2.070335    2.072619    2.225544    2.243792    2.284211
 

........................................................................
.............................. CYCLE   21 ..............................
........................................................................
   1    -84.3379691 -0.843380E+02  0.144E-02    0.04       0.0  T
   2    -84.3278147  0.101544E-01  0.267E-01    0.08       1.0  T
   3    -84.3379925 -0.101778E-01  0.703E-03    0.04       2.2  T
   4    -84.3379938 -0.132564E-05  0.582E-03    0.04       2.6  T
   5    -84.3379981 -0.434745E-05  0.119E-03    0.04      12.9  T
   6    -84.3379983 -0.134903E-06  0.253E-04    0.04      61.0  T
   7    -84.3379983 -0.694052E-08  0.962E-05    0.04     160.3  T
   8    -84.3379983 -0.104083E-08  0.337E-05    0.04     457.2  T
     SCC iter.                  ...        0 min,  0.044 sec
     gradient                   ...        0 min,  0.060 sec
 * total energy  :   -83.6133786 Eh     change       -0.4327981E-04 Eh
   gradient norm :     0.0041810 Eh/α   predicted     0.0000000E+00 (-100.00%)
   displ. norm   :     0.0248165 α      lambda       -0.2756680E-04
   maximum displ.:     0.0122602 α      in ANC's #4, #5, #17, ...

........................................................................
.............................. CYCLE   22 ..............................
........................................................................
   1    -84.3389447 -0.843389E+02  0.240E-02    0.04       0.0  T
   2    -84.3162760  0.226687E-01  0.400E-01    0.10       1.0  T
   3    -84.3390161 -0.227401E-01  0.911E-03    0.04       1.7  T
   4    -84.3390268 -0.107272E-04  0.192E-03    0.04       8.0  T
   5    -84.3390273 -0.407951E-06  0.475E-04    0.04      32.5  T
   6    -84.3390272  0.939600E-07  0.833E-04    0.04      18.5  T
   7    -84.3390273 -0.973951E-07  0.458E-05    0.04     336.9  T
   8    -84.3390273  0.144297E-09  0.536E-05    0.04     287.9  T
     SCC iter.                  ...        0 min,  0.044 sec
     gradient                   ...        0 min,  0.060 sec
 * total energy  :   -83.6134027 Eh     change       -0.2406030E-04 Eh
   gradient norm :     0.0019817 Eh/α   predicted    -0.1589461E-04 ( -33.94%)
   displ. norm   :     0.0818956 α      lambda       -0.2883003E-04
   maximum displ.:     0.0430387 α      in ANC's #4, #5, #17, ...

........................................................................
.............................. CYCLE   23 ..............................
........................................................................
   1    -84.3399271 -0.843399E+02  0.425E-02    0.03       0.0  T
   2    -84.2983787  0.415485E-01  0.546E-01    0.15       1.0  T
   3    -84.3400357 -0.416571E-01  0.328E-02    0.04       1.0  T
   4    -84.3401784 -0.142709E-03  0.685E-03    0.04       2.3  T
   5    -84.3401794 -0.965469E-06  0.649E-03    0.04       2.4  T
   6    -84.3401840 -0.465580E-05  0.281E-03    0.04       5.5  T
   7    -84.3401851 -0.105664E-05  0.783E-04    0.04      19.7  T
   8    -84.3401852 -0.692871E-07  0.358E-04    0.04      43.1  T
   9    -84.3401852 -0.183398E-07  0.716E-06    0.04    2156.1  T
  10    -84.3401852  0.225668E-10  0.131E-05    0.04    1174.5  T
     SCC iter.                  ...        0 min,  0.054 sec
     gradient                   ...        0 min,  0.060 sec
 * total energy  :   -83.6134267 Eh     change       -0.2404331E-04 Eh
   gradient norm :     0.0024761 Eh/α   predicted    -0.1547071E-04 ( -35.65%)
   displ. norm   :     0.0393818 α      lambda       -0.1323026E-04
   maximum displ.:     0.0195765 α      in ANC's #5, #4, #17, ...

........................................................................
.............................. CYCLE   24 ..............................
........................................................................
   1    -84.3399457 -0.843399E+02  0.169E-03    0.04       0.0  T
   2    -84.3399135  0.322753E-04  0.150E-02    0.04       1.0  T
   3    -84.3399403 -0.268651E-04  0.632E-03    0.04       2.4  T
   4    -84.3399455 -0.520751E-05  0.168E-03    0.04       9.2  T
   5    -84.3399459 -0.362036E-06  0.324E-04    0.04      47.6  T
   6    -84.3399459 -0.111859E-07  0.344E-05    0.04     449.0  T
   7    -84.3399459 -0.927116E-10  0.111E-05    0.04    1387.8  T
     SCC iter.                  ...        0 min,  0.036 sec
     gradient                   ...        0 min,  0.058 sec
 * total energy  :   -83.6134392 Eh     change       -0.1250400E-04 Eh
   gradient norm :     0.0021853 Eh/α   predicted    -0.6721752E-05 ( -46.24%)
   displ. norm   :     0.2615098 α      lambda       -0.8037224E-04
   maximum displ.:     0.1331362 α      in ANC's #5, #4, #17, ...

........................................................................
.............................. CYCLE   25 ..............................
........................................................................
   1    -84.3380507 -0.843381E+02  0.997E-03    0.04       0.0  T
   2    -84.3367222  0.132853E-02  0.962E-02    0.03       1.0  T
   3    -84.3379099 -0.118772E-02  0.324E-02    0.04       1.0  T
   4    -84.3380469 -0.137025E-03  0.846E-03    0.04       1.8  T
   5    -84.3380559 -0.896978E-05  0.136E-03    0.04      11.3  T
   6    -84.3380561 -0.160493E-06  0.222E-04    0.04      69.4  T
   7    -84.3380561 -0.347104E-08  0.108E-04    0.04     143.0  T
   8    -84.3380561 -0.436728E-09  0.799E-05    0.04     193.2  T
     SCC iter.                  ...        0 min,  0.041 sec
     gradient                   ...        0 min,  0.058 sec
 * total energy  :   -83.6134765 Eh     change       -0.3726488E-04 Eh
   gradient norm :     0.0041281 Eh/α   predicted    -0.4293829E-04 (  15.22%)
   displ. norm   :     0.0255766 α      lambda       -0.1998682E-04
   maximum displ.:     0.0133183 α      in ANC's #5, #4, #17, ...

........................................................................
.............................. CYCLE   26 ..............................
........................................................................
   1    -84.3388511 -0.843389E+02  0.307E-03    0.04       0.0  T
   2    -84.3387366  0.114571E-03  0.284E-02    0.03       1.0  T
   3    -84.3388505 -0.113897E-03  0.311E-03    0.04       5.0  T
   4    -84.3388512 -0.790451E-06  0.170E-03    0.04       9.1  T
   5    -84.3388516 -0.313045E-06  0.185E-04    0.04      83.5  T
   6    -84.3388516 -0.139359E-08  0.638E-05    0.04     241.7  T
     SCC iter.                  ...        0 min,  0.031 sec
     gradient                   ...        0 min,  0.058 sec
 * total energy  :   -83.6134905 Eh     change       -0.1406513E-04 Eh
   gradient norm :     0.0022777 Eh/α   predicted    -0.1000184E-04 ( -28.89%)
   displ. norm   :     0.0873960 α      lambda       -0.2911923E-04
   maximum displ.:     0.0404294 α      in ANC's #5, #17, #1, ...

........................................................................
.............................. CYCLE   27 ..............................
........................................................................
   1    -84.3394534 -0.843395E+02  0.536E-03    0.04       0.0  T
   2    -84.3380782  0.137520E-02  0.980E-02    0.05       1.0  T
   3    -84.3394567 -0.137856E-02  0.168E-03    0.04       9.2  T
   4    -84.3394568 -0.659023E-07  0.698E-04    0.04      22.1  T
   5    -84.3394568 -0.274611E-08  0.244E-04    0.04      63.3  T
   6    -84.3394568  0.962771E-09  0.991E-05    0.04     155.7  T
   7    -84.3394568 -0.125019E-08  0.179E-05    0.04     859.7  T
     SCC iter.                  ...        0 min,  0.036 sec
     gradient                   ...        0 min,  0.058 sec
 * total energy  :   -83.6135137 Eh     change       -0.2311859E-04 Eh
   gradient norm :     0.0012118 Eh/α   predicted    -0.1468459E-04 ( -36.48%)
   displ. norm   :     0.3721599 α      lambda       -0.5286489E-04
   maximum displ.:     0.1817682 α      in ANC's #5, #17, #1, ...

........................................................................
.............................. CYCLE   28 ..............................
........................................................................
   1    -84.3382034 -0.843382E+02  0.301E-02    0.03       0.0  T
   2    -84.3091268  0.290766E-01  0.454E-01    0.12       1.0  T
   3    -84.3383066 -0.291798E-01  0.127E-02    0.04       1.2  T
   4    -84.3383265 -0.199212E-04  0.369E-03    0.04       4.2  T
   5    -84.3383278 -0.126962E-05  0.144E-03    0.04      10.8  T
   6    -84.3383280 -0.194584E-06  0.310E-04    0.04      49.8  T
   7    -84.3383280 -0.116471E-07  0.377E-05    0.04     409.8  T
   8    -84.3383280  0.544986E-10  0.254E-05    0.04     606.5  T
     SCC iter.                  ...        0 min,  0.041 sec
     gradient                   ...        0 min,  0.058 sec
 * total energy  :   -83.6135368 Eh     change       -0.2310114E-04 Eh
   gradient norm :     0.0052408 Eh/α   predicted    -0.2806479E-04 (  21.49%)
   displ. norm   :     0.0646095 α      lambda       -0.4978818E-04
   maximum displ.:     0.0364641 α      in ANC's #4, #5, #17, ...

........................................................................
.............................. CYCLE   29 ..............................
........................................................................
   1    -84.3396847 -0.843397E+02  0.462E-03    0.04       0.0  T
   2    -84.3396718  0.128397E-04  0.979E-03    0.04       1.6  T
   3    -84.3395516  0.120196E-03  0.306E-02    0.03       1.0  T
   4    -84.3396850 -0.133357E-03  0.110E-03    0.04      14.0  T
   5    -84.3396849  0.609326E-07  0.745E-04    0.04      20.7  T
   6    -84.3396850 -0.595675E-07  0.256E-04    0.04      60.3  T
   7    -84.3396850 -0.830887E-08  0.517E-05    0.04     298.7  T
   8    -84.3396850 -0.297732E-09  0.131E-05    0.04    1181.0  T
     SCC iter.                  ...        0 min,  0.041 sec
     gradient                   ...        0 min,  0.055 sec
 * total energy  :   -83.6135670 Eh     change       -0.3023407E-04 Eh
   gradient norm :     0.0025148 Eh/α   predicted    -0.2506574E-04 ( -17.09%)
   displ. norm   :     0.0700303 α      lambda       -0.2407975E-04
   maximum displ.:     0.0299490 α      in ANC's #1, #6, #5, ...

........................................................................
.............................. CYCLE   30 ..............................
........................................................................
   1    -84.3398955 -0.843399E+02  0.193E-03    0.04       0.0  T
   2    -84.3398877  0.787321E-05  0.760E-03    0.04       2.0  T
   3    -84.3398923 -0.466019E-05  0.489E-03    0.04       3.2  T
   4    -84.3398951 -0.272502E-05  0.227E-03    0.04       6.8  T
   5    -84.3398957 -0.590907E-06  0.793E-04    0.04      19.5  T
   6    -84.3398957 -0.751527E-07  0.190E-04    0.04      81.2  T
   7    -84.3398957 -0.470182E-08  0.385E-05    0.04     400.4  T
     SCC iter.                  ...        0 min,  0.029 sec
     gradient                   ...        0 min,  0.046 sec
 * total energy  :   -83.6135875 Eh     change       -0.2051491E-04 Eh
   gradient norm :     0.0019076 Eh/α   predicted    -0.1211400E-04 ( -40.95%)
   displ. norm   :     0.4796047 α      lambda       -0.7381888E-04
   maximum displ.:     0.2083535 α      in ANC's #5, #1, #17, ...

........................................................................
.............................. CYCLE   31 ..............................
........................................................................
   1    -84.3366247 -0.843366E+02  0.187E-02    0.04       0.0  T
   2    -84.3152785  0.213462E-01  0.386E-01    0.02       1.0  T
   3    -84.3366332 -0.213547E-01  0.161E-02    0.04       1.0  T
   4    -84.3366548 -0.216832E-04  0.895E-03    0.04       1.7  T
   5    -84.3366634 -0.856480E-05  0.300E-03    0.04       5.1  T
   6    -84.3366644 -0.103593E-05  0.507E-04    0.04      30.5  T
   7    -84.3366645 -0.305204E-07  0.623E-05    0.04     247.7  T
   8    -84.3366645 -0.557350E-10  0.188E-05    0.04     819.2  T
     SCC iter.                  ...        0 min,  0.041 sec
     gradient                   ...        0 min,  0.051 sec
 * total energy  :   -83.6135881 Eh     change       -0.6192526E-06 Eh
   gradient norm :     0.0075212 Eh/α   predicted    -0.4068319E-04 (6469.72%)
   displ. norm   :     0.1717707 α      lambda       -0.1314076E-03
   maximum displ.:     0.0808031 α      in ANC's #5, #17, #1, ...

........................................................................
.............................. CYCLE   32 ..............................
........................................................................
   1    -84.3391920 -0.843392E+02  0.203E-02    0.04       0.0  T
   2    -84.3105656  0.286264E-01  0.446E-01    0.02       1.0  T
   3    -84.3392272 -0.286616E-01  0.107E-02    0.04       1.4  T
   4    -84.3392407 -0.134851E-04  0.272E-03    0.04       5.7  T
   5    -84.3392412 -0.488038E-06  0.732E-04    0.04      21.1  T
   6    -84.3392412 -0.367483E-07  0.121E-04    0.04     127.7  T
   7    -84.3392412  0.757126E-09  0.838E-05    0.04     184.0  T
     SCC iter.                  ...        0 min,  0.040 sec
     gradient                   ...        0 min,  0.062 sec
 * total energy  :   -83.6136431 Eh     change       -0.5500376E-04 Eh
   gradient norm :     0.0019087 Eh/α   predicted    -0.6764381E-04 (  22.98%)
   displ. norm   :     0.0638304 α      lambda       -0.1101181E-04
   maximum displ.:     0.0353466 α      in ANC's #1, #5, #17, ...

........................................................................
.............................. CYCLE   33 ..............................
........................................................................
   1    -84.3394831 -0.843395E+02  0.189E-02    0.04       0.0  T
   2    -84.3095328  0.299503E-01  0.456E-01    0.02       1.0  T
   3    -84.3395338 -0.300010E-01  0.201E-03    0.04       7.7  T
   4    -84.3395342 -0.351741E-06  0.122E-03    0.04      12.7  T
   5    -84.3395343 -0.171658E-06  0.441E-04    0.04      35.0  T
   6    -84.3395343 -0.200496E-07  0.517E-05    0.04     298.3  T
   7    -84.3395343 -0.213305E-09  0.994E-06    0.04    1552.8  T
     SCC iter.                  ...        0 min,  0.039 sec
     gradient                   ...        0 min,  0.061 sec
 * total energy  :   -83.6136570 Eh     change       -0.1385135E-04 Eh
   gradient norm :     0.0010526 Eh/α   predicted    -0.5517360E-05 ( -60.17%)
   displ. norm   :     0.2267040 α      lambda       -0.2566971E-04
   maximum displ.:     0.1262746 α      in ANC's #1, #5, #17, ...

........................................................................
.............................. CYCLE   34 ..............................
........................................................................
   1    -84.3386629 -0.843387E+02  0.554E-02    0.04       0.0  T
   2    -84.1733786  0.165284E+00  0.108E+00    0.12       1.0  T
   3    -84.3390955 -0.165717E+00  0.839E-03    0.04       1.8  T
   4    -84.3391036 -0.803384E-05  0.310E-03    0.04       5.0  T
   5    -84.3391047 -0.113094E-05  0.895E-04    0.04      17.2  T
   6    -84.3391047 -0.454958E-07  0.378E-04    0.04      40.8  T
   7    -84.3391048 -0.194309E-07  0.548E-05    0.04     281.4  T
   8    -84.3391048 -0.365603E-09  0.143E-05    0.04    1080.2  T
     SCC iter.                  ...        0 min,  0.045 sec
     gradient                   ...        0 min,  0.063 sec
 * total energy  :   -83.6136770 Eh     change       -0.2000541E-04 Eh
   gradient norm :     0.0030860 Eh/α   predicted    -0.1313185E-04 ( -34.36%)
   displ. norm   :     0.0300312 α      lambda       -0.1165828E-04
   maximum displ.:     0.0207091 α      in ANC's #1, #4, #17, ...

........................................................................
.............................. CYCLE   35 ..............................
........................................................................
   1    -84.3396375 -0.843396E+02  0.463E-03    0.04       0.0  T
   2    -84.3382186  0.141884E-02  0.994E-02    0.03       1.0  T
   3    -84.3396400 -0.142140E-02  0.131E-03    0.04      11.8  T
   4    -84.3396402 -0.146248E-06  0.415E-04    0.04      37.2  T
   5    -84.3396402 -0.169069E-08  0.139E-04    0.04     110.7  T
   6    -84.3396402 -0.469157E-09  0.262E-05    0.04     588.9  T
     SCC iter.                  ...        0 min,  0.034 sec
     gradient                   ...        0 min,  0.063 sec
 * total energy  :   -83.6136860 Eh     change       -0.9019626E-05 Eh
   gradient norm :     0.0021518 Eh/α   predicted    -0.5834760E-05 ( -35.31%)
   displ. norm   :     0.1074407 α      lambda       -0.1756928E-04
   maximum displ.:     0.0720727 α      in ANC's #1, #17, #5, ...

........................................................................
.............................. CYCLE   36 ..............................
........................................................................
   1    -84.3400946 -0.843401E+02  0.350E-03    0.04       0.0  T
   2    -84.3394424  0.652253E-03  0.675E-02    0.05       1.0  T
   3    -84.3400959 -0.653509E-03  0.149E-03    0.04      10.4  T
   4    -84.3400961 -0.213579E-06  0.526E-04    0.04      29.3  T
   5    -84.3400961 -0.112846E-07  0.177E-04    0.04      87.4  T
   6    -84.3400961 -0.158938E-08  0.381E-05    0.04     404.7  T
     SCC iter.                  ...        0 min,  0.034 sec
     gradient                   ...        0 min,  0.065 sec
 * total energy  :   -83.6136995 Eh     change       -0.1352828E-04 Eh
   gradient norm :     0.0015571 Eh/α   predicted    -0.8888887E-05 ( -34.29%)
   displ. norm   :     0.2915094 α      lambda       -0.2138883E-04
   maximum displ.:     0.1921444 α      in ANC's #1, #17, #5, ...

........................................................................
.............................. CYCLE   37 ..............................
........................................................................
   1    -84.3392629 -0.843393E+02  0.250E-02    0.04       0.0  T
   2    -84.3157850  0.234779E-01  0.407E-01    0.11       1.0  T
   3    -84.3393478 -0.235627E-01  0.470E-03    0.04       3.3  T
   4    -84.3393499 -0.217239E-05  0.231E-03    0.04       6.7  T
   5    -84.3393505 -0.605511E-06  0.632E-04    0.04      24.4  T
   6    -84.3393505  0.189411E-07  0.559E-04    0.04      27.6  T
   7    -84.3393506 -0.428962E-07  0.924E-05    0.04     166.9  T
   8    -84.3393506 -0.109924E-08  0.191E-05    0.04     809.2  T
     SCC iter.                  ...        0 min,  0.045 sec
     gradient                   ...        0 min,  0.063 sec
 * total energy  :   -83.6137108 Eh     change       -0.1123931E-04 Eh
   gradient norm :     0.0024782 Eh/α   predicted    -0.1109445E-04 (  -1.29%)
   displ. norm   :     0.0445301 α      lambda       -0.1991007E-04
   maximum displ.:     0.0196105 α      in ANC's #5, #6, #17, ...

........................................................................
.............................. CYCLE   38 ..............................
........................................................................
   1    -84.3398938 -0.843399E+02  0.281E-02    0.03       0.0  T
   2    -84.3122196  0.276742E-01  0.442E-01    0.11       1.0  T
   3    -84.3399825 -0.277629E-01  0.133E-02    0.04       1.2  T
   4    -84.3400047 -0.221428E-04  0.443E-03    0.04       3.5  T
   5    -84.3400036  0.106100E-05  0.517E-03    0.04       3.0  T
   6    -84.3400073 -0.373722E-05  0.686E-04    0.04      22.5  T
   7    -84.3400074 -0.661446E-07  0.499E-05    0.04     309.1  T
   8    -84.3400074  0.368658E-09  0.684E-05    0.04     225.7  T
     SCC iter.                  ...        0 min,  0.046 sec
     gradient                   ...        0 min,  0.065 sec
 * total energy  :   -83.6137210 Eh     change       -0.1019825E-04 Eh
   gradient norm :     0.0008960 Eh/α   predicted    -0.9980469E-05 (  -2.14%)
   displ. norm   :     0.0359009 α      lambda       -0.4122223E-05
   maximum displ.:     0.0228271 α      in ANC's #1, #10, #17, ...

........................................................................
.............................. CYCLE   39 ..............................
........................................................................
   1    -84.3400211 -0.843400E+02  0.137E-02    0.04       0.0  T
   2    -84.3300627  0.995835E-02  0.264E-01    0.08       1.0  T
   3    -84.3400463 -0.998356E-02  0.403E-03    0.04       3.8  T
   4    -84.3400485 -0.223558E-05  0.508E-04    0.04      30.4  T
   5    -84.3400485  0.935120E-08  0.515E-04    0.04      30.0  T
   6    -84.3400485 -0.283354E-07  0.210E-04    0.04      73.5  T
   7    -84.3400485 -0.619825E-08  0.635E-06    0.04    2430.4  T
   8    -84.3400485  0.219131E-10  0.127E-05    0.04    1219.2  T
     SCC iter.                  ...        0 min,  0.047 sec
     gradient                   ...        0 min,  0.065 sec
 * total energy  :   -83.6137261 Eh     change       -0.5082228E-05 Eh
   gradient norm :     0.0007312 Eh/α   predicted    -0.2060419E-05 ( -59.46%)
   displ. norm   :     0.1364455 α      lambda       -0.1037359E-04
   maximum displ.:     0.0899811 α      in ANC's #1, #10, #17, ...

........................................................................
.............................. CYCLE   40 ..............................
........................................................................
   1    -84.3395247 -0.843395E+02  0.345E-02    0.03       0.0  T
   2    -84.3044642  0.350605E-01  0.499E-01    0.13       1.0  T
   3    -84.3396001 -0.351358E-01  0.266E-02    0.04       1.0  T
   4    -84.3396862 -0.861908E-04  0.960E-03    0.04       1.6  T
   5    -84.3396973 -0.110546E-04  0.421E-03    0.04       3.7  T
   6    -84.3396989 -0.163903E-05  0.236E-03    0.04       6.6  T
   7    -84.3396997 -0.781765E-06  0.154E-04    0.04     100.5  T
   8    -84.3396997 -0.233877E-08  0.843E-05    0.04     183.1  T
     SCC iter.                  ...        0 min,  0.047 sec
     gradient                   ...        0 min,  0.064 sec
 * total energy  :   -83.6137340 Eh     change       -0.7909643E-05 Eh
   gradient norm :     0.0012138 Eh/α   predicted    -0.5198560E-05 ( -34.28%)
   displ. norm   :     0.0399557 α      lambda       -0.3132171E-05
   maximum displ.:     0.0252853 α      in ANC's #1, #9, #2, ...

........................................................................
.............................. CYCLE   41 ..............................
........................................................................
   1    -84.3398713 -0.843399E+02  0.108E-02    0.04       0.0  T
   2    -84.3331031  0.676824E-02  0.218E-01    0.07       1.0  T
   3    -84.3398851 -0.678202E-02  0.512E-03    0.04       3.0  T
   4    -84.3398882 -0.306708E-05  0.196E-03    0.04       7.9  T
   5    -84.3398885 -0.382109E-06  0.986E-04    0.04      15.7  T
   6    -84.3398887 -0.123104E-06  0.168E-04    0.04      91.8  T
   7    -84.3398887 -0.349691E-08  0.470E-05    0.04     328.5  T
     SCC iter.                  ...        0 min,  0.039 sec
     gradient                   ...        0 min,  0.063 sec
 * total energy  :   -83.6137372 Eh     change       -0.3199088E-05 Eh
   gradient norm :     0.0008052 Eh/α   predicted    -0.1577254E-05 ( -50.70%)
   displ. norm   :     0.0636843 α      lambda       -0.3288332E-05
   maximum displ.:     0.0417662 α      in ANC's #1, #9, #2, ...

   *** GEOMETRY OPTIMIZATION CONVERGED AFTER 41 ITERATIONS ***

------------------------------------------------------------------------
 total energy gain   :        -0.0335472 Eh      -21.0512 kcal/mol
 total RMSD          :         0.6243440 a0        0.3304 Å
 total power (kW/mol):        -2.1482462 (step)  -15.6097 (real)
------------------------------------------------------------------------

 ANCopt (total)                0 d,  0 h,  0 min,  5.643 sec
 optimizer setup                ...        0 min,  0.001 sec (  0.012%)
 model hessian                  ...        0 min,  0.046 sec (  0.808%)
 ANC generation                 ...        0 min,  0.005 sec (  0.093%)
 coordinate transformation      ...        0 min,  0.001 sec (  0.017%)
 single point calculation       ...        0 min,  5.574 sec ( 98.785%)
 optimization log               ...        0 min,  0.008 sec (  0.146%)
 hessian update                 ...        0 min,  0.001 sec (  0.016%)
 rational function              ...        0 min,  0.004 sec (  0.079%)

================
 final structure:
================
42
 xtb: 6.5.1 (579679a)
C           -3.16263923297284        2.50677435799189        0.21702795724906
O           -2.71029944251575        1.16299899618235        0.10912068690657
C           -3.68482219812903        0.22311582178231        0.02676731263027
O           -4.86740558845352        0.53391253122330        0.03704540753675
C           -3.16477142820014       -1.18461156418330       -0.20567154802833
C           -4.19099925649372       -2.19993950664894        0.30899720601050
N           -1.89343177472805       -1.40521623658646        0.46542540646300
C           -0.81727684588897       -1.08537898089721       -0.15667617131357
C            0.52198739223589       -1.29175679011618        0.54248647704193
C            1.00089779758884       -2.70914479152849        0.18799618932007
C            0.34416954125165       -1.14531969971953        2.06059337869339
N            1.45676226704478       -0.29293501018942        0.02396256378392
C            2.76472928399922       -0.20403690637671        0.52468585324841
O            3.33921531455994       -1.14077527420139        1.11721516659259
C            3.35327621837492        1.05948075752706        0.20910649882486
N            2.75131944470348        2.07685945910618       -0.41549271494158
N            3.67521069881771        3.08216164608150       -0.49777385363098
C            4.76047368802202        2.65524916502191        0.05978898734384
C            6.03959753155725        3.39321808380771        0.20785672564841
O            4.65297270273680        1.39162274213464        0.53546479006786
N           -0.78760196829354       -0.62332651942378       -1.43322680232420
C           -1.87036016702161       -0.84594280069119       -2.35039285488389
O           -1.58707535334251       -0.75229163893351       -3.58122164665517
C           -3.09964946970540       -1.21409008541120       -1.76158141592740
O           -4.15399742191925       -1.55297316831924       -2.40003452421305
H           -3.74497000202623        2.64200279237179        1.13336209714892
H           -3.78813800767609        2.77827507102463       -0.63928620522820
H           -2.28009704251236        3.14383983669486        0.24750933544786
H           -5.15889156623945       -2.01730721826460       -0.15760051940842
H           -3.86393122345222       -3.20964835646963        0.06335296351593
H           -4.29321179342326       -2.11711864198030        1.39055853099283
H            1.19493918166703       -2.77920934822250       -0.88220046024731
H            1.91162501152501       -2.95896353116918        0.72863423136201
H            0.22606592184801       -3.42760022739530        0.45519973126429
H            1.27812792199970       -1.36254135126971        2.57637542129779
H           -0.42347080189895       -1.83861140989189        2.40359542888392
H            0.02994704642448       -0.13034170635962        2.30329339791761
H            1.03763435166968        0.62254574692027       -0.11234790337424
H            6.32910395185191        3.44610708023269        1.25772509923915
H            5.92419479137502        4.40104065667940       -0.18426797538000
H            6.83705333450832        2.88647415258417       -0.33619335121238
H            0.11373419113334       -0.51659913311199       -1.87509689767067
 
 Bond Distances (Angstroems)
 ---------------------------
C1-O2=1.4220         C1-H26=1.0941        C1-H27=1.0946        C1-H28=1.0889        O2-C1=1.4220         O2-C3=1.3564         
C3-O2=1.3564         C3-O4=1.2228         C3-C5=1.5186         O4-C3=1.2228         C5-C3=1.5186         C5-C6=1.5326         
C5-N7=1.4544         C5-C24=1.5576        C6-C5=1.5326         C6-H29=1.0899        C6-H30=1.0894        C6-H31=1.0895        
N7-C5=1.4544         N7-C8=1.2835         C8-N7=1.2835         C8-C9=1.5248         C8-N21=1.3579        C9-C8=1.5248         
C9-C10=1.5375        C9-C11=1.5355        C9-N12=1.4630        C10-C9=1.5375        C10-H32=1.0899       C10-H33=1.0882       
C10-H34=1.0899       C11-C9=1.5355        C11-H35=1.0888       C11-H36=1.0898       C11-H37=1.0899       N12-C9=1.4630        
N12-C13=1.4034       N12-H38=1.0160       C13-N12=1.4034       C13-O14=1.2484       C13-C15=1.4291       O14-C13=1.2484       
C15-C13=1.4291       C15-N16=1.3370       C15-O20=1.3806       N16-C15=1.3370       N16-N17=1.3678       N17-N16=1.3678       
N17-C18=1.2926       C18-N17=1.2926       C18-C19=1.4841       C18-O20=1.3545       C19-C18=1.4841       C19-H39=1.0903       
C19-H40=1.0876       C19-H41=1.0903       O20-C15=1.3806       O20-C18=1.3545       N21-C8=1.3579        N21-C22=1.4364       
N21-H42=1.0095       C22-N21=1.4364       C22-O23=1.2665       C22-C24=1.4119       O23-C22=1.2665       C24-C5=1.5576        
C24-C22=1.4119       C24-O25=1.2783       O25-C24=1.2783       H26-C1=1.0941        H27-C1=1.0946        H28-C1=1.0889        
H29-C6=1.0899        H30-C6=1.0894        H31-C6=1.0895        H32-C10=1.0899       H33-C10=1.0882       H34-C10=1.0899       
H35-C11=1.0888       H36-C11=1.0898       H37-C11=1.0899       H38-N12=1.0160       H39-C19=1.0903       H40-C19=1.0876       
H41-C19=1.0903       H42-N21=1.0095       
 C  H  Rav=1.0901 sigma=0.0018  Rmin=1.0876  Rmax=1.0946    15
 C  C  Rav=1.5035 sigma=0.0482  Rmin=1.4119  Rmax=1.5576     9
 N  H  Rav=1.0128 sigma=0.0033  Rmin=1.0095  Rmax=1.0160     2
 N  C  Rav=1.3785 sigma=0.0665  Rmin=1.2835  Rmax=1.4630     8
 N  N  Rav=1.3678 sigma=0.0000  Rmin=1.3678  Rmax=1.3678     1
 O  C  Rav=1.3162 sigma=0.0667  Rmin=1.2228  Rmax=1.4220     8
 
 selected bond angles (degree)
 --------------------
H26-C1-O2=110.47               H27-C1-O2=110.90               H27-C1-H26=108.69              H28-C1-O2=107.29               
H28-C1-H26=109.61              H28-C1-H27=109.87              C3-O2-C1=115.52                O4-C3-O2=121.21                
C5-C3-O2=113.93                C5-C3-O4=124.62                C6-C5-C3=109.48                N7-C5-C3=111.67                
N7-C5-C6=109.26                C24-C5-C3=100.65               C24-C5-C6=110.54               C24-C5-N7=114.93               
H29-C6-C5=109.87               H30-C6-C5=109.71               H30-C6-H29=108.99              H31-C6-C5=110.23               
H31-C6-H29=109.20              H31-C6-H30=108.81              C8-N7-C5=118.13                C9-C8-N7=118.71                
N21-C8-N7=123.97               N21-C8-C9=117.25               C10-C9-C8=107.02               C11-C9-C8=109.80               
C11-C9-C10=110.61              N12-C9-C8=107.84               N12-C9-C10=110.40              N12-C9-C11=111.06              
H32-C10-C9=109.94              H33-C10-C9=110.96              H33-C10-H32=108.91             H34-C10-C9=109.25              
H34-C10-H32=108.96             H34-C10-H33=108.77             
 
 selected dihedral angles (degree)
 ---------------------------------
C3-O2-C1-H26= 62.03           C3-O2-C1-H27=301.45           C3-O2-C1-H28=181.46           O4-C3-O2-C1=  0.49            
C5-C3-O2-C1=175.07            C6-C5-C3-O2=155.55            C6-C5-C3-O4=329.93            N7-C5-C3-O2= 34.42            
N7-C5-C3-O4=208.79            C24-C5-C3-O2=271.99           C24-C5-C3-O4= 86.36           H29-C6-C5-C3= 55.11           
H29-C6-C5-N7=177.69           H29-C6-C5-C24=305.12          H30-C6-C5-C3=174.91           H30-C6-C5-N7=297.49           
H30-C6-C5-C24= 64.92          H31-C6-C5-C3=294.71           H31-C6-C5-N7= 57.30           H31-C6-C5-C24=184.73          
C8-N7-C5-C3=273.06            C8-N7-C5-C6=151.80            C8-N7-C5-C24= 26.89           C9-C8-N7-C5=179.11            
N21-C8-N7-C5=356.12           C10-C9-C8-N7= 90.18           C10-C9-C8-N21=272.96          C11-C9-C8-N7=330.09           
C11-C9-C8-N21=152.87          N12-C9-C8-N7=208.96           N12-C9-C8-N21= 31.74          H32-C10-C9-C8= 64.64          
H32-C10-C9-C11=184.21         H32-C10-C9-N12=307.54         H33-C10-C9-C8=185.19          H33-C10-C9-C11=304.76         
H33-C10-C9-N12= 68.08         H34-C10-C9-C8=305.11          H34-C10-C9-C11= 64.68         H34-C10-C9-N12=188.01         
           -------------------------------------------------
          |                Final Singlepoint                |
           -------------------------------------------------

          ...................................................
          :                      SETUP                      :
          :.................................................:
          :  # basis functions                 134          :
          :  # atomic orbitals                 134          :
          :  # shells                           84          :
          :  # electrons                       136          :
          :  # halogen bonds                     0          :
          :  max. iterations                   250          :
          :  Hamiltonian                  GFN1-xTB          :
          :  restarted?                      false          :
          :  GBSA solvation                   true          :
          :  PC potential                    false          :
          :  electronic temp.          300.0000000     K    :
          :  accuracy                    1.0000000          :
          :  -> integral cutoff          0.2500000E+02      :
          :  -> integral neglect         0.1000000E-07      :
          :  -> SCF convergence          0.1000000E-05 Eh   :
          :  -> wf. convergence          0.2000000E-04 e    :
          :  Broyden damping             0.4000000          :
          ...................................................

 iter      E             dE          RMSdq      gap      omega  full diag
   1    -84.3398887 -0.843399E+02  0.746E-06    0.04       0.0  T
   2    -84.3398887  0.361229E-08  0.159E-04    0.04      97.2  T
   3    -84.3398887 -0.361919E-08  0.186E-06    0.04    8282.7  T

   *** convergence criteria satisfied after 3 iterations ***

         #    Occupation            Energy/Eh            Energy/eV
      -------------------------------------------------------------
         1        2.0000           -0.8030428             -21.8519
       ...           ...                  ...                  ...
        62        2.0000           -0.4054804             -11.0337
        63        2.0000           -0.3992618             -10.8645
        64        2.0000           -0.3906725             -10.6307
        65        2.0000           -0.3803657             -10.3503
        66        2.0000           -0.3757423             -10.2245
        67        2.0000           -0.3462917              -9.4231
        68        1.3510           -0.2701342              -7.3507 (HOMO)
        69        0.6490           -0.2687413              -7.3128 (LUMO)
        70                         -0.2241508              -6.0995
        71                         -0.2114384              -5.7535
        72                         -0.2029222              -5.5218
        73                         -0.1423568              -3.8737
       ...                                ...                  ...
       134                          0.7119187              19.3723
      -------------------------------------------------------------
                  HL-Gap            0.0013929 Eh            0.0379 eV
             Fermi-level           -0.2694378 Eh           -7.3318 eV

 SCC (total)                   0 d,  0 h,  0 min,  0.114 sec
 SCC setup                      ...        0 min,  0.002 sec (  1.539%)
 Dispersion                     ...        0 min,  0.000 sec (  0.227%)
 classical contributions        ...        0 min,  0.000 sec (  0.082%)
 integral evaluation            ...        0 min,  0.028 sec ( 24.267%)
 iterations                     ...        0 min,  0.018 sec ( 15.612%)
 molecular gradient             ...        0 min,  0.065 sec ( 57.002%)
 printout                       ...        0 min,  0.001 sec (  1.244%)

         :::::::::::::::::::::::::::::::::::::::::::::::::::::
         ::                     SUMMARY                     ::
         :::::::::::::::::::::::::::::::::::::::::::::::::::::
         :: total energy             -83.613737160767 Eh    ::
         :: total w/o Gsasa/hb       -83.595385965666 Eh    ::
         :: gradient norm              0.000809279644 Eh/a0 ::
         :: HOMO-LUMO gap              0.037903485098 eV    ::
         ::.................................................::
         :: SCC energy               -84.339888673016 Eh    ::
         :: -> electrostatic           0.694802238199 Eh    ::
         :: -> Gsolv                  -0.268069895859 Eh    ::
         ::    -> Gelec               -0.249718700757 Eh    ::
         ::    -> Gsasa               -0.023539634208 Eh    ::
         ::    -> Ghb                 -0.002435839898 Eh    ::
         ::    -> Gshift               0.007624279005 Eh    ::
         :: repulsion energy           0.753006096830 Eh    ::
         :: dispersion energy         -0.026854584581 Eh    ::
         :: halogen bond corr.         0.000000000000 Eh    ::
         :: add. restraining           0.000000000000 Eh    ::
         :: total charge              -2.000000000000 e     ::
         :::::::::::::::::::::::::::::::::::::::::::::::::::::

           -------------------------------------------------
          |                Property Printout                |
           -------------------------------------------------

    * Orbital Energies and Occupations

         #    Occupation            Energy/Eh            Energy/eV
      -------------------------------------------------------------
         1        2.0000           -0.8030428             -21.8519
       ...           ...                  ...                  ...
        56        2.0000           -0.4493099             -12.2263
        57        2.0000           -0.4448325             -12.1045
        58        2.0000           -0.4311177             -11.7313
        59        2.0000           -0.4263240             -11.6009
        60        2.0000           -0.4105174             -11.1707
        61        2.0000           -0.4075692             -11.0905
        62        2.0000           -0.4054804             -11.0337
        63        2.0000           -0.3992618             -10.8645
        64        2.0000           -0.3906725             -10.6307
        65        2.0000           -0.3803657             -10.3503
        66        2.0000           -0.3757423             -10.2245
        67        2.0000           -0.3462917              -9.4231
        68        1.3510           -0.2701342              -7.3507 (HOMO)
        69        0.6490           -0.2687413              -7.3128 (LUMO)
        70                         -0.2241508              -6.0995
        71                         -0.2114384              -5.7535
        72                         -0.2029222              -5.5218
        73                         -0.1423568              -3.8737
        74                         -0.1248129              -3.3963
        75                         -0.1227692              -3.3407
        76                         -0.1163287              -3.1655
        77                         -0.0977084              -2.6588
        78                         -0.0944533              -2.5702
        79                         -0.0880339              -2.3955
       ...                                ...                  ...
       134                          0.7119187              19.3723
      -------------------------------------------------------------
                  HL-Gap            0.0013929 Eh            0.0379 eV
             Fermi-level           -0.2694378 Eh           -7.3318 eV

  Mulliken/CM5 charges         n(s)   n(p)   n(d)
     1C     0.17486  0.05530   0.970  2.855  0.000
     2O    -0.43752 -0.51949   1.691  4.746  0.000
     3C     0.53700  0.59934   0.994  2.469  0.000
     4O    -0.61009 -0.65944   1.736  4.875  0.000
     5C     0.10947  0.16336   1.068  2.822  0.000
     6C    -0.07307 -0.21004   1.005  3.068  0.000
     7N    -0.48260 -0.66605   1.552  3.930  0.000
     8C     0.27951  0.43312   1.013  2.707  0.000
     9C     0.15623  0.19668   1.061  2.783  0.000
    10C    -0.08926 -0.22829   1.013  3.076  0.000
    11C    -0.09214 -0.23058   1.012  3.080  0.000
    12N    -0.39291 -0.73539   1.453  3.940  0.000
    13C     0.39507  0.49221   0.975  2.630  0.000
    14O    -0.65693 -0.70087   1.743  4.914  0.000
    15C     0.27294  0.38815   1.002  2.725  0.000
    16N    -0.33609 -0.43935   1.582  3.754  0.000
    17N    -0.30399 -0.41197   1.569  3.734  0.000
    18C     0.35743  0.46620   0.994  2.649  0.000
    19C    -0.11041 -0.24762   1.008  3.102  0.000
    20O    -0.39660 -0.44573   1.706  4.691  0.000
    21N    -0.35830 -0.69681   1.443  3.916  0.000
    22C     0.33905  0.42928   0.987  2.674  0.000
    23O    -0.71067 -0.74574   1.755  4.956  0.000
    24C     0.20093  0.24168   1.025  2.774  0.000
    25O    -0.69702 -0.73753   1.762  4.935  0.000
    26H     0.03274  0.09438   0.967  0.000  0.000
    27H     0.03499  0.09686   0.965  0.000  0.000
    28H     0.03370  0.09395   0.966  0.000  0.000
    29H     0.03109  0.09143   0.969  0.000  0.000
    30H     0.01829  0.07460   0.982  0.000  0.000
    31H     0.01137  0.06777   0.989  0.000  0.000
    32H     0.02519  0.08280   0.975  0.000  0.000
    33H     0.04149  0.10207   0.959  0.000  0.000
    34H     0.02079  0.07639   0.979  0.000  0.000
    35H     0.03520  0.09406   0.965  0.000  0.000
    36H     0.02344  0.08206   0.977  0.000  0.000
    37H     0.02304  0.08029   0.977  0.000  0.000
    38H     0.20931  0.41684   0.791  0.000  0.000
    39H     0.05581  0.11015   0.944  0.000  0.000
    40H     0.04861  0.10446   0.951  0.000  0.000
    41H     0.05569  0.10993   0.944  0.000  0.000
    42H     0.22438  0.43154   0.776  0.000  0.000

Wiberg/Mayer (AO) data.
largest (>0.10) Wiberg bond orders for each atom

 ---------------------------------------------------------------------------
     #   Z sym  total        # sym  WBO       # sym  WBO       # sym  WBO
 ---------------------------------------------------------------------------
     1   6 C    3.897 --    28 H    0.987    26 H    0.981    27 H    0.981
                             2 O    0.921
     2   8 O    2.151 --     3 C    1.053     1 C    0.921     4 O    0.109
     3   6 C    3.780 --     4 O    1.601     2 O    1.053     5 C    0.947
     4   8 O    1.866 --     3 C    1.601     2 O    0.109
     5   6 C    3.958 --     6 C    0.990     7 N    0.979     3 C    0.947
                            24 C    0.877
     6   6 C    3.990 --     5 C    0.990    31 H    0.988    30 H    0.988
                            29 H    0.984
     7   7 N    2.938 --     8 C    1.650     5 C    0.979    21 N    0.148
     8   6 C    3.932 --     7 N    1.650    21 N    1.179     9 C    0.970
     9   6 C    3.951 --    11 C    0.989    10 C    0.983     8 C    0.970
                            12 N    0.946
    10   6 C    3.993 --    34 H    0.988    32 H    0.986     9 C    0.983
                            33 H    0.979
    11   6 C    3.992 --     9 C    0.989    37 H    0.987    35 H    0.984
                            36 H    0.984
    12   7 N    3.148 --    13 C    1.077     9 C    0.946    38 H    0.918
                            14 O    0.109
    13   6 C    3.749 --    14 O    1.454    15 C    1.151    12 N    1.077
    14   8 O    1.696 --    13 C    1.454    12 N    0.109
    15   6 C    3.697 --    16 N    1.397    13 C    1.151    20 O    0.979
    16   7 N    2.746 --    15 C    1.397    17 N    1.185
    17   7 N    2.980 --    18 C    1.628    16 N    1.185
    18   6 C    3.821 --    17 N    1.628    20 O    1.051    19 C    1.024
    19   6 C    3.994 --    18 C    1.024    40 H    0.986    39 H    0.972
                            41 H    0.970
    20   8 O    2.187 --    18 C    1.051    15 C    0.979
    21   7 N    3.322 --     8 C    1.179    22 C    0.956    42 H    0.910
                             7 N    0.148
    22   6 C    3.740 --    23 O    1.386    24 C    1.249    21 N    0.956
    23   8 O    1.596 --    22 C    1.386
    24   6 C    3.730 --    25 O    1.372    22 C    1.249     5 C    0.877
    25   8 O    1.573 --    24 C    1.372
    26   1 H    1.013 --     1 C    0.981
    27   1 H    1.014 --     1 C    0.981
    28   1 H    1.015 --     1 C    0.987
    29   1 H    1.026 --     6 C    0.984
    30   1 H    1.012 --     6 C    0.988
    31   1 H    1.011 --     6 C    0.988
    32   1 H    1.008 --    10 C    0.986
    33   1 H    1.023 --    10 C    0.979
    34   1 H    1.009 --    10 C    0.988
    35   1 H    1.014 --    11 C    0.984
    36   1 H    1.022 --    11 C    0.984
    37   1 H    1.009 --    11 C    0.987
    38   1 H    0.979 --    12 N    0.918
    39   1 H    1.001 --    19 C    0.972
    40   1 H    1.004 --    19 C    0.986
    41   1 H    1.001 --    19 C    0.970
    42   1 H    0.970 --    21 N    0.910
 ---------------------------------------------------------------------------

Topologies differ in total number of bonds
Writing topology from bond orders to xtbtopo.mol

 dipole moment from electron density (au)
     X       Y       Z   
   5.4299   2.9097   5.2426  total (Debye):   20.561

           -------------------------------------------------
          |                Geometry Summary                 |
           -------------------------------------------------

      molecular mass/u    :      351.3152409
   center of mass at/Å    :       -0.0725647       0.0257691      -0.2449039
  moments of inertia/u·Å² :        0.1203640E+04   0.4490827E+04   0.4775875E+04
rotational constants/cm⁻¹ :        0.1400554E-01   0.3753792E-02   0.3529747E-02

 * 34 selected distances

     #   Z          #   Z                                           value/Å
     1   6 C        2   8 O                                       1.4219662
     2   8 O        3   6 C                                       1.3564134
     3   6 C        4   8 O                                       1.2227853
     5   6 C        6   6 C                                       1.5326183
     7   7 N        8   6 C                                       1.2835170
     9   6 C       10   6 C                                       1.5375330 (max)
     9   6 C       11   6 C                                       1.5354843
     9   6 C       12   7 N                                       1.4629820
    12   7 N       13   6 C                                       1.4033548
    13   6 C       15   6 C                                       1.4291449
    15   6 C       16   7 N                                       1.3369876
    17   7 N       18   6 C                                       1.2926433
    18   6 C       19   6 C                                       1.4841430
    15   6 C       20   8 O                                       1.3805938
    18   6 C       20   8 O                                       1.3544652
     8   6 C       21   7 N                                       1.3579230
    22   6 C       24   6 C                                       1.4118725
     1   6 C       26   1 H                                       1.0941044
     1   6 C       27   1 H                                       1.0946394
     1   6 C       28   1 H                                       1.0888813
     6   6 C       29   1 H                                       1.0899008
     6   6 C       30   1 H                                       1.0894158
     6   6 C       31   1 H                                       1.0895328
    10   6 C       32   1 H                                       1.0899001
    10   6 C       33   1 H                                       1.0881742
    10   6 C       34   1 H                                       1.0899269
    11   6 C       35   1 H                                       1.0888043
    11   6 C       36   1 H                                       1.0897595
    11   6 C       37   1 H                                       1.0898714
    12   7 N       38   1 H                                       1.0160482
    19   6 C       39   1 H                                       1.0903371
    19   6 C       40   1 H                                       1.0875597
    19   6 C       41   1 H                                       1.0902825
    21   7 N       42   1 H                                       1.0094786 (min)

 * 5 distinct bonds (by element types)

   Z      Z             #   av. dist./Å        max./Å        min./Å
   1 H    6 C          15     1.0900727     1.0946394     1.0875597
   6 C    6 C           6     1.4884660     1.5375330     1.4118725
   1 H    7 N           2     1.0127634     1.0160482     1.0094786
   6 C    7 N           6     1.3562346     1.4629820     1.2835170
   6 C    8 O           5     1.3472448     1.4219662     1.2227853


optimized geometry written to: xtbopt.xyz


           -------------------------------------------------
          | TOTAL ENERGY              -83.613737160767 Eh   |
          | GRADIENT NORM               0.000809279644 Eh/α |
          | HOMO-LUMO GAP               0.037903485098 eV   |
           -------------------------------------------------

------------------------------------------------------------------------
 * finished run on 2023/06/21 at 17:04:51.026     
------------------------------------------------------------------------
 total:
 * wall-time:     0 d,  0 h,  0 min,  6.068 sec
 *  cpu-time:     0 d,  0 h,  0 min,  5.986 sec
 * ratio c/w:     0.986 speedup
 SCF:
 * wall-time:     0 d,  0 h,  0 min,  0.197 sec
 *  cpu-time:     0 d,  0 h,  0 min,  0.196 sec
 * ratio c/w:     0.992 speedup
 ANC optimizer:
 * wall-time:     0 d,  0 h,  0 min,  5.763 sec
 *  cpu-time:     0 d,  0 h,  0 min,  5.747 sec
 * ratio c/w:     0.997 speedup

