42
 energy: -82.993616012040 gnorm: 0.000841696940 xtb: 6.5.1 (579679a)
C           -3.42314278365265        1.57097576893268        1.61233924633038
O           -4.32027414684228        1.16941594284169        0.57812769933811
C           -4.04040713985068        0.32099776385075       -0.39562798838800
O           -5.04576830677273        0.12108855440865       -1.22128875345279
C           -6.28093813536245        0.80810292099644       -1.00707576784082
C           -2.83643050726586       -0.35470599313661       -0.62099635722041
N           -1.79390314722585       -0.12319771551706        0.27305302008431
C           -0.66794396840801       -0.71054204878715        0.12522777582985
C            0.46258589775676       -0.50381063360272        1.11145640392492
C            0.21931696775017        0.73812319007677        1.97109073647650
C            0.57499735768493       -1.76304263260639        1.98381609246422
N            1.68762046610949       -0.32448541988099        0.32199738725817
C            2.91209692877053       -0.17950238219638        0.87884620946785
O            3.17822929893077       -0.31090614366695        2.05893637696512
C            3.92390424564706        0.14826890940349       -0.15860575694776
N            3.69744392699403        0.30707398645483       -1.42814957023346
N            4.89428795700332        0.60520272241254       -2.00643911675311
C            5.77490103825943        0.61166738755142       -1.05158479610245
C            7.22332305403225        0.89267397921121       -1.15937348568183
O            5.22323323367289        0.33025911217184        0.13795205332654
N           -0.42041418319460       -1.60189135210584       -0.89582861005112
C           -1.33298824554794       -1.93834030044034       -1.86079096776563
O           -1.05232499640554       -2.73475133808719       -2.73709089483498
C           -2.68602022776523       -1.25223908061431       -1.74338777301084
O           -3.54689122821221       -1.49437881622971       -2.58139674656562
H           -3.11072088079358        0.71056931810088        2.20569306710539
H           -3.98444958340541        2.27033515624576        2.23212135754786
H           -2.54610291413847        2.06382941238116        1.19078564018395
H           -6.12744768481308        1.88758883745070       -1.06304336924694
H           -6.69441830520648        0.54885280489874       -0.03047999527993
H           -6.94997184543577        0.47949306751576       -1.80053929014465
H            0.11659460344903        1.61776411890584        1.33796088379624
H           -0.69454799915377        0.60646517555896        2.54673177922164
H            1.05179796479387        0.88423927082096        2.65700243049487
H            1.33375680059452       -1.62546639893150        2.75143953407047
H            0.84043319417884       -2.62195203773695        1.36954455833444
H           -0.38421959650853       -1.95127146046171        2.46378928546796
H            1.58589075966926       -0.04953512803758       -0.64424221709702
H            7.46014436584625        1.82050538383136       -0.63714250095373
H            7.79527057473615        0.08935881162479       -0.69521290409965
H            7.50148172639267        0.98672046744342       -2.20657564263749
H            0.48201646369021       -2.04955318105358       -0.94652403338192
