      -----------------------------------------------------------      
     |                   =====================                   |     
     |                           x T B                           |     
     |                   =====================                   |     
     |                         S. Grimme                         |     
     |          Mulliken Center for Theoretical Chemistry        |     
     |                    University of Bonn                     |     
      -----------------------------------------------------------      

   * xtb version 6.5.1 (579679a) compiled by 'ehlert@majestix' on 2022-07-11

   xtb is free software: you can redistribute it and/or modify it under
   the terms of the GNU Lesser General Public License as published by
   the Free Software Foundation, either version 3 of the License, or
   (at your option) any later version.
   
   xtb is distributed in the hope that it will be useful,
   but WITHOUT ANY WARRANTY; without even the implied warranty of
   MERCHANTABILITY or FITNESS FOR A PARTICULAR PURPOSE.  See the
   GNU Lesser General Public License for more details.
   
   Cite this work as:
   * C. Bannwarth, E. Caldeweyher, S. Ehlert, A. Hansen, P. Pracht,
     J. Seibert, S. Spicher, S. Grimme, WIREs Comput. Mol. Sci., 2020, 11,
     e01493. DOI: 10.1002/wcms.1493
   
   for GFN2-xTB:
   * C. Bannwarth, S. Ehlert and S. Grimme., J. Chem. Theory Comput., 2019,
     15, 1652-1671. DOI: 10.1021/acs.jctc.8b01176
   for GFN1-xTB:
   * S. Grimme, C. Bannwarth, P. Shushkov, J. Chem. Theory Comput., 2017,
     13, 1989-2009. DOI: 10.1021/acs.jctc.7b00118
   for GFN0-xTB:
   * P. Pracht, E. Caldeweyher, S. Ehlert, S. Grimme, ChemRxiv, 2019, preprint.
     DOI: 10.26434/chemrxiv.8326202.v1
   for GFN-FF:
   * S. Spicher and S. Grimme, Angew. Chem. Int. Ed., 2020, 59, 15665-15673.
     DOI: 10.1002/anie.202004239
   
   for ALPB and GBSA implicit solvation:
   * S. Ehlert, M. Stahn, S. Spicher, S. Grimme, J. Chem. Theory Comput.,
     2021, 17, 4250-4261. DOI: 10.1021/acs.jctc.1c00471
   
   for DFT-D4:
   * E. Caldeweyher, C. Bannwarth and S. Grimme, J. Chem. Phys., 2017,
     147, 034112. DOI: 10.1063/1.4993215
   * E. Caldeweyher, S. Ehlert, A. Hansen, H. Neugebauer, S. Spicher,
     C. Bannwarth and S. Grimme, J. Chem. Phys., 2019, 150, 154122.
     DOI: 10.1063/1.5090222
   * E. Caldeweyher, J.-M. Mewes, S. Ehlert and S. Grimme, Phys. Chem. Chem. Phys.
     2020, 22, 8499-8512. DOI: 10.1039/D0CP00502A
   
   for sTDA-xTB:
   * S. Grimme and C. Bannwarth, J. Chem. Phys., 2016, 145, 054103.
     DOI: 10.1063/1.4959605
   
   in the mass-spec context:
   * V. Asgeirsson, C. Bauer and S. Grimme, Chem. Sci., 2017, 8, 4879.
     DOI: 10.1039/c7sc00601b
   * J. Koopman and S. Grimme, ACS Omega 2019, 4, 12, 15120-15133.
     DOI: 10.1021/acsomega.9b02011
   
   for metadynamics refer to:
   * S. Grimme, J. Chem. Theory Comput., 2019, 155, 2847-2862
     DOI: 10.1021/acs.jctc.9b00143
   
   for SPH calculations refer to:
   * S. Spicher and S. Grimme, J. Chem. Theory Comput., 2021, 17, 1701-1714
     DOI: 10.1021/acs.jctc.0c01306
   
   with help from (in alphabetical order)
   P. Atkinson, C. Bannwarth, F. Bohle, G. Brandenburg, E. Caldeweyher
   M. Checinski, S. Dohm, S. Ehlert, S. Ehrlich, I. Gerasimov, C. Hölzer
   A. Katbashev, J. Koopman, C. Lavigne, S. Lehtola, F. März, M. Müller,
   F. Musil, H. Neugebauer, J. Pisarek, C. Plett, P. Pracht, F. Pultar,
   J. Seibert, P. Shushkov, S. Spicher, M. Stahn, M. Steiner, T. Strunk,
   J. Stückrath, T. Rose, and J. Unsleber
   
 * started run on 2023/06/20 at 15:17:02.243     

           -------------------------------------------------
          |                Calculation Setup                |
           -------------------------------------------------

          program call               : /lustre/hpc/kemi/ree/PhD/git/ReactivityQM/dep/xtb-6.5.1/bin/xtb --gfn 1 /lustre/hpc/kemi/ree/PhD/git/ReactivityQM/calculations/RaltegravirCLI/reac02prodN02/conf18/RaltegravirCLI_reac02prodN02_conf18_gfn1.xyz --opt --vfukui --chrg 1 --uhf 0 --alpb DMSO
          hostname                   : node308
          coordinate file            : /lustre/hpc/kemi/ree/PhD/git/ReactivityQM/calculations/RaltegravirCLI/reac02prodN02/conf18/RaltegravirCLI_reac02prodN02_conf18_gfn1.xyz
          omp threads                :                     1

   ID    Z sym.   atoms
    1    6 C      1, 3-6, 8, 9, 12-16, 18-20, 22, 25
    2    7 N      2, 7, 11, 24
    3    8 O      10, 21, 23
    4    9 F      17
    5    1 H      26-47

           -------------------------------------------------
          |                 G F N 1 - x T B                 |
           -------------------------------------------------

        Reference                      10.1021/acs.jctc.7b00118
      * Hamiltonian:
        H0-scaling (s, p, d)           1.850000    2.250000    2.000000
        zeta-weighting                 0.000000
      * Dispersion:
        s8                             2.400000
        a1                             0.630000
        a2                             5.000000
        s9                             0.000000
      * Repulsion:
        kExp                           1.500000
        rExp                           1.000000
      * Coulomb:
        alpha                          2.000000
        third order                    atomic
        anisotropic                    false
      * Halogen bond correction:
        rad-scale                      1.300000
        damping                        0.440000

      * Solvation model:               ALPB
        Solvent                        DMSO
        Parameter file                 internal GFN1-xTB/ALPB
        Dielectric constant                4.6680E+01
        Reference state                gsolv [1 M gas/solution]
        Free energy shift                  7.6243E-03 Eh       4.7843E+00 kcal/mol
        Temperature                        2.9815E+02 K
        Density                            1.1000E+00 kg/L
        Solvent mass                       7.8130E+01 g/mol
        Interaction kernel             P16
        Born radius scaling (c1)           1.7672E+00
        Born radii integrator          GBOBC
        Born offset                        0.0000E+00 a0       0.0000E+00 AA
        H-bond correction              true
        Ion screening                  false
        Surface tension                    1.0000E-05 Eh       1.5569E+01 dyn/cm
        Grid points                               230 per atom

          ...................................................
          :                      SETUP                      :
          :.................................................:
          :  # basis functions                 144          :
          :  # atomic orbitals                 144          :
          :  # shells                           94          :
          :  # electrons                       134          :
          :  # halogen bonds                     0          :
          :  max. iterations                   250          :
          :  Hamiltonian                  GFN1-xTB          :
          :  restarted?                      false          :
          :  GBSA solvation                   true          :
          :  PC potential                    false          :
          :  electronic temp.          300.0000000     K    :
          :  accuracy                    1.0000000          :
          :  -> integral cutoff          0.2500000E+02      :
          :  -> integral neglect         0.1000000E-07      :
          :  -> SCF convergence          0.1000000E-05 Eh   :
          :  -> wf. convergence          0.2000000E-04 e    :
          :  Broyden damping             0.4000000          :
          ...................................................

 iter      E             dE          RMSdq      gap      omega  full diag
   1    -80.1557943 -0.801558E+02  0.860E+00    2.99       0.0  T
   2    -80.4072628 -0.251469E+00  0.515E+00    2.74       1.0  T
   3    -80.3949954  0.122674E-01  0.118E+00    2.70       1.0  T
   4    -80.4161135 -0.211181E-01  0.182E-01    2.53       1.0  T
   5    -80.4174552 -0.134172E-02  0.474E-02    2.59       1.0  T
   6    -80.4175182 -0.629501E-04  0.128E-02    2.60       1.1  T
   7    -80.4175218 -0.363783E-05  0.474E-03    2.61       3.1  T
   8    -80.4175223 -0.492861E-06  0.124E-03    2.61      11.7  T
   9    -80.4175223 -0.246191E-07  0.359E-04    2.61      40.6  T
  10    -80.4175223 -0.227365E-08  0.945E-05    2.61     154.3  T
  11    -80.4175223 -0.135884E-09  0.271E-05    2.61     539.1  T

   *** convergence criteria satisfied after 11 iterations ***

         #    Occupation            Energy/Eh            Energy/eV
      -------------------------------------------------------------
         1        2.0000           -0.8879547             -24.1625
       ...           ...                  ...                  ...
        61        2.0000           -0.4739561             -12.8970
        62        2.0000           -0.4734798             -12.8840
        63        2.0000           -0.4554568             -12.3936
        64        2.0000           -0.4525926             -12.3157
        65        2.0000           -0.4477857             -12.1849
        66        2.0000           -0.4412294             -12.0065
        67        2.0000           -0.4330169             -11.7830 (HOMO)
        68                         -0.3372311              -9.1765 (LUMO)
        69                         -0.3075367              -8.3685
        70                         -0.2733877              -7.4393
        71                         -0.2704560              -7.3595
        72                         -0.2391390              -6.5073
       ...                                ...                  ...
       144                          0.7042056              19.1624
      -------------------------------------------------------------
                  HL-Gap            0.0957858 Eh            2.6065 eV
             Fermi-level           -0.3851240 Eh          -10.4798 eV

 SCC (total)                   0 d,  0 h,  0 min,  0.261 sec
 SCC setup                      ...        0 min,  0.003 sec (  0.987%)
 Dispersion                     ...        0 min,  0.001 sec (  0.200%)
 classical contributions        ...        0 min,  0.000 sec (  0.066%)
 integral evaluation            ...        0 min,  0.103 sec ( 39.660%)
 iterations                     ...        0 min,  0.052 sec ( 19.869%)
 molecular gradient             ...        0 min,  0.100 sec ( 38.500%)
 printout                       ...        0 min,  0.002 sec (  0.687%)

         :::::::::::::::::::::::::::::::::::::::::::::::::::::
         ::                     SUMMARY                     ::
         :::::::::::::::::::::::::::::::::::::::::::::::::::::
         :: total energy             -79.520084871947 Eh    ::
         :: total w/o Gsasa/hb       -79.491737898397 Eh    ::
         :: gradient norm              0.087247203602 Eh/a0 ::
         :: HOMO-LUMO gap              2.606464445514 eV    ::
         ::.................................................::
         :: SCC energy               -80.417522318917 Eh    ::
         :: -> electrostatic           0.345200118494 Eh    ::
         :: -> Gsolv                  -0.131845897296 Eh    ::
         ::    -> Gelec               -0.103498923747 Eh    ::
         ::    -> Gsasa               -0.025421950331 Eh    ::
         ::    -> Ghb                 -0.010549302223 Eh    ::
         ::    -> Gshift               0.007624279005 Eh    ::
         :: repulsion energy           0.927753070575 Eh    ::
         :: dispersion energy         -0.030315623605 Eh    ::
         :: halogen bond corr.         0.000000000000 Eh    ::
         :: add. restraining           0.000000000000 Eh    ::
         :: total charge               1.000000000000 e     ::
         :::::::::::::::::::::::::::::::::::::::::::::::::::::

      ----------------------------------------------------------- 
     |                   =====================                   |
     |                        A N C O P T                        |
     |                   =====================                   |
     |               Approximate Normal Coordinate               |
     |                Rational Function Optimizer                |
      ----------------------------------------------------------- 

          ...................................................
          :                      SETUP                      :
          :.................................................:
          :   optimization level            normal          :
          :   max. optcycles                   200          :
          :   ANC micro-cycles                  20          :
          :   degrees of freedom               135          :
          :.................................................:
          :   RF solver                   davidson          :
          :   write xtbopt.log                true          :
          :   linear?                        false          :
          :   energy convergence         0.5000000E-05 Eh   :
          :   grad. convergence          0.1000000E-02 Eh/α :
          :   maximium RF displ.         1.0000000          :
          :   Hlow (freq-cutoff)         0.1000000E-01      :
          :   Hmax (freq-cutoff)         5.0000000          :
          :   S6 in model hess.         20.0000000          :
          ...................................................

generating ANC from model Hessian ...
Using Lindh-Hessian (1995)
 Shifting diagonal of input Hessian by   9.810283609215662E-003
 Lowest  eigenvalues of input Hessian
    0.000000    0.000000    0.000000    0.000000    0.000000    0.000000
    0.010000    0.010192    0.010486    0.010669    0.011130    0.011649
    0.012086    0.013576    0.014731    0.015480    0.016498    0.016918
 Highest eigenvalues
    1.963328    2.039367    2.149903    2.193510    2.298249    2.394655
 

........................................................................
.............................. CYCLE    1 ..............................
........................................................................
   1    -80.4175223 -0.804175E+02  0.109E-05    2.61       0.0  T
   2    -80.4175223 -0.106581E-11  0.539E-06    2.61    2705.4  T
   3    -80.4175223 -0.142109E-13  0.295E-06    2.61    4952.7  T
     SCC iter.                  ...        0 min,  0.014 sec
     gradient                   ...        0 min,  0.099 sec
 * total energy  :   -79.5200849 Eh     change       -0.1085709E-10 Eh
   gradient norm :     0.0872471 Eh/α   predicted     0.0000000E+00 (-100.00%)
   displ. norm   :     0.3286744 α      lambda       -0.1446834E-01
   maximum displ.:     0.1061770 α      in ANC's #29, #31, #27, ...

........................................................................
.............................. CYCLE    2 ..............................
........................................................................
   1    -80.4239648 -0.804240E+02  0.622E-02    2.74       0.0  T
   2    -80.4241070 -0.142232E-03  0.280E-02    2.76       1.0  T
   3    -80.4241272 -0.201984E-04  0.139E-02    2.76       1.1  T
   4    -80.4241278 -0.568161E-06  0.469E-03    2.77       3.1  T
   5    -80.4241280 -0.186088E-06  0.910E-04    2.77      16.0  T
   6    -80.4241280 -0.205158E-07  0.201E-04    2.77      72.6  T
   7    -80.4241280 -0.127619E-08  0.828E-05    2.77     176.2  T
   8    -80.4241280 -0.905516E-10  0.246E-05    2.77     593.8  T
     SCC iter.                  ...        0 min,  0.035 sec
     gradient                   ...        0 min,  0.098 sec
 * total energy  :   -79.5299987 Eh     change       -0.9913811E-02 Eh
   gradient norm :     0.0380723 Eh/α   predicted    -0.8020306E-02 ( -19.10%)
   displ. norm   :     0.2820628 α      lambda       -0.4214297E-02
   maximum displ.:     0.1065259 α      in ANC's #31, #29, #19, ...

........................................................................
.............................. CYCLE    3 ..............................
........................................................................
   1    -80.4302073 -0.804302E+02  0.409E-02    2.86       0.0  T
   2    -80.4302748 -0.675366E-04  0.172E-02    2.87       1.0  T
   3    -80.4302831 -0.827240E-05  0.807E-03    2.88       1.8  T
   4    -80.4302833 -0.214987E-06  0.285E-03    2.88       5.1  T
   5    -80.4302833 -0.692424E-07  0.683E-04    2.88      21.3  T
   6    -80.4302834 -0.825086E-08  0.144E-04    2.88     101.3  T
   7    -80.4302834 -0.793463E-09  0.522E-05    2.88     279.5  T
     SCC iter.                  ...        0 min,  0.031 sec
     gradient                   ...        0 min,  0.098 sec
 * total energy  :   -79.5324650 Eh     change       -0.2466345E-02 Eh
   gradient norm :     0.0108686 Eh/α   predicted    -0.2275654E-02 (  -7.73%)
   displ. norm   :     0.1661916 α      lambda       -0.5386592E-03
   maximum displ.:     0.0825497 α      in ANC's #6, #18, #9, ...

........................................................................
.............................. CYCLE    4 ..............................
........................................................................
   1    -80.4319587 -0.804320E+02  0.102E-02    2.90       0.0  T
   2    -80.4319648 -0.609741E-05  0.462E-03    2.91       3.2  T
   3    -80.4319652 -0.355238E-06  0.218E-03    2.91       6.7  T
   4    -80.4319652 -0.134981E-07  0.815E-04    2.91      17.9  T
   5    -80.4319652 -0.580042E-08  0.241E-04    2.91      60.5  T
   6    -80.4319652 -0.101969E-08  0.561E-05    2.91     259.9  T
   7    -80.4319652 -0.441531E-10  0.191E-05    2.91     761.7  T
     SCC iter.                  ...        0 min,  0.031 sec
     gradient                   ...        0 min,  0.099 sec
 * total energy  :   -79.5328526 Eh     change       -0.3876029E-03 Eh
   gradient norm :     0.0060745 Eh/α   predicted    -0.2767696E-03 ( -28.59%)
   displ. norm   :     0.2014883 α      lambda       -0.3409841E-03
   maximum displ.:     0.1222689 α      in ANC's #6, #8, #18, ...

........................................................................
.............................. CYCLE    5 ..............................
........................................................................
   1    -80.4329037 -0.804329E+02  0.900E-03    2.92       0.0  T
   2    -80.4329096 -0.588874E-05  0.448E-03    2.92       3.3  T
   3    -80.4329100 -0.431971E-06  0.197E-03    2.92       7.4  T
   4    -80.4329100 -0.106507E-07  0.954E-04    2.92      15.3  T
   5    -80.4329100 -0.913226E-08  0.253E-04    2.92      57.6  T
   6    -80.4329100 -0.667328E-09  0.538E-05    2.92     271.3  T
   7    -80.4329100 -0.289333E-10  0.149E-05    2.92     980.5  T
     SCC iter.                  ...        0 min,  0.031 sec
     gradient                   ...        0 min,  0.098 sec
 * total energy  :   -79.5330790 Eh     change       -0.2264167E-03 Eh
   gradient norm :     0.0040480 Eh/α   predicted    -0.1774858E-03 ( -21.61%)
   displ. norm   :     0.1553647 α      lambda       -0.1407127E-03
   maximum displ.:     0.1009009 α      in ANC's #6, #8, #16, ...

........................................................................
.............................. CYCLE    6 ..............................
........................................................................
   1    -80.4333384 -0.804333E+02  0.448E-03    2.92       0.0  T
   2    -80.4333397 -0.134240E-05  0.211E-03    2.92       6.9  T
   3    -80.4333398 -0.111811E-06  0.857E-04    2.92      17.0  T
   4    -80.4333398 -0.198230E-08  0.446E-04    2.92      32.7  T
   5    -80.4333398 -0.197161E-08  0.109E-04    2.92     134.0  T
   6    -80.4333398 -0.922711E-10  0.279E-05    2.92     523.6  T
     SCC iter.                  ...        0 min,  0.027 sec
     gradient                   ...        0 min,  0.098 sec
 * total energy  :   -79.5331875 Eh     change       -0.1084249E-03 Eh
   gradient norm :     0.0039861 Eh/α   predicted    -0.7207576E-04 ( -33.52%)
   displ. norm   :     0.2047606 α      lambda       -0.1534610E-03
   maximum displ.:     0.1247002 α      in ANC's #6, #16, #8, ...

........................................................................
.............................. CYCLE    7 ..............................
........................................................................
   1    -80.4335920 -0.804336E+02  0.406E-03    2.92       0.0  T
   2    -80.4335929 -0.840268E-06  0.187E-03    2.92       7.8  T
   3    -80.4335930 -0.705975E-07  0.813E-04    2.92      17.9  T
   4    -80.4335930 -0.157033E-08  0.338E-04    2.92      43.2  T
   5    -80.4335930 -0.114962E-08  0.872E-05    2.92     167.3  T
   6    -80.4335930 -0.374314E-10  0.216E-05    2.92     676.6  T
     SCC iter.                  ...        0 min,  0.027 sec
     gradient                   ...        0 min,  0.100 sec
 * total energy  :   -79.5333054 Eh     change       -0.1179520E-03 Eh
   gradient norm :     0.0036808 Eh/α   predicted    -0.7995125E-04 ( -32.22%)
   displ. norm   :     0.2702837 α      lambda       -0.1612143E-03
   maximum displ.:     0.1535312 α      in ANC's #6, #1, #16, ...

........................................................................
.............................. CYCLE    8 ..............................
........................................................................
   1    -80.4334762 -0.804335E+02  0.438E-03    2.91       0.0  T
   2    -80.4334770 -0.849187E-06  0.203E-03    2.91       7.2  T
   3    -80.4334771 -0.753855E-07  0.962E-04    2.91      15.2  T
   4    -80.4334771 -0.364572E-08  0.352E-04    2.91      41.5  T
   5    -80.4334771 -0.122249E-08  0.109E-04    2.91     133.7  T
   6    -80.4334771 -0.140517E-09  0.311E-05    2.91     469.4  T
     SCC iter.                  ...        0 min,  0.027 sec
     gradient                   ...        0 min,  0.100 sec
 * total energy  :   -79.5334257 Eh     change       -0.1202334E-03 Eh
   gradient norm :     0.0036097 Eh/α   predicted    -0.8650015E-04 ( -28.06%)
   displ. norm   :     0.2813560 α      lambda       -0.1378541E-03
   maximum displ.:     0.1445840 α      in ANC's #6, #1, #11, ...

........................................................................
.............................. CYCLE    9 ..............................
........................................................................
   1    -80.4333757 -0.804334E+02  0.429E-03    2.90       0.0  T
   2    -80.4333764 -0.769967E-06  0.192E-03    2.90       7.6  T
   3    -80.4333765 -0.709648E-07  0.962E-04    2.90      15.2  T
   4    -80.4333765 -0.532442E-08  0.377E-04    2.90      38.7  T
   5    -80.4333765 -0.121580E-08  0.115E-04    2.90     127.3  T
   6    -80.4333765 -0.140105E-09  0.288E-05    2.90     505.7  T
     SCC iter.                  ...        0 min,  0.027 sec
     gradient                   ...        0 min,  0.101 sec
 * total energy  :   -79.5335269 Eh     change       -0.1012410E-03 Eh
   gradient norm :     0.0043537 Eh/α   predicted    -0.7438767E-04 ( -26.52%)
   displ. norm   :     0.2676069 α      lambda       -0.1294933E-03
   maximum displ.:     0.1161847 α      in ANC's #6, #11, #1, ...

........................................................................
.............................. CYCLE   10 ..............................
........................................................................
   1    -80.4337463 -0.804337E+02  0.389E-03    2.90       0.0  T
   2    -80.4337468 -0.484018E-06  0.162E-03    2.90       9.0  T
   3    -80.4337468 -0.344044E-07  0.824E-04    2.90      17.7  T
   4    -80.4337468 -0.376336E-08  0.330E-04    2.90      44.2  T
   5    -80.4337468 -0.135458E-08  0.906E-05    2.90     161.0  T
   6    -80.4337468 -0.736122E-10  0.236E-05    2.90     617.1  T
     SCC iter.                  ...        0 min,  0.027 sec
     gradient                   ...        0 min,  0.101 sec
 * total energy  :   -79.5336276 Eh     change       -0.1006597E-03 Eh
   gradient norm :     0.0050382 Eh/α   predicted    -0.6938641E-04 ( -31.07%)
   displ. norm   :     0.3499880 α      lambda       -0.1690450E-03
   maximum displ.:     0.1388222 α      in ANC's #11, #7, #6, ...

........................................................................
.............................. CYCLE   11 ..............................
........................................................................
   1    -80.4335927 -0.804336E+02  0.525E-03    2.89       0.0  T
   2    -80.4335934 -0.696686E-06  0.190E-03    2.90       7.7  T
   3    -80.4335935 -0.280417E-07  0.920E-04    2.90      15.9  T
   4    -80.4335935 -0.239666E-08  0.282E-04    2.90      51.7  T
   5    -80.4335935 -0.834291E-09  0.724E-05    2.90     201.5  T
   6    -80.4335935 -0.793250E-10  0.268E-05    2.90     544.9  T
     SCC iter.                  ...        0 min,  0.028 sec
     gradient                   ...        0 min,  0.100 sec
 * total energy  :   -79.5337567 Eh     change       -0.1291201E-03 Eh
   gradient norm :     0.0064566 Eh/α   predicted    -0.9487695E-04 ( -26.52%)
   displ. norm   :     0.2986325 α      lambda       -0.1773066E-03
   maximum displ.:     0.1534900 α      in ANC's #7, #11, #1, ...

........................................................................
.............................. CYCLE   12 ..............................
........................................................................
   1    -80.4349773 -0.804350E+02  0.621E-03    2.90       0.0  T
   2    -80.4349789 -0.166537E-05  0.245E-03    2.90       6.0  T
   3    -80.4349791 -0.118016E-06  0.127E-03    2.90      11.4  T
   4    -80.4349791 -0.534740E-08  0.516E-04    2.90      28.3  T
   5    -80.4349791 -0.292165E-08  0.125E-04    2.90     116.8  T
   6    -80.4349791 -0.391623E-09  0.295E-05    2.90     495.0  T
     SCC iter.                  ...        0 min,  0.023 sec
     gradient                   ...        0 min,  0.101 sec
 * total energy  :   -79.5338797 Eh     change       -0.1229896E-03 Eh
   gradient norm :     0.0054344 Eh/α   predicted    -0.9658063E-04 ( -21.47%)
   displ. norm   :     0.3738271 α      lambda       -0.1594063E-03
   maximum displ.:     0.1602038 α      in ANC's #7, #1, #11, ...

........................................................................
.............................. CYCLE   13 ..............................
........................................................................
   1    -80.4318260 -0.804318E+02  0.824E-03    2.91       0.0  T
   2    -80.4318277 -0.171750E-05  0.354E-03    2.91       4.1  T
   3    -80.4318279 -0.155746E-06  0.192E-03    2.91       7.6  T
   4    -80.4318279 -0.117611E-07  0.527E-04    2.91      27.7  T
   5    -80.4318279 -0.350464E-08  0.134E-04    2.91     108.7  T
   6    -80.4318279 -0.567510E-09  0.380E-05    2.91     384.0  T
     SCC iter.                  ...        0 min,  0.027 sec
     gradient                   ...        0 min,  0.099 sec
 * total energy  :   -79.5339601 Eh     change       -0.8047720E-04 Eh
   gradient norm :     0.0083004 Eh/α   predicted    -0.9084256E-04 (  12.88%)
   displ. norm   :     0.2170810 α      lambda       -0.2361529E-03
   maximum displ.:     0.1115811 α      in ANC's #8, #7, #9, ...

........................................................................
.............................. CYCLE   14 ..............................
........................................................................
   1    -80.4357388 -0.804357E+02  0.114E-02    2.93       0.0  T
   2    -80.4357443 -0.548603E-05  0.539E-03    2.93       2.7  T
   3    -80.4357448 -0.480582E-06  0.307E-03    2.94       4.8  T
   4    -80.4357448 -0.142201E-07  0.101E-03    2.94      14.5  T
   5    -80.4357448 -0.106720E-07  0.218E-04    2.94      67.0  T
   6    -80.4357448 -0.205375E-08  0.408E-05    2.94     357.2  T
   7    -80.4357448 -0.494538E-10  0.133E-05    2.94    1096.8  T
     SCC iter.                  ...        0 min,  0.031 sec
     gradient                   ...        0 min,  0.099 sec
 * total energy  :   -79.5340554 Eh     change       -0.9523870E-04 Eh
   gradient norm :     0.0059404 Eh/α   predicted    -0.1236516E-03 (  29.83%)
   displ. norm   :     0.1320534 α      lambda       -0.7524379E-04
   maximum displ.:     0.0586826 α      in ANC's #6, #1, #11, ...

........................................................................
.............................. CYCLE   15 ..............................
........................................................................
   1    -80.4343887 -0.804344E+02  0.409E-03    2.93       0.0  T
   2    -80.4343893 -0.598480E-06  0.190E-03    2.93       7.7  T
   3    -80.4343894 -0.361601E-07  0.104E-03    2.93      14.0  T
   4    -80.4343894 -0.611095E-09  0.173E-04    2.93      84.5  T
   5    -80.4343894 -0.275364E-09  0.357E-05    2.93     408.9  T
     SCC iter.                  ...        0 min,  0.023 sec
     gradient                   ...        0 min,  0.097 sec
 * total energy  :   -79.5341101 Eh     change       -0.5472479E-04 Eh
   gradient norm :     0.0029413 Eh/α   predicted    -0.3828021E-04 ( -30.05%)
   displ. norm   :     0.1427822 α      lambda       -0.7782448E-04
   maximum displ.:     0.0652973 α      in ANC's #6, #1, #4, ...

........................................................................
.............................. CYCLE   16 ..............................
........................................................................
   1    -80.4339546 -0.804340E+02  0.446E-03    2.92       0.0  T
   2    -80.4339555 -0.986255E-06  0.174E-03    2.92       8.4  T
   3    -80.4339556 -0.370749E-07  0.886E-04    2.92      16.5  T
   4    -80.4339556 -0.804221E-09  0.284E-04    2.92      51.3  T
   5    -80.4339556 -0.539146E-09  0.725E-05    2.92     201.1  T
   6    -80.4339556 -0.187939E-09  0.191E-05    2.92     765.5  T
     SCC iter.                  ...        0 min,  0.027 sec
     gradient                   ...        0 min,  0.092 sec
 * total energy  :   -79.5341625 Eh     change       -0.5243683E-04 Eh
   gradient norm :     0.0029820 Eh/α   predicted    -0.3970662E-04 ( -24.28%)
   displ. norm   :     0.1493436 α      lambda       -0.4956921E-04
   maximum displ.:     0.0677784 α      in ANC's #1, #4, #6, ...

........................................................................
.............................. CYCLE   17 ..............................
........................................................................
   1    -80.4339388 -0.804339E+02  0.239E-03    2.92       0.0  T
   2    -80.4339390 -0.239285E-06  0.955E-04    2.92      15.3  T
   3    -80.4339390 -0.102851E-07  0.503E-04    2.92      29.0  T
   4    -80.4339390 -0.125340E-09  0.195E-04    2.92      74.7  T
   5    -80.4339390 -0.639972E-09  0.436E-05    2.92     334.8  T
     SCC iter.                  ...        0 min,  0.023 sec
     gradient                   ...        0 min,  0.095 sec
 * total energy  :   -79.5342025 Eh     change       -0.3994741E-04 Eh
   gradient norm :     0.0038922 Eh/α   predicted    -0.2534032E-04 ( -36.57%)
   displ. norm   :     0.2636663 α      lambda       -0.8711548E-04
   maximum displ.:     0.1173650 α      in ANC's #1, #4, #6, ...

........................................................................
.............................. CYCLE   18 ..............................
........................................................................
   1    -80.4341297 -0.804341E+02  0.293E-03    2.92       0.0  T
   2    -80.4341300 -0.320413E-06  0.133E-03    2.92      11.0  T
   3    -80.4341300 -0.265425E-07  0.692E-04    2.92      21.1  T
   4    -80.4341300 -0.142951E-08  0.287E-04    2.92      50.8  T
   5    -80.4341300 -0.102845E-08  0.557E-05    2.92     261.6  T
   6    -80.4341300 -0.526654E-10  0.192E-05    2.92     759.2  T
     SCC iter.                  ...        0 min,  0.020 sec
     gradient                   ...        0 min,  0.057 sec
 * total energy  :   -79.5342713 Eh     change       -0.6881408E-04 Eh
   gradient norm :     0.0044003 Eh/α   predicted    -0.4658779E-04 ( -32.30%)
   displ. norm   :     0.3895276 α      lambda       -0.1113275E-03
   maximum displ.:     0.1737706 α      in ANC's #1, #4, #11, ...

........................................................................
.............................. CYCLE   19 ..............................
........................................................................
   1    -80.4330305 -0.804330E+02  0.382E-03    2.92       0.0  T
   2    -80.4330310 -0.494546E-06  0.175E-03    2.92       8.4  T
   3    -80.4330310 -0.454527E-07  0.844E-04    2.92      17.3  T
   4    -80.4330310 -0.173758E-08  0.266E-04    2.92      54.9  T
   5    -80.4330310 -0.128952E-08  0.731E-05    2.92     199.6  T
   6    -80.4330310 -0.675868E-10  0.277E-05    2.92     525.9  T
     SCC iter.                  ...        0 min,  0.020 sec
     gradient                   ...        0 min,  0.078 sec
 * total energy  :   -79.5343545 Eh     change       -0.8315427E-04 Eh
   gradient norm :     0.0050798 Eh/α   predicted    -0.6411038E-04 ( -22.90%)
   displ. norm   :     0.3562833 α      lambda       -0.1275849E-03
   maximum displ.:     0.1613407 α      in ANC's #4, #1, #16, ...

........................................................................
.............................. CYCLE   20 ..............................
........................................................................
   1    -80.4342134 -0.804342E+02  0.626E-03    2.92       0.0  T
   2    -80.4342154 -0.193993E-05  0.251E-03    2.92       5.8  T
   3    -80.4342155 -0.912397E-07  0.126E-03    2.92      11.6  T
   4    -80.4342155 -0.223108E-08  0.453E-04    2.92      32.2  T
   5    -80.4342155 -0.246285E-08  0.134E-04    2.92     109.1  T
   6    -80.4342155 -0.495163E-09  0.306E-05    2.92     476.9  T
     SCC iter.                  ...        0 min,  0.028 sec
     gradient                   ...        0 min,  0.061 sec
 * total energy  :   -79.5344340 Eh     change       -0.7955330E-04 Eh
   gradient norm :     0.0058272 Eh/α   predicted    -0.7189211E-04 (  -9.63%)
   displ. norm   :     0.3801879 α      lambda       -0.1246850E-03
   maximum displ.:     0.1737183 α      in ANC's #1, #4, #6, ...
 * RMSD in coord.:     0.5517826 α      energy gain  -0.1434914E-01 Eh

generating ANC from model Hessian ...
Using Lindh-Hessian (1995)
 Shifting diagonal of input Hessian by   9.993876459370880E-003
 Lowest  eigenvalues of input Hessian
    0.000000    0.000000    0.000000    0.000000    0.000000    0.000000
    0.010000    0.010230    0.010331    0.010744    0.011020    0.011612
    0.011974    0.013269    0.014721    0.015433    0.016227    0.016472
 Highest eigenvalues
    1.993178    2.015553    2.092952    2.212458    2.331307    2.399321
 

........................................................................
.............................. CYCLE   21 ..............................
........................................................................
   1    -80.4318930 -0.804319E+02  0.798E-03    2.93       0.0  T
   2    -80.4318955 -0.253145E-05  0.351E-03    2.93       4.2  T
   3    -80.4318957 -0.146254E-06  0.184E-03    2.93       7.9  T
   4    -80.4318957 -0.227600E-08  0.485E-04    2.93      30.1  T
   5    -80.4318957 -0.289464E-08  0.111E-04    2.93     132.0  T
   6    -80.4318957 -0.298655E-09  0.330E-05    2.93     442.3  T
     SCC iter.                  ...        0 min,  0.028 sec
     gradient                   ...        0 min,  0.091 sec
 * total energy  :   -79.5345122 Eh     change       -0.7819713E-04 Eh
   gradient norm :     0.0053872 Eh/α   predicted     0.0000000E+00 (-100.00%)
   displ. norm   :     0.0388031 α      lambda       -0.7604645E-04
   maximum displ.:     0.0169785 α      in ANC's #5, #4, #7, ...

........................................................................
.............................. CYCLE   22 ..............................
........................................................................
   1    -80.4352393 -0.804352E+02  0.420E-03    2.93       0.0  T
   2    -80.4352396 -0.289196E-06  0.216E-03    2.93       6.8  T
   3    -80.4352396 -0.164783E-07  0.116E-03    2.93      12.6  T
   4    -80.4352397 -0.425891E-08  0.180E-04    2.93      81.0  T
   5    -80.4352397 -0.706606E-09  0.521E-05    2.93     280.1  T
     SCC iter.                  ...        0 min,  0.024 sec
     gradient                   ...        0 min,  0.097 sec
 * total energy  :   -79.5345644 Eh     change       -0.5222219E-04 Eh
   gradient norm :     0.0016072 Eh/α   predicted    -0.3808217E-04 ( -27.08%)
   displ. norm   :     0.0923338 α      lambda       -0.3712688E-04
   maximum displ.:     0.0472508 α      in ANC's #5, #4, #2, ...

........................................................................
.............................. CYCLE   23 ..............................
........................................................................
   1    -80.4378380 -0.804378E+02  0.372E-03    2.93       0.0  T
   2    -80.4378382 -0.256745E-06  0.180E-03    2.93       8.1  T
   3    -80.4378382 -0.147375E-07  0.992E-04    2.93      14.7  T
   4    -80.4378382 -0.354839E-08  0.194E-04    2.93      75.2  T
   5    -80.4378382 -0.677971E-09  0.426E-05    2.93     342.6  T
     SCC iter.                  ...        0 min,  0.024 sec
     gradient                   ...        0 min,  0.097 sec
 * total energy  :   -79.5345962 Eh     change       -0.3178239E-04 Eh
   gradient norm :     0.0024667 Eh/α   predicted    -0.1863561E-04 ( -41.36%)
   displ. norm   :     0.0574277 α      lambda       -0.2093497E-04
   maximum displ.:     0.0300162 α      in ANC's #5, #4, #2, ...

........................................................................
.............................. CYCLE   24 ..............................
........................................................................
   1    -80.4373946 -0.804374E+02  0.874E-04    2.93       0.0  T
   2    -80.4373946 -0.261583E-07  0.351E-04    2.93      41.6  T
   3    -80.4373946 -0.109617E-08  0.191E-04    2.93      76.6  T
   4    -80.4373946 -0.344187E-10  0.475E-05    2.93     306.8  T
     SCC iter.                  ...        0 min,  0.019 sec
     gradient                   ...        0 min,  0.096 sec
 * total energy  :   -79.5346151 Eh     change       -0.1887286E-04 Eh
   gradient norm :     0.0020441 Eh/α   predicted    -0.1056321E-04 ( -44.03%)
   displ. norm   :     0.1570877 α      lambda       -0.5119999E-04
   maximum displ.:     0.0824861 α      in ANC's #4, #5, #2, ...

........................................................................
.............................. CYCLE   25 ..............................
........................................................................
   1    -80.4358598 -0.804359E+02  0.216E-03    2.93       0.0  T
   2    -80.4358599 -0.102156E-06  0.104E-03    2.93      14.1  T
   3    -80.4358599 -0.433279E-08  0.557E-04    2.93      26.2  T
   4    -80.4358599 -0.331625E-09  0.100E-04    2.93     145.2  T
   5    -80.4358599 -0.170246E-09  0.306E-05    2.93     476.0  T
     SCC iter.                  ...        0 min,  0.021 sec
     gradient                   ...        0 min,  0.091 sec
 * total energy  :   -79.5346534 Eh     change       -0.3829130E-04 Eh
   gradient norm :     0.0012332 Eh/α   predicted    -0.2623278E-04 ( -31.49%)
   displ. norm   :     0.2375002 α      lambda       -0.3297340E-04
   maximum displ.:     0.1280676 α      in ANC's #4, #5, #2, ...

........................................................................
.............................. CYCLE   26 ..............................
........................................................................
   1    -80.4342083 -0.804342E+02  0.239E-03    2.93       0.0  T
   2    -80.4342084 -0.100568E-06  0.116E-03    2.93      12.5  T
   3    -80.4342084 -0.372575E-08  0.593E-04    2.93      24.6  T
   4    -80.4342084 -0.472397E-09  0.104E-04    2.93     140.3  T
   5    -80.4342084 -0.117097E-09  0.305E-05    2.93     479.0  T
     SCC iter.                  ...        0 min,  0.023 sec
     gradient                   ...        0 min,  0.082 sec
 * total energy  :   -79.5346850 Eh     change       -0.3157840E-04 Eh
   gradient norm :     0.0024332 Eh/α   predicted    -0.1690028E-04 ( -46.48%)
   displ. norm   :     0.0934691 α      lambda       -0.2355644E-04
   maximum displ.:     0.0505533 α      in ANC's #4, #5, #2, ...

........................................................................
.............................. CYCLE   27 ..............................
........................................................................
   1    -80.4345133 -0.804345E+02  0.897E-04    2.93       0.0  T
   2    -80.4345134 -0.302203E-07  0.321E-04    2.93      45.4  T
   3    -80.4345134 -0.192955E-08  0.170E-04    2.93      86.0  T
   4    -80.4345134 -0.216389E-09  0.681E-05    2.93     214.1  T
     SCC iter.                  ...        0 min,  0.017 sec
     gradient                   ...        0 min,  0.055 sec
 * total energy  :   -79.5347070 Eh     change       -0.2208590E-04 Eh
   gradient norm :     0.0021986 Eh/α   predicted    -0.1188132E-04 ( -46.20%)
   displ. norm   :     0.3179719 α      lambda       -0.9310764E-04
   maximum displ.:     0.1684616 α      in ANC's #4, #2, #5, ...

........................................................................
.............................. CYCLE   28 ..............................
........................................................................
   1    -80.4355982 -0.804356E+02  0.299E-03    2.93       0.0  T
   2    -80.4355985 -0.274294E-06  0.112E-03    2.93      13.1  T
   3    -80.4355985 -0.148589E-07  0.594E-04    2.93      24.6  T
   4    -80.4355985 -0.183698E-08  0.201E-04    2.93      72.7  T
   5    -80.4355985 -0.390457E-09  0.550E-05    2.93     265.3  T
   6    -80.4355985 -0.384830E-10  0.148E-05    2.93     985.9  T
     SCC iter.                  ...        0 min,  0.025 sec
     gradient                   ...        0 min,  0.075 sec
 * total energy  :   -79.5347804 Eh     change       -0.7333331E-04 Eh
   gradient norm :     0.0017698 Eh/α   predicted    -0.5126304E-04 ( -30.10%)
   displ. norm   :     0.5696387 α      lambda       -0.7429256E-04
   maximum displ.:     0.3009953 α      in ANC's #4, #2, #5, ...

........................................................................
.............................. CYCLE   29 ..............................
........................................................................
   1    -80.4347533 -0.804348E+02  0.377E-03    2.92       0.0  T
   2    -80.4347536 -0.343296E-06  0.160E-03    2.92       9.1  T
   3    -80.4347536 -0.181952E-07  0.818E-04    2.92      17.8  T
   4    -80.4347537 -0.252041E-08  0.228E-04    2.92      63.8  T
   5    -80.4347537 -0.478622E-09  0.694E-05    2.92     210.1  T
   6    -80.4347537 -0.929816E-10  0.215E-05    2.92     677.5  T
     SCC iter.                  ...        0 min,  0.020 sec
     gradient                   ...        0 min,  0.055 sec
 * total energy  :   -79.5348452 Eh     change       -0.6477523E-04 Eh
   gradient norm :     0.0030586 Eh/α   predicted    -0.4250771E-04 ( -34.38%)
   displ. norm   :     0.1319688 α      lambda       -0.3750237E-04
   maximum displ.:     0.0747516 α      in ANC's #2, #4, #5, ...

........................................................................
.............................. CYCLE   30 ..............................
........................................................................
   1    -80.4358402 -0.804358E+02  0.192E-03    2.92       0.0  T
   2    -80.4358403 -0.885143E-07  0.936E-04    2.92      15.6  T
   3    -80.4358403 -0.731610E-08  0.501E-04    2.92      29.1  T
   4    -80.4358403 -0.711509E-09  0.144E-04    2.92     101.2  T
   5    -80.4358403 -0.387743E-09  0.248E-05    2.92     588.0  T
     SCC iter.                  ...        0 min,  0.015 sec
     gradient                   ...        0 min,  0.059 sec
 * total energy  :   -79.5348776 Eh     change       -0.3248083E-04 Eh
   gradient norm :     0.0020839 Eh/α   predicted    -0.1908642E-04 ( -41.24%)
   displ. norm   :     0.3447504 α      lambda       -0.8216556E-04
   maximum displ.:     0.1941133 α      in ANC's #2, #4, #5, ...

........................................................................
.............................. CYCLE   31 ..............................
........................................................................
   1    -80.4365966 -0.804366E+02  0.385E-03    2.93       0.0  T
   2    -80.4365971 -0.522382E-06  0.158E-03    2.93       9.2  T
   3    -80.4365971 -0.439821E-07  0.739E-04    2.93      19.7  T
   4    -80.4365972 -0.205159E-08  0.311E-04    2.93      46.9  T
   5    -80.4365972 -0.106004E-08  0.550E-05    2.93     265.1  T
   6    -80.4365972 -0.741096E-10  0.177E-05    2.93     822.6  T
     SCC iter.                  ...        0 min,  0.021 sec
     gradient                   ...        0 min,  0.094 sec
 * total energy  :   -79.5349454 Eh     change       -0.6774947E-04 Eh
   gradient norm :     0.0013372 Eh/α   predicted    -0.4596782E-04 ( -32.15%)
   displ. norm   :     0.7222300 α      lambda       -0.8410594E-04
   maximum displ.:     0.4068298 α      in ANC's #2, #4, #5, ...

........................................................................
.............................. CYCLE   32 ..............................
........................................................................
   1    -80.4328628 -0.804329E+02  0.559E-03    2.93       0.0  T
   2    -80.4328636 -0.790011E-06  0.247E-03    2.93       5.9  T
   3    -80.4328637 -0.538259E-07  0.134E-03    2.93      10.9  T
   4    -80.4328637 -0.734681E-08  0.379E-04    2.93      38.5  T
   5    -80.4328637 -0.195348E-08  0.952E-05    2.92     153.2  T
   6    -80.4328637 -0.236881E-09  0.348E-05    2.92     419.7  T
     SCC iter.                  ...        0 min,  0.023 sec
     gradient                   ...        0 min,  0.099 sec
 * total energy  :   -79.5350131 Eh     change       -0.6767950E-04 Eh
   gradient norm :     0.0047652 Eh/α   predicted    -0.5180613E-04 ( -23.45%)
   displ. norm   :     0.0803665 α      lambda       -0.5074963E-04
   maximum displ.:     0.0519774 α      in ANC's #2, #1, #4, ...

........................................................................
.............................. CYCLE   33 ..............................
........................................................................
   1    -80.4351499 -0.804351E+02  0.267E-03    2.93       0.0  T
   2    -80.4351500 -0.573163E-07  0.145E-03    2.93      10.1  T
   3    -80.4351500 -0.982411E-09  0.626E-04    2.93      23.3  T
   4    -80.4351500 -0.121899E-08  0.105E-04    2.93     139.0  T
   5    -80.4351500 -0.384361E-09  0.232E-05    2.93     630.0  T
     SCC iter.                  ...        0 min,  0.018 sec
     gradient                   ...        0 min,  0.095 sec
 * total energy  :   -79.5350492 Eh     change       -0.3609929E-04 Eh
   gradient norm :     0.0031591 Eh/α   predicted    -0.2554027E-04 ( -29.25%)
   displ. norm   :     0.2369064 α      lambda       -0.5061807E-04
   maximum displ.:     0.1539332 α      in ANC's #2, #4, #1, ...

........................................................................
.............................. CYCLE   34 ..............................
........................................................................
   1    -80.4360892 -0.804361E+02  0.230E-03    2.93       0.0  T
   2    -80.4360893 -0.164724E-06  0.949E-04    2.93      15.4  T
   3    -80.4360893 -0.934079E-08  0.485E-04    2.93      30.1  T
   4    -80.4360894 -0.671946E-09  0.172E-04    2.93      84.6  T
   5    -80.4360894 -0.356366E-09  0.396E-05    2.93     367.9  T
     SCC iter.                  ...        0 min,  0.020 sec
     gradient                   ...        0 min,  0.093 sec
 * total energy  :   -79.5350895 Eh     change       -0.4031464E-04 Eh
   gradient norm :     0.0019782 Eh/α   predicted    -0.2673142E-04 ( -33.69%)
   displ. norm   :     0.4957861 α      lambda       -0.5558179E-04
   maximum displ.:     0.3181734 α      in ANC's #2, #4, #1, ...

........................................................................
.............................. CYCLE   35 ..............................
........................................................................
   1    -80.4351109 -0.804351E+02  0.492E-03    2.93       0.0  T
   2    -80.4351117 -0.767883E-06  0.180E-03    2.93       8.1  T
   3    -80.4351117 -0.371129E-07  0.943E-04    2.93      15.5  T
   4    -80.4351117 -0.254560E-08  0.310E-04    2.93      47.1  T
   5    -80.4351117 -0.791530E-09  0.739E-05    2.93     197.5  T
   6    -80.4351117 -0.135827E-09  0.253E-05    2.93     577.7  T
     SCC iter.                  ...        0 min,  0.024 sec
     gradient                   ...        0 min,  0.088 sec
 * total energy  :   -79.5351470 Eh     change       -0.5753157E-04 Eh
   gradient norm :     0.0021724 Eh/α   predicted    -0.3083186E-04 ( -46.41%)
   displ. norm   :     0.2101575 α      lambda       -0.2938358E-04
   maximum displ.:     0.1393423 α      in ANC's #2, #4, #1, ...

........................................................................
.............................. CYCLE   36 ..............................
........................................................................
   1    -80.4352324 -0.804352E+02  0.135E-03    2.93       0.0  T
   2    -80.4352325 -0.564075E-07  0.448E-04    2.93      32.6  T
   3    -80.4352325 -0.299259E-08  0.235E-04    2.93      62.0  T
   4    -80.4352325 -0.356877E-09  0.921E-05    2.93     158.3  T
   5    -80.4352325 -0.700169E-10  0.235E-05    2.93     622.0  T
     SCC iter.                  ...        0 min,  0.019 sec
     gradient                   ...        0 min,  0.098 sec
 * total energy  :   -79.5351709 Eh     change       -0.2390866E-04 Eh
   gradient norm :     0.0023403 Eh/α   predicted    -0.1534196E-04 ( -35.83%)
   displ. norm   :     0.2869959 α      lambda       -0.4762430E-04
   maximum displ.:     0.1907952 α      in ANC's #2, #4, #1, ...

........................................................................
.............................. CYCLE   37 ..............................
........................................................................
   1    -80.4360564 -0.804361E+02  0.196E-03    2.93       0.0  T
   2    -80.4360565 -0.917739E-07  0.802E-04    2.93      18.2  T
   3    -80.4360565 -0.377368E-08  0.419E-04    2.93      34.8  T
   4    -80.4360565 -0.441446E-09  0.128E-04    2.93     114.3  T
   5    -80.4360565 -0.279798E-09  0.314E-05    2.93     463.9  T
     SCC iter.                  ...        0 min,  0.019 sec
     gradient                   ...        0 min,  0.096 sec
 * total energy  :   -79.5352048 Eh     change       -0.3385174E-04 Eh
   gradient norm :     0.0024696 Eh/α   predicted    -0.2577811E-04 ( -23.85%)
   displ. norm   :     0.2526602 α      lambda       -0.3996826E-04
   maximum displ.:     0.1627770 α      in ANC's #2, #4, #1, ...

........................................................................
.............................. CYCLE   38 ..............................
........................................................................
   1    -80.4359941 -0.804360E+02  0.161E-03    2.93       0.0  T
   2    -80.4359942 -0.668352E-07  0.693E-04    2.93      21.0  T
   3    -80.4359942 -0.281294E-08  0.342E-04    2.93      42.6  T
   4    -80.4359942 -0.333074E-09  0.894E-05    2.93     163.1  T
   5    -80.4359942 -0.559339E-10  0.258E-05    2.93     566.3  T
     SCC iter.                  ...        0 min,  0.020 sec
     gradient                   ...        0 min,  0.095 sec
 * total energy  :   -79.5352372 Eh     change       -0.3244149E-04 Eh
   gradient norm :     0.0023468 Eh/α   predicted    -0.2126301E-04 ( -34.46%)
   displ. norm   :     0.3081918 α      lambda       -0.6861986E-04
   maximum displ.:     0.1828236 α      in ANC's #2, #4, #1, ...

........................................................................
.............................. CYCLE   39 ..............................
........................................................................
   1    -80.4375714 -0.804376E+02  0.383E-03    2.93       0.0  T
   2    -80.4375717 -0.327446E-06  0.172E-03    2.93       8.5  T
   3    -80.4375718 -0.128183E-07  0.879E-04    2.93      16.6  T
   4    -80.4375718 -0.147050E-08  0.186E-04    2.93      78.5  T
   5    -80.4375718 -0.308702E-09  0.607E-05    2.93     240.1  T
     SCC iter.                  ...        0 min,  0.020 sec
     gradient                   ...        0 min,  0.094 sec
 * total energy  :   -79.5352819 Eh     change       -0.4471918E-04 Eh
   gradient norm :     0.0028135 Eh/α   predicted    -0.3757210E-04 ( -15.98%)
   displ. norm   :     0.4846997 α      lambda       -0.6301553E-04
   maximum displ.:     0.3045327 α      in ANC's #2, #4, #1, ...

........................................................................
.............................. CYCLE   40 ..............................
........................................................................
   1    -80.4326564 -0.804327E+02  0.549E-03    2.93       0.0  T
   2    -80.4326568 -0.381039E-06  0.273E-03    2.93       5.3  T
   3    -80.4326568 -0.146024E-07  0.132E-03    2.93      11.1  T
   4    -80.4326568 -0.652132E-08  0.252E-04    2.93      57.8  T
   5    -80.4326568 -0.115523E-08  0.775E-05    2.93     188.3  T
   6    -80.4326568 -0.931095E-10  0.222E-05    2.93     655.6  T
     SCC iter.                  ...        0 min,  0.024 sec
     gradient                   ...        0 min,  0.094 sec
 * total energy  :   -79.5352929 Eh     change       -0.1093798E-04 Eh
   gradient norm :     0.0051385 Eh/α   predicted    -0.3891037E-04 ( 255.74%)
   displ. norm   :     0.1389114 α      lambda       -0.7181315E-04
   maximum displ.:     0.0773236 α      in ANC's #2, #4, #5, ...

........................................................................
.............................. CYCLE   41 ..............................
........................................................................
   1    -80.4365672 -0.804366E+02  0.400E-03    2.93       0.0  T
   2    -80.4365673 -0.106389E-06  0.221E-03    2.93       6.6  T
   3    -80.4365673 -0.174505E-08  0.870E-04    2.93      16.8  T
   4    -80.4365673 -0.369425E-08  0.122E-04    2.93     119.7  T
   5    -80.4365673 -0.387701E-09  0.348E-05    2.93     419.5  T
     SCC iter.                  ...        0 min,  0.018 sec
     gradient                   ...        0 min,  0.072 sec
 * total energy  :   -79.5353328 Eh     change       -0.3992760E-04 Eh
   gradient norm :     0.0028971 Eh/α   predicted    -0.3659959E-04 (  -8.34%)
   displ. norm   :     0.1030327 α      lambda       -0.2846474E-04
   maximum displ.:     0.0559949 α      in ANC's #2, #6, #1, ...

........................................................................
.............................. CYCLE   42 ..............................
........................................................................
   1    -80.4372719 -0.804373E+02  0.190E-03    2.93       0.0  T
   2    -80.4372719 -0.613840E-07  0.948E-04    2.93      15.4  T
   3    -80.4372719 -0.400401E-08  0.446E-04    2.93      32.7  T
   4    -80.4372719 -0.882977E-09  0.131E-04    2.93     111.6  T
   5    -80.4372719 -0.153960E-09  0.320E-05    2.93     456.2  T
     SCC iter.                  ...        0 min,  0.020 sec
     gradient                   ...        0 min,  0.095 sec
 * total energy  :   -79.5353527 Eh     change       -0.1987456E-04 Eh
   gradient norm :     0.0022333 Eh/α   predicted    -0.1438617E-04 ( -27.62%)
   displ. norm   :     0.2695277 α      lambda       -0.4241317E-04
   maximum displ.:     0.1596937 α      in ANC's #2, #6, #1, ...
 * RMSD in coord.:     0.7171424 α      energy gain  -0.9186552E-03 Eh

generating ANC from model Hessian ...
Using Lindh-Hessian (1995)
 Shifting diagonal of input Hessian by   9.850270089776443E-003
 Lowest  eigenvalues of input Hessian
    0.000000    0.000000    0.000000    0.000000    0.000000    0.000000
    0.010000    0.010092    0.010187    0.010643    0.010859    0.011468
    0.011976    0.013140    0.014538    0.015390    0.016132    0.016462
 Highest eigenvalues
    2.002918    2.023794    2.100248    2.214955    2.334435    2.400613
 

........................................................................
.............................. CYCLE   43 ..............................
........................................................................
   1    -80.4371280 -0.804371E+02  0.327E-03    2.93       0.0  T
   2    -80.4371282 -0.241334E-06  0.141E-03    2.93      10.3  T
   3    -80.4371282 -0.158710E-07  0.653E-04    2.93      22.3  T
   4    -80.4371282 -0.213875E-08  0.235E-04    2.93      62.1  T
   5    -80.4371282 -0.354547E-09  0.590E-05    2.93     247.3  T
   6    -80.4371282 -0.831477E-10  0.231E-05    2.93     631.5  T
     SCC iter.                  ...        0 min,  0.024 sec
     gradient                   ...        0 min,  0.095 sec
 * total energy  :   -79.5353822 Eh     change       -0.2951383E-04 Eh
   gradient norm :     0.0019579 Eh/α   predicted     0.0000000E+00 (-100.00%)
   displ. norm   :     0.0313813 α      lambda       -0.1347828E-04
   maximum displ.:     0.0167105 α      in ANC's #7, #13, #8, ...

........................................................................
.............................. CYCLE   44 ..............................
........................................................................
   1    -80.4369595 -0.804370E+02  0.177E-03    2.93       0.0  T
   2    -80.4369596 -0.103805E-06  0.977E-04    2.93      14.9  T
   3    -80.4369596 -0.919552E-08  0.507E-04    2.93      28.8  T
   4    -80.4369596 -0.388212E-09  0.134E-04    2.93     108.8  T
   5    -80.4369596 -0.239680E-09  0.271E-05    2.93     538.3  T
     SCC iter.                  ...        0 min,  0.020 sec
     gradient                   ...        0 min,  0.095 sec
 * total energy  :   -79.5353969 Eh     change       -0.1472205E-04 Eh
   gradient norm :     0.0006804 Eh/α   predicted    -0.6778669E-05 ( -53.96%)
   displ. norm   :     0.0704045 α      lambda       -0.1533507E-04
   maximum displ.:     0.0391622 α      in ANC's #7, #13, #6, ...

........................................................................
.............................. CYCLE   45 ..............................
........................................................................
   1    -80.4368393 -0.804368E+02  0.156E-03    2.92       0.0  T
   2    -80.4368394 -0.102520E-06  0.727E-04    2.92      20.1  T
   3    -80.4368394 -0.798897E-08  0.345E-04    2.92      42.2  T
   4    -80.4368394 -0.289575E-09  0.146E-04    2.92      99.7  T
   5    -80.4368394 -0.211728E-09  0.311E-05    2.92     469.2  T
     SCC iter.                  ...        0 min,  0.020 sec
     gradient                   ...        0 min,  0.095 sec
 * total energy  :   -79.5354132 Eh     change       -0.1626070E-04 Eh
   gradient norm :     0.0012863 Eh/α   predicted    -0.7686020E-05 ( -52.73%)
   displ. norm   :     0.0863256 α      lambda       -0.1173768E-04
   maximum displ.:     0.0466365 α      in ANC's #7, #6, #13, ...

........................................................................
.............................. CYCLE   46 ..............................
........................................................................
   1    -80.4368401 -0.804368E+02  0.950E-04    2.92       0.0  T
   2    -80.4368402 -0.314726E-07  0.447E-04    2.92      32.6  T
   3    -80.4368402 -0.358617E-08  0.207E-04    2.92      70.4  T
   4    -80.4368402 -0.348280E-09  0.712E-05    2.92     204.8  T
   5    -80.4368402 -0.442384E-10  0.220E-05    2.92     662.7  T
     SCC iter.                  ...        0 min,  0.020 sec
     gradient                   ...        0 min,  0.096 sec
 * total energy  :   -79.5354256 Eh     change       -0.1239308E-04 Eh
   gradient norm :     0.0013525 Eh/α   predicted    -0.5896716E-05 ( -52.42%)
   displ. norm   :     0.0889068 α      lambda       -0.9095660E-05
   maximum displ.:     0.0428538 α      in ANC's #7, #6, #12, ...

........................................................................
.............................. CYCLE   47 ..............................
........................................................................
   1    -80.4368119 -0.804368E+02  0.117E-03    2.92       0.0  T
   2    -80.4368120 -0.568269E-07  0.490E-04    2.92      29.8  T
   3    -80.4368120 -0.422958E-08  0.249E-04    2.92      58.6  T
   4    -80.4368120 -0.288139E-09  0.837E-05    2.92     174.2  T
   5    -80.4368120 -0.923421E-10  0.302E-05    2.92     483.6  T
     SCC iter.                  ...        0 min,  0.020 sec
     gradient                   ...        0 min,  0.097 sec
 * total energy  :   -79.5354354 Eh     change       -0.9869585E-05 Eh
   gradient norm :     0.0008016 Eh/α   predicted    -0.4564460E-05 ( -53.75%)
   displ. norm   :     0.1038219 α      lambda       -0.9068605E-05
   maximum displ.:     0.0402933 α      in ANC's #7, #6, #4, ...

........................................................................
.............................. CYCLE   48 ..............................
........................................................................
   1    -80.4368385 -0.804368E+02  0.137E-03    2.92       0.0  T
   2    -80.4368386 -0.710631E-07  0.548E-04    2.92      26.6  T
   3    -80.4368386 -0.417508E-08  0.289E-04    2.92      50.6  T
   4    -80.4368386 -0.303586E-09  0.939E-05    2.92     155.4  T
   5    -80.4368386 -0.106994E-09  0.336E-05    2.92     433.5  T
     SCC iter.                  ...        0 min,  0.020 sec
     gradient                   ...        0 min,  0.096 sec
 * total energy  :   -79.5354455 Eh     change       -0.1009286E-04 Eh
   gradient norm :     0.0005951 Eh/α   predicted    -0.4559532E-05 ( -54.82%)
   displ. norm   :     0.1278304 α      lambda       -0.9983485E-05
   maximum displ.:     0.0562058 α      in ANC's #4, #6, #3, ...

........................................................................
.............................. CYCLE   49 ..............................
........................................................................
   1    -80.4367124 -0.804367E+02  0.151E-03    2.92       0.0  T
   2    -80.4367125 -0.871546E-07  0.535E-04    2.92      27.3  T
   3    -80.4367125 -0.486384E-08  0.271E-04    2.92      53.7  T
   4    -80.4367125 -0.463828E-09  0.102E-04    2.92     143.7  T
   5    -80.4367125 -0.141100E-09  0.367E-05    2.92     397.1  T
     SCC iter.                  ...        0 min,  0.020 sec
     gradient                   ...        0 min,  0.097 sec
 * total energy  :   -79.5354571 Eh     change       -0.1160439E-04 Eh
   gradient norm :     0.0011406 Eh/α   predicted    -0.5043813E-05 ( -56.54%)
   displ. norm   :     0.1592539 α      lambda       -0.1202944E-04
   maximum displ.:     0.0772172 α      in ANC's #4, #6, #3, ...

........................................................................
.............................. CYCLE   50 ..............................
........................................................................
   1    -80.4366085 -0.804366E+02  0.143E-03    2.92       0.0  T
   2    -80.4366085 -0.630062E-07  0.523E-04    2.91      27.9  T
   3    -80.4366085 -0.397114E-08  0.262E-04    2.91      55.6  T
   4    -80.4366085 -0.519833E-09  0.942E-05    2.91     154.8  T
   5    -80.4366085 -0.115577E-09  0.331E-05    2.91     441.0  T
     SCC iter.                  ...        0 min,  0.021 sec
     gradient                   ...        0 min,  0.097 sec
 * total energy  :   -79.5354707 Eh     change       -0.1360238E-04 Eh
   gradient norm :     0.0012384 Eh/α   predicted    -0.6083313E-05 ( -55.28%)
   displ. norm   :     0.1480999 α      lambda       -0.1122501E-04
   maximum displ.:     0.0788078 α      in ANC's #4, #6, #2, ...

........................................................................
.............................. CYCLE   51 ..............................
........................................................................
   1    -80.4366405 -0.804366E+02  0.137E-03    2.91       0.0  T
   2    -80.4366406 -0.730670E-07  0.541E-04    2.91      27.0  T
   3    -80.4366406 -0.596901E-08  0.255E-04    2.91      57.3  T
   4    -80.4366406 -0.490530E-09  0.101E-04    2.91     143.8  T
   5    -80.4366406 -0.112735E-09  0.307E-05    2.91     475.5  T
     SCC iter.                  ...        0 min,  0.021 sec
     gradient                   ...        0 min,  0.096 sec
 * total energy  :   -79.5354838 Eh     change       -0.1311907E-04 Eh
   gradient norm :     0.0010563 Eh/α   predicted    -0.5672130E-05 ( -56.76%)
   displ. norm   :     0.1471246 α      lambda       -0.1134528E-04
   maximum displ.:     0.0818121 α      in ANC's #4, #6, #2, ...

........................................................................
.............................. CYCLE   52 ..............................
........................................................................
   1    -80.4367521 -0.804368E+02  0.160E-03    2.91       0.0  T
   2    -80.4367522 -0.121152E-06  0.664E-04    2.91      22.0  T
   3    -80.4367523 -0.881094E-08  0.302E-04    2.91      48.4  T
   4    -80.4367523 -0.182055E-09  0.114E-04    2.91     128.3  T
   5    -80.4367523 -0.179867E-09  0.310E-05    2.91     471.0  T
     SCC iter.                  ...        0 min,  0.021 sec
     gradient                   ...        0 min,  0.095 sec
 * total energy  :   -79.5354965 Eh     change       -0.1268283E-04 Eh
   gradient norm :     0.0006385 Eh/α   predicted    -0.5727809E-05 ( -54.84%)
   displ. norm   :     0.1348602 α      lambda       -0.9248248E-05
   maximum displ.:     0.0774078 α      in ANC's #4, #6, #2, ...

........................................................................
.............................. CYCLE   53 ..............................
........................................................................
   1    -80.4367455 -0.804367E+02  0.129E-03    2.90       0.0  T
   2    -80.4367456 -0.763998E-07  0.574E-04    2.90      25.4  T
   3    -80.4367456 -0.758186E-08  0.273E-04    2.90      53.5  T
   4    -80.4367456 -0.402039E-09  0.107E-04    2.90     136.9  T
   5    -80.4367456 -0.104052E-09  0.291E-05    2.90     501.7  T
     SCC iter.                  ...        0 min,  0.021 sec
     gradient                   ...        0 min,  0.096 sec
 * total energy  :   -79.5355068 Eh     change       -0.1022576E-04 Eh
   gradient norm :     0.0007901 Eh/α   predicted    -0.4662390E-05 ( -54.41%)
   displ. norm   :     0.1145747 α      lambda       -0.7533611E-05
   maximum displ.:     0.0688157 α      in ANC's #4, #6, #2, ...

........................................................................
.............................. CYCLE   54 ..............................
........................................................................
   1    -80.4371055 -0.804371E+02  0.139E-03    2.90       0.0  T
   2    -80.4371055 -0.708686E-07  0.562E-04    2.90      26.0  T
   3    -80.4371055 -0.342033E-08  0.301E-04    2.90      48.4  T
   4    -80.4371055 -0.140844E-09  0.732E-05    2.90     199.2  T
   5    -80.4371055 -0.727880E-10  0.230E-05    2.90     633.1  T
     SCC iter.                  ...        0 min,  0.022 sec
     gradient                   ...        0 min,  0.098 sec
 * total energy  :   -79.5355145 Eh     change       -0.7742117E-05 Eh
   gradient norm :     0.0008673 Eh/α   predicted    -0.3791667E-05 ( -51.03%)
   displ. norm   :     0.1281927 α      lambda       -0.5466039E-05
   maximum displ.:     0.0696333 α      in ANC's #4, #6, #2, ...

........................................................................
.............................. CYCLE   55 ..............................
........................................................................
   1    -80.4364552 -0.804365E+02  0.167E-03    2.90       0.0  T
   2    -80.4364554 -0.127936E-06  0.774E-04    2.90      18.8  T
   3    -80.4364554 -0.101907E-07  0.405E-04    2.90      36.0  T
   4    -80.4364554 -0.192458E-09  0.141E-04    2.90     103.5  T
   5    -80.4364554 -0.287983E-09  0.361E-05    2.90     404.1  T
     SCC iter.                  ...        0 min,  0.021 sec
     gradient                   ...        0 min,  0.095 sec
 * total energy  :   -79.5355192 Eh     change       -0.4680148E-05 Eh
   gradient norm :     0.0011924 Eh/α   predicted    -0.2754153E-05 ( -41.15%)
   displ. norm   :     0.0586648 α      lambda       -0.4007929E-05
   maximum displ.:     0.0381734 α      in ANC's #4, #6, #2, ...

........................................................................
.............................. CYCLE   56 ..............................
........................................................................
   1    -80.4370177 -0.804370E+02  0.978E-04    2.90       0.0  T
   2    -80.4370177 -0.223176E-07  0.521E-04    2.90      28.0  T
   3    -80.4370177 -0.199343E-08  0.286E-04    2.90      51.0  T
   4    -80.4370177 -0.241926E-09  0.510E-05    2.90     285.8  T
   5    -80.4370177 -0.403446E-10  0.163E-05    2.90     893.3  T
     SCC iter.                  ...        0 min,  0.023 sec
     gradient                   ...        0 min,  0.102 sec
 * total energy  :   -79.5355232 Eh     change       -0.4034374E-05 Eh
   gradient norm :     0.0004638 Eh/α   predicted    -0.2009054E-05 ( -50.20%)
   displ. norm   :     0.0629141 α      lambda       -0.3230010E-05
   maximum displ.:     0.0384824 α      in ANC's #4, #6, #2, ...

   *** GEOMETRY OPTIMIZATION CONVERGED AFTER 56 ITERATIONS ***

------------------------------------------------------------------------
 total energy gain   :        -0.0154383 Eh       -9.6877 kcal/mol
 total RMSD          :         1.2305708 a0        0.6512 Å
 total power (kW/mol):        -0.7238100 (step)   -4.4826 (real)
------------------------------------------------------------------------

 ANCopt (total)                0 d,  0 h,  0 min,  9.042 sec
 optimizer setup                ...        0 min,  0.001 sec (  0.012%)
 model hessian                  ...        0 min,  0.129 sec (  1.422%)
 ANC generation                 ...        0 min,  0.010 sec (  0.106%)
 coordinate transformation      ...        0 min,  0.003 sec (  0.036%)
 single point calculation       ...        0 min,  8.864 sec ( 98.031%)
 optimization log               ...        0 min,  0.018 sec (  0.204%)
 hessian update                 ...        0 min,  0.002 sec (  0.026%)
 rational function              ...        0 min,  0.009 sec (  0.100%)

================
 final structure:
================
47
 xtb: 6.5.1 (579679a)
C           -4.15768808450372        0.90604689198041       -1.27024727739820
N           -4.53236173362626       -0.10140474921030       -0.24730665101617
C           -3.37838327270167       -0.90430042931519        0.32792939363789
C           -3.02502726490691       -1.96840367529873       -0.71566001459497
C           -3.88705767633165       -1.60007171577553        1.59106054453486
C           -2.16480994607695       -0.01041561928034        0.56786801814340
N           -1.15049364822232       -0.27577412792843       -0.18492408714192
C            0.04375790861975        0.38251112640988       -0.07648377865558
C            1.07653644897418       -0.08314240276373       -1.06615277165920
O            0.89483667207833       -1.08433394079328       -1.74507733249990
N            2.17936983670049        0.68164616949429       -1.15460837232050
C            3.26077039118260        0.35565756241222       -2.07312589389780
C            4.50103810160705       -0.09452470954065       -1.33307751145368
C            5.76015867666781        0.24606035155200       -1.82222667678478
C            6.91017739798393       -0.17972643819913       -1.17188935076910
C            6.77160577028101       -0.94556599259642       -0.02858881446860
F            7.87846876116999       -1.36058654769008        0.60808543824264
C            5.53726769373717       -1.29877240674187        0.48646805166413
C            4.39870770354026       -0.86642281500432       -0.17790459369764
C            0.18206944500685        1.33022534616473        0.89407298594125
O            1.31223483667896        2.01417475109900        1.13122847569790
C           -0.93322252965547        1.66636983561444        1.76285311939374
O           -0.84081618332479        2.52329404946313        2.63192073059532
N           -2.11410572087708        0.96927701979925        1.53065142315270
C           -3.22395489279028        1.37766646608751        2.39136736826534
H           -3.64383541373398        0.40892109059595       -2.08847957983355
H           -3.51405549510181        1.64851232598493       -0.80676777808933
H           -5.07647667721183        1.36736216412117       -1.62228990956157
H           -5.19002026441551       -0.75741553902737       -0.66277339521555
H           -5.03558311183751        0.37146109887345        0.49824633551802
H           -3.90018140172300       -2.57984773867216       -0.92729633449952
H           -2.67150520440300       -1.51169279050505       -1.63790835720309
H           -2.23418990263521       -2.60473521855375       -0.32110653339509
H           -4.63812172569297       -2.34094575153858        1.32052280428230
H           -4.33574502812214       -0.90323366759844        2.29240353245721
H           -3.05452891885563       -2.10587976820913        2.07896270526669
H            2.28324927593569        1.50720096283506       -0.59011460630295
H            2.90696762054611       -0.44605850201907       -2.73230317402438
H            3.48171500118700        1.23521721902885       -2.68495386365901
H            5.84632676347632        0.85091145414726       -2.71733457124228
H            7.89353234022168        0.08107759858408       -1.54119781291431
H            5.47017935429900       -1.89626437349066        1.38631950409704
H            3.42137902016245       -1.12569318559155        0.21143217197640
H            1.15489370249836        2.64050968884252        1.86412007394112
H           -4.16691008679738        1.28327971457077        1.86833564087177
H           -3.06694898707319        2.42336846606233        2.65732156058232
H           -3.22921855187993        0.77445975150909        3.29862816395701
 
 Bond Distances (Angstroems)
 ---------------------------
C1-N2=1.4838         C1-H26=1.0866        C1-H27=1.0864        C1-H28=1.0867        N2-C1=1.4838         N2-C3=1.5189         
N2-H29=1.0176        N2-H30=1.0162        C3-N2=1.5189         C3-C4=1.5317         C3-C5=1.5292         C3-C6=1.5262         
C4-C3=1.5317         C4-H31=1.0884        C4-H32=1.0882        C4-H33=1.0890        C5-C3=1.5292         C5-H34=1.0891        
C5-H35=1.0857        C5-H36=1.0895        C6-C3=1.5262         C6-N7=1.2907         C6-N24=1.3745        N7-C6=1.2907         
N7-C8=1.3680         C8-N7=1.3680         C8-C9=1.5043         C8-C20=1.3636        C9-C8=1.5043         C9-O10=1.2232        
C9-N11=1.3450        O10-C9=1.2232        N11-C9=1.3450        N11-C12=1.4558       N11-H37=1.0055       C12-N11=1.4558       
C12-C13=1.5128       C12-H38=1.0966       C12-H39=1.0940       C13-C12=1.5128       C13-C14=1.3931       C13-C19=1.3931       
C14-C13=1.3931       C14-C15=1.3881       C14-H40=1.0837       C15-C14=1.3881       C15-C16=1.3831       C15-H41=1.0823       
C16-C15=1.3831       C16-F17=1.3427       C16-C18=1.3833       F17-C16=1.3427       C18-C16=1.3833       C18-C19=1.3873       
C18-H42=1.0822       C19-C13=1.3931       C19-C18=1.3873       C19-H43=1.0835       C20-C8=1.3636        C20-O21=1.3421       
C20-C22=1.4532       O21-C20=1.3421       O21-H44=0.9768       C22-C20=1.4532       C22-O23=1.2240       C22-N24=1.3908       
O23-C22=1.2240       N24-C6=1.3745        N24-C22=1.3908       N24-C25=1.4627       C25-N24=1.4627       C25-H45=1.0824       
C25-H46=1.0904       C25-H47=1.0895       H26-C1=1.0866        H27-C1=1.0864        H28-C1=1.0867        H29-N2=1.0176        
H30-N2=1.0162        H31-C4=1.0884        H32-C4=1.0882        H33-C4=1.0890        H34-C5=1.0891        H35-C5=1.0857        
H36-C5=1.0895        H37-N11=1.0055       H38-C12=1.0966       H39-C12=1.0940       H40-C14=1.0837       H41-C15=1.0823       
H42-C18=1.0822       H43-C19=1.0835       H44-O21=0.9768       H45-C25=1.0824       H46-C25=1.0904       H47-C25=1.0895       
 C  H  Rav=1.0875 sigma=0.0038  Rmin=1.0822  Rmax=1.0966    18
 C  C  Rav=1.4422 sigma=0.0653  Rmin=1.3636  Rmax=1.5317    13
 N  H  Rav=1.0131 sigma=0.0054  Rmin=1.0055  Rmax=1.0176     3
 N  C  Rav=1.4100 sigma=0.0700  Rmin=1.2907  Rmax=1.5189     9
 O  H  Rav=0.9768 sigma=0.0000  Rmin=0.9768  Rmax=0.9768     1
 O  C  Rav=1.2631 sigma=0.0559  Rmin=1.2232  Rmax=1.3421     3
 F  C  Rav=1.3427 sigma=0.0000  Rmin=1.3427  Rmax=1.3427     1
 
 selected bond angles (degree)
 --------------------
H26-C1-N2=109.14               H27-C1-N2=108.63               H27-C1-H26=110.72              H28-C1-N2=107.34               
H28-C1-H26=110.49              H28-C1-H27=110.43              C3-N2-C1=115.35                H29-N2-C1=108.63               
H29-N2-C3=107.75               H30-N2-C1=108.35               H30-N2-C3=110.14               H30-N2-H29=106.23              
C4-C3-N2=106.53                C5-C3-N2=107.49                C5-C3-C4=108.87                C6-C3-N2=110.73                
C6-C3-C4=109.30                C6-C3-C5=113.65                H31-C4-C3=109.71               H32-C4-C3=111.15               
H32-C4-H31=109.40              H33-C4-C3=109.06               H33-C4-H31=109.03              H33-C4-H32=108.44              
H34-C5-C3=109.50               H35-C5-C3=112.27               H35-C5-H34=108.18              H36-C5-C3=109.08               
H36-C5-H34=108.81              H36-C5-H35=108.93              N7-C6-C3=114.38                N24-C6-C3=123.84               
N24-C6-N7=121.74               C8-N7-C6=122.74                C9-C8-N7=113.47                C20-C8-N7=118.65               
C20-C8-C9=127.86               O10-C9-C8=121.10               N11-C9-C8=115.48               N11-C9-O10=123.41              
 
 selected dihedral angles (degree)
 ---------------------------------
C3-N2-C1-H26= 57.69           C3-N2-C1-H27=296.88           C3-N2-C1-H28=177.47           H29-N2-C1-H26=296.65          
H29-N2-C1-H27=175.84          H29-N2-C1-H28= 56.42          H30-N2-C1-H26=181.65          H30-N2-C1-H27= 60.84          
H30-N2-C1-H28=301.43          C4-C3-N2-C1=281.86            C4-C3-N2-H29= 43.38           C4-C3-N2-H30=158.84           
C5-C3-N2-C1=165.29            C5-C3-N2-H29=286.81           C5-C3-N2-H30= 42.28           C6-C3-N2-C1= 40.61            
C6-C3-N2-H29=162.13           C6-C3-N2-H30=277.59           H31-C4-C3-N2=302.39           H31-C4-C3-C5= 58.04           
H31-C4-C3-C6=182.71           H32-C4-C3-N2= 63.52           H32-C4-C3-C5=179.17           H32-C4-C3-C6=303.84           
H33-C4-C3-N2=183.03           H33-C4-C3-C5=298.68           H33-C4-C3-C6= 63.35           H34-C5-C3-N2= 66.48           
H34-C5-C3-C4=311.47           H34-C5-C3-C6=189.39           H35-C5-C3-N2=306.30           H35-C5-C3-C4=191.28           
H35-C5-C3-C6= 69.21           H36-C5-C3-N2=185.46           H36-C5-C3-C4= 70.44           H36-C5-C3-C6=308.36           
N7-C6-C3-N2=246.57            N7-C6-C3-C4=  3.63            N7-C6-C3-C5=125.46            N24-C6-C3-N2= 68.82           
N24-C6-C3-C4=185.88           N24-C6-C3-C5=307.71           C8-N7-C6-C3=182.76            C8-N7-C6-N24=  0.56           
C9-C8-N7-C6=180.63            C20-C8-N7-C6=  2.06           O10-C9-C8-N7=349.89           O10-C9-C8-C20=168.30          
N11-C9-C8-N7=169.03           N11-C9-C8-C20=347.44          
           -------------------------------------------------
          |                Final Singlepoint                |
           -------------------------------------------------

          ...................................................
          :                      SETUP                      :
          :.................................................:
          :  # basis functions                 144          :
          :  # atomic orbitals                 144          :
          :  # shells                           94          :
          :  # electrons                       134          :
          :  # halogen bonds                     0          :
          :  max. iterations                   250          :
          :  Hamiltonian                  GFN1-xTB          :
          :  restarted?                      false          :
          :  GBSA solvation                   true          :
          :  PC potential                    false          :
          :  electronic temp.          300.0000000     K    :
          :  accuracy                    1.0000000          :
          :  -> integral cutoff          0.2500000E+02      :
          :  -> integral neglect         0.1000000E-07      :
          :  -> SCF convergence          0.1000000E-05 Eh   :
          :  -> wf. convergence          0.2000000E-04 e    :
          :  Broyden damping             0.4000000          :
          ...................................................

 iter      E             dE          RMSdq      gap      omega  full diag
   1    -80.4370177 -0.804370E+02  0.449E-06    2.90       0.0  T
   2    -80.4370177 -0.412115E-12  0.206E-06    2.90    7095.6  T
   3    -80.4370177  0.284217E-13  0.926E-07    2.90   15745.0  T

   *** convergence criteria satisfied after 3 iterations ***

         #    Occupation            Energy/Eh            Energy/eV
      -------------------------------------------------------------
         1        2.0000           -0.8898999             -24.2154
       ...           ...                  ...                  ...
        61        2.0000           -0.4770493             -12.9812
        62        2.0000           -0.4675095             -12.7216
        63        2.0000           -0.4543387             -12.3632
        64        2.0000           -0.4512518             -12.2792
        65        2.0000           -0.4482886             -12.1986
        66        2.0000           -0.4403837             -11.9834
        67        2.0000           -0.4359188             -11.8620 (HOMO)
        68                         -0.3293782              -8.9628 (LUMO)
        69                         -0.3007084              -8.1827
        70                         -0.2761402              -7.5142
        71                         -0.2683629              -7.3025
        72                         -0.2404137              -6.5420
       ...                                ...                  ...
       144                          0.7123711              19.3846
      -------------------------------------------------------------
                  HL-Gap            0.1065406 Eh            2.8991 eV
             Fermi-level           -0.3826485 Eh          -10.4124 eV

 SCC (total)                   0 d,  0 h,  0 min,  0.244 sec
 SCC setup                      ...        0 min,  0.002 sec (  0.940%)
 Dispersion                     ...        0 min,  0.000 sec (  0.181%)
 classical contributions        ...        0 min,  0.000 sec (  0.058%)
 integral evaluation            ...        0 min,  0.044 sec ( 18.187%)
 iterations                     ...        0 min,  0.014 sec (  5.836%)
 molecular gradient             ...        0 min,  0.182 sec ( 74.340%)
 printout                       ...        0 min,  0.001 sec (  0.424%)

         :::::::::::::::::::::::::::::::::::::::::::::::::::::
         ::                     SUMMARY                     ::
         :::::::::::::::::::::::::::::::::::::::::::::::::::::
         :: total energy             -79.535523212917 Eh    ::
         :: total w/o Gsasa/hb       -79.506948770214 Eh    ::
         :: gradient norm              0.000464019865 Eh/a0 ::
         :: HOMO-LUMO gap              2.899118064858 eV    ::
         ::.................................................::
         :: SCC energy               -80.437017718981 Eh    ::
         :: -> electrostatic           0.345465801463 Eh    ::
         :: -> Gsolv                  -0.134254914193 Eh    ::
         ::    -> Gelec               -0.105680471490 Eh    ::
         ::    -> Gsasa               -0.025203726367 Eh    ::
         ::    -> Ghb                 -0.010994995341 Eh    ::
         ::    -> Gshift               0.007624279005 Eh    ::
         :: repulsion energy           0.932265623715 Eh    ::
         :: dispersion energy         -0.030771117651 Eh    ::
         :: halogen bond corr.         0.000000000000 Eh    ::
         :: add. restraining           0.000000000000 Eh    ::
         :: total charge               1.000000000000 e     ::
         :::::::::::::::::::::::::::::::::::::::::::::::::::::

           -------------------------------------------------
          |                Property Printout                |
           -------------------------------------------------

    * Orbital Energies and Occupations

         #    Occupation            Energy/Eh            Energy/eV
      -------------------------------------------------------------
         1        2.0000           -0.8898999             -24.2154
       ...           ...                  ...                  ...
        55        2.0000           -0.5230680             -14.2334
        56        2.0000           -0.5200605             -14.1516
        57        2.0000           -0.5086946             -13.8423
        58        2.0000           -0.5005451             -13.6205
        59        2.0000           -0.4877668             -13.2728
        60        2.0000           -0.4828546             -13.1391
        61        2.0000           -0.4770493             -12.9812
        62        2.0000           -0.4675095             -12.7216
        63        2.0000           -0.4543387             -12.3632
        64        2.0000           -0.4512518             -12.2792
        65        2.0000           -0.4482886             -12.1986
        66        2.0000           -0.4403837             -11.9834
        67        2.0000           -0.4359188             -11.8620 (HOMO)
        68                         -0.3293782              -8.9628 (LUMO)
        69                         -0.3007084              -8.1827
        70                         -0.2761402              -7.5142
        71                         -0.2683629              -7.3025
        72                         -0.2404137              -6.5420
        73                         -0.1880391              -5.1168
        74                         -0.1779452              -4.8421
        75                         -0.1689173              -4.5965
        76                         -0.1666032              -4.5335
        77                         -0.1526171              -4.1529
        78                         -0.1475415              -4.0148
       ...                                ...                  ...
       144                          0.7123711              19.3846
      -------------------------------------------------------------
                  HL-Gap            0.1065406 Eh            2.8991 eV
             Fermi-level           -0.3826485 Eh          -10.4124 eV

  Mulliken/CM5 charges         n(s)   n(p)   n(d)
     1C     0.02358 -0.07777   1.010  2.966  0.000
     2N    -0.20493 -0.73483   1.473  3.732  0.000
     3C     0.11332  0.13996   1.094  2.792  0.000
     4C    -0.10433 -0.24409   1.024  3.081  0.000
     5C    -0.12341 -0.26653   1.027  3.096  0.000
     6C     0.25782  0.40826   1.011  2.731  0.000
     7N    -0.35079 -0.54320   1.520  3.831  0.000
     8C     0.08210  0.16165   1.053  2.865  0.000
     9C     0.46951  0.57777   0.981  2.549  0.000
    10O    -0.59490 -0.63614   1.729  4.866  0.000
    11N    -0.33869 -0.70280   1.428  3.911  0.000
    12C     0.09204  0.04920   1.007  2.901  0.000
    13C    -0.01224 -0.02222   1.086  2.926  0.000
    14C    -0.03316 -0.08645   1.062  2.971  0.000
    15C    -0.06358 -0.11451   1.059  3.005  0.000
    16C     0.24519  0.25645   1.045  2.710  0.000
    17F    -0.27321 -0.29736   1.829  5.444  0.000
    18C    -0.06526 -0.11614   1.059  3.007  0.000
    19C    -0.02517 -0.07638   1.059  2.966  0.000
    20C     0.22040  0.25412   1.026  2.754  0.000
    21O    -0.51621 -0.71789   1.699  4.817  0.000
    22C     0.43742  0.53811   0.988  2.575  0.000
    23O    -0.57448 -0.62733   1.726  4.848  0.000
    24N    -0.21750 -0.46747   1.455  3.763  0.000
    25C     0.04239 -0.04724   0.996  2.961  0.000
    26H     0.08877  0.15190   0.911  0.000  0.000
    27H     0.08083  0.14714   0.919  0.000  0.000
    28H     0.09848  0.15985   0.902  0.000  0.000
    29H     0.30129  0.49282   0.699  0.000  0.000
    30H     0.28833  0.48135   0.712  0.000  0.000
    31H     0.05956  0.11557   0.940  0.000  0.000
    32H     0.06262  0.12397   0.937  0.000  0.000
    33H     0.07380  0.13155   0.926  0.000  0.000
    34H     0.07457  0.12984   0.925  0.000  0.000
    35H     0.06373  0.12168   0.936  0.000  0.000
    36H     0.07863  0.13323   0.921  0.000  0.000
    37H     0.26304  0.47276   0.737  0.000  0.000
    38H     0.06826  0.14001   0.932  0.000  0.000
    39H     0.04975  0.11520   0.950  0.000  0.000
    40H     0.04930  0.10623   0.951  0.000  0.000
    41H     0.06181  0.11889   0.938  0.000  0.000
    42H     0.05989  0.11701   0.940  0.000  0.000
    43H     0.04489  0.10694   0.955  0.000  0.000
    44H     0.42123  0.60018   0.579  0.000  0.000
    45H     0.05032  0.11826   0.950  0.000  0.000
    46H     0.09680  0.16723   0.903  0.000  0.000
    47H     0.07819  0.14118   0.922  0.000  0.000

Wiberg/Mayer (AO) data.
largest (>0.10) Wiberg bond orders for each atom

 ---------------------------------------------------------------------------
     #   Z sym  total        # sym  WBO       # sym  WBO       # sym  WBO
 ---------------------------------------------------------------------------
     1   6 C    3.894 --    27 H    0.984    26 H    0.982    28 H    0.980
                             2 N    0.918
     2   7 N    3.594 --     1 C    0.918    30 H    0.889    29 H    0.889
                             3 C    0.866
     3   6 C    3.895 --     4 C    1.002     5 C    0.996     6 C    0.977
                             2 N    0.866
     4   6 C    3.983 --     3 C    1.002    31 H    0.981    33 H    0.977
                            32 H    0.977
     5   6 C    3.983 --     3 C    0.996    34 H    0.979    36 H    0.977
                            35 H    0.977
     6   6 C    3.941 --     7 N    1.585    24 N    1.164     3 C    0.977
     7   7 N    3.043 --     6 C    1.585     8 C    1.186
     8   6 C    3.957 --    20 C    1.509     7 N    1.186     9 C    0.983
     9   6 C    3.912 --    10 O    1.579    11 N    1.271     8 C    0.983
    10   8 O    1.880 --     9 C    1.579    11 N    0.177
    11   7 N    3.359 --     9 C    1.271    12 C    0.946    37 H    0.888
                            10 O    0.177
    12   6 C    3.945 --    13 C    0.997    39 H    0.972    38 H    0.958
                            11 N    0.946
    13   6 C    3.988 --    14 C    1.417    19 C    1.416    12 C    0.997
    14   6 C    3.994 --    15 C    1.443    13 C    1.417    40 H    0.971
                            18 C    0.110
    15   6 C    3.991 --    14 C    1.443    16 C    1.401    41 H    0.969
                            19 C    0.111
    16   6 C    3.861 --    15 C    1.401    18 C    1.400    17 F    0.926
    17   9 F    1.054 --    16 C    0.926
    18   6 C    3.992 --    19 C    1.445    16 C    1.400    42 H    0.969
                            14 C    0.110
    19   6 C    3.994 --    18 C    1.445    13 C    1.416    43 H    0.971
                            15 C    0.111
    20   6 C    3.919 --     8 C    1.509    21 O    1.090    22 C    1.081
    21   8 O    2.081 --    20 C    1.090    44 H    0.794
    22   6 C    3.911 --    23 O    1.568    24 N    1.114    20 C    1.081
    23   8 O    1.914 --    22 C    1.568    24 N    0.133
    24   7 N    3.500 --     6 C    1.164    22 C    1.114    25 C    0.928
                            23 O    0.133
    25   6 C    3.919 --    45 H    0.977    47 H    0.972    46 H    0.969
                            24 N    0.928
    26   1 H    0.994 --     1 C    0.982
    27   1 H    0.996 --     1 C    0.984
    28   1 H    0.988 --     1 C    0.980
    29   1 H    0.917 --     2 N    0.889
    30   1 H    0.931 --     2 N    0.889
    31   1 H    0.996 --     4 C    0.981
    32   1 H    1.010 --     4 C    0.977
    33   1 H    1.003 --     4 C    0.977
    34   1 H    0.994 --     5 C    0.979
    35   1 H    0.998 --     5 C    0.977
    36   1 H    0.994 --     5 C    0.977
    37   1 H    0.942 --    11 N    0.888
    38   1 H    1.011 --    12 C    0.958
    39   1 H    1.003 --    12 C    0.972
    40   1 H    0.999 --    14 C    0.971
    41   1 H    0.997 --    15 C    0.969
    42   1 H    0.998 --    18 C    0.969
    43   1 H    1.002 --    19 C    0.971
    44   1 H    0.836 --    21 O    0.794
    45   1 H    0.999 --    25 C    0.977
    46   1 H    1.003 --    25 C    0.969
    47   1 H    0.998 --    25 C    0.972
 ---------------------------------------------------------------------------

Topologies differ in total number of bonds
Writing topology from bond orders to xtbtopo.mol

 dipole moment from electron density (au)
     X       Y       Z   
  -9.6128   1.6750   0.5400  total (Debye):   24.839

           -------------------------------------------------
          |                Geometry Summary                 |
           -------------------------------------------------

      molecular mass/u    :      349.3806376
   center of mass at/Å    :        0.8118325       0.0723780       0.0618446
  moments of inertia/u·Å² :        0.1052336E+04   0.5615680E+04   0.5955166E+04
rotational constants/cm⁻¹ :        0.1601925E-01   0.3001886E-02   0.2830758E-02

 * 43 selected distances

     #   Z          #   Z                                           value/Å
     1   6 C        2   7 N                                       1.4838285
     2   7 N        3   6 C                                       1.5189485
     3   6 C        4   6 C                                       1.5317492 (max)
     3   6 C        5   6 C                                       1.5291658
     6   6 C        7   7 N                                       1.2907164
     7   7 N        8   6 C                                       1.3679678
     9   6 C       10   8 O                                       1.2232490
     9   6 C       11   7 N                                       1.3449787
    11   7 N       12   6 C                                       1.4558058
    13   6 C       14   6 C                                       1.3930722
    14   6 C       15   6 C                                       1.3880837
    15   6 C       16   6 C                                       1.3830578
    16   6 C       18   6 C                                       1.3833399
    13   6 C       19   6 C                                       1.3930984
    18   6 C       19   6 C                                       1.3873127
     8   6 C       20   6 C                                       1.3635516
    20   6 C       21   8 O                                       1.3421265
    22   6 C       23   8 O                                       1.2239840
     6   6 C       24   7 N                                       1.3745257
    22   6 C       24   7 N                                       1.3908061
    24   7 N       25   6 C                                       1.4626618
     1   6 C       26   1 H                                       1.0865924
     1   6 C       27   1 H                                       1.0864305
     1   6 C       28   1 H                                       1.0867007
     2   7 N       29   1 H                                       1.0175843
     2   7 N       30   1 H                                       1.0162103
     4   6 C       31   1 H                                       1.0883698
     4   6 C       32   1 H                                       1.0881658
     4   6 C       33   1 H                                       1.0890428
     5   6 C       34   1 H                                       1.0891200
     5   6 C       35   1 H                                       1.0857190
     5   6 C       36   1 H                                       1.0894928
    11   7 N       37   1 H                                       1.0054775
    12   6 C       38   1 H                                       1.0965582
    12   6 C       39   1 H                                       1.0939723
    14   6 C       40   1 H                                       1.0837380
    15   6 C       41   1 H                                       1.0823099
    18   6 C       42   1 H                                       1.0822340
    19   6 C       43   1 H                                       1.0835016
    21   8 O       44   1 H                                       0.9768224 (min)
    25   6 C       45   1 H                                       1.0824212
    25   6 C       46   1 H                                       1.0903556
    25   6 C       47   1 H                                       1.0894992

 * 6 distinct bonds (by element types)

   Z      Z             #   av. dist./Å        max./Å        min./Å
   1 H    6 C          18     1.0874569     1.0965582     1.0822340
   6 C    6 C           9     1.4169368     1.5317492     1.3635516
   1 H    7 N           3     1.0130907     1.0175843     1.0054775
   6 C    7 N           9     1.4100266     1.5189485     1.2907164
   1 H    8 O           1     0.9768224     0.9768224     0.9768224
   6 C    8 O           3     1.2631199     1.3421265     1.2232490


optimized geometry written to: xtbopt.xyz


           -------------------------------------------------
          | TOTAL ENERGY              -79.535523212917 Eh   |
          | GRADIENT NORM               0.000464019865 Eh/α |
          | HOMO-LUMO GAP               2.899118064858 eV   |
           -------------------------------------------------

------------------------------------------------------------------------
 * finished run on 2023/06/20 at 15:17:11.887     
------------------------------------------------------------------------
 total:
 * wall-time:     0 d,  0 h,  0 min,  9.644 sec
 *  cpu-time:     0 d,  0 h,  0 min,  9.434 sec
 * ratio c/w:     0.978 speedup
 SCF:
 * wall-time:     0 d,  0 h,  0 min,  0.262 sec
 *  cpu-time:     0 d,  0 h,  0 min,  0.200 sec
 * ratio c/w:     0.764 speedup
 ANC optimizer:
 * wall-time:     0 d,  0 h,  0 min,  9.294 sec
 *  cpu-time:     0 d,  0 h,  0 min,  9.174 sec
 * ratio c/w:     0.987 speedup

