38
 energy: -79.616015541218 gnorm: 0.000381427691 xtb: 6.5.1 (579679a)
C           -1.87009080604901        3.44993977972777       -1.08810759030003
O           -1.70313014871596        2.07892013694294       -0.74139682872041
C           -2.82263700537308        1.41831308822011       -0.38467717225065
O           -3.90483828679122        1.96929576324602       -0.34926994716535
C           -2.56388558220681       -0.00351749714464       -0.07646508456613
N           -1.25626496395255       -0.41568376205861       -0.11374605377451
C           -1.01237043542004       -1.68615614078480        0.11765619518937
C            0.44079931923133       -2.13735090187039        0.02606197801451
C            0.64701165094161       -2.82097861992294       -1.33434064688550
C            0.77165495870591       -3.09447159581864        1.17662006485491
N            1.27520347120945       -0.93763304405720        0.11446491608718
C            2.60906172411568       -0.94134228051573        0.05958644247719
O            3.31977064297799       -1.93017489086589       -0.08071064534787
C            3.20960150926183        0.41578630091133        0.20743371974683
N            4.47088765343550        0.71861183004473        0.16931168709775
N            4.56013320024836        2.06373158258198        0.38426341117678
C            3.34860497807694        2.49598216365383        0.54212941701399
C            2.91495825332053        3.88380716573058        0.81508056131367
O            2.44636741110086        1.50577254889920        0.44000333752991
N           -1.89292612648960       -2.64933244526785        0.38371145182916
C           -3.20413470066986       -2.31853619417320        0.45607366967298
O           -4.12112431537498       -3.12460120883615        0.70835098961591
C           -3.54739341082886       -0.91386173050843        0.20976204709797
O           -4.86624877644372       -0.62858557584306        0.27339200307626
H           -2.55903858757745        3.54977591785862       -1.93178911987042
H           -2.26275973644849        4.01464505308466       -0.23810367018418
H           -0.88730190339560        3.82776256789415       -1.36329875655750
H            1.66376311590365       -3.19949812878024       -1.42645275961265
H           -0.05208558539298       -3.65190998056397       -1.42270734954140
H            0.45692954777637       -2.11027130508637       -2.13799283831658
H            0.05844192202735       -3.91832778833341        1.16541084035255
H            1.77957526193629       -3.49222240623279        1.07150353287106
H            0.69200497686652       -2.57278367078811        2.12980708928784
H            0.76864605641774       -0.05958892094584        0.18001079518479
H            2.34597927283997        3.92030944261805        1.74360833905051
H            2.27266621097219        4.24195028117128        0.01099579256995
H            3.78670884457834        4.52802921455240        0.89658069997211
H           -5.31253761082003       -1.47580374875352        0.48424948201616
