
                                 *****************
                                 * O   R   C   A *
                                 *****************

                                            #,                                       
                                            ###                                      
                                            ####                                     
                                            #####                                    
                                            ######                                   
                                           ########,                                 
                                     ,,################,,,,,                         
                               ,,#################################,,                 
                          ,,##########################################,,             
                       ,#########################################, ''#####,          
                    ,#############################################,,   '####,        
                  ,##################################################,,,,####,       
                ,###########''''           ''''###############################       
              ,#####''   ,,,,##########,,,,          '''####'''          '####       
            ,##' ,,,,###########################,,,                        '##       
           ' ,,###''''                  '''############,,,                           
         ,,##''                                '''############,,,,        ,,,,,,###''
      ,#''                                            '''#######################'''  
     '                                                          ''''####''''         
             ,#######,   #######,   ,#######,      ##                                
            ,#'     '#,  ##    ##  ,#'     '#,    #''#        ######   ,####,        
            ##       ##  ##   ,#'  ##            #'  '#       #        #'  '#        
            ##       ##  #######   ##           ,######,      #####,   #    #        
            '#,     ,#'  ##    ##  '#,     ,#' ,#      #,         ##   #,  ,#        
             '#######'   ##     ##  '#######'  #'      '#     #####' # '####'        



                  #######################################################
                  #                        -***-                        #
                  #          Department of theory and spectroscopy      #
                  #    Directorship and core code : Frank Neese         #
                  #        Max Planck Institute fuer Kohlenforschung    #
                  #                Kaiser Wilhelm Platz 1               #
                  #                 D-45470 Muelheim/Ruhr               #
                  #                      Germany                        #
                  #                                                     #
                  #                  All rights reserved                #
                  #                        -***-                        #
                  #######################################################


                         Program Version 5.0.1 -  RELEASE  -


 With contributions from (in alphabetic order):
   Daniel Aravena         : Magnetic Suceptibility
   Michael Atanasov       : Ab Initio Ligand Field Theory (pilot matlab implementation)
   Alexander A. Auer      : GIAO ZORA, VPT2 properties, NMR spectrum
   Ute Becker             : Parallelization
   Giovanni Bistoni       : ED, misc. LED, open-shell LED, HFLD
   Martin Brehm           : Molecular dynamics
   Dmytro Bykov           : SCF Hessian
   Vijay G. Chilkuri      : MRCI spin determinant printing, contributions to CSF-ICE
   Dipayan Datta          : RHF DLPNO-CCSD density
   Achintya Kumar Dutta   : EOM-CC, STEOM-CC
   Dmitry Ganyushin       : Spin-Orbit,Spin-Spin,Magnetic field MRCI
   Miquel Garcia          : C-PCM and meta-GGA Hessian, CC/C-PCM, Gaussian charge scheme
   Yang Guo               : DLPNO-NEVPT2, F12-NEVPT2, CIM, IAO-localization
   Andreas Hansen         : Spin unrestricted coupled pair/coupled cluster methods
   Benjamin Helmich-Paris : MC-RPA, TRAH-SCF, COSX integrals
   Lee Huntington         : MR-EOM, pCC
   Robert Izsak           : Overlap fitted RIJCOSX, COSX-SCS-MP3, EOM
   Marcus Kettner         : VPT2
   Christian Kollmar      : KDIIS, OOCD, Brueckner-CCSD(T), CCSD density, CASPT2, CASPT2-K
   Simone Kossmann        : Meta GGA functionals, TD-DFT gradient, OOMP2, MP2 Hessian
   Martin Krupicka        : Initial AUTO-CI
   Lucas Lang             : DCDCAS
   Marvin Lechner         : AUTO-CI (C++ implementation), FIC-MRCC
   Dagmar Lenk            : GEPOL surface, SMD
   Dimitrios Liakos       : Extrapolation schemes; Compound Job, initial MDCI parallelization
   Dimitrios Manganas     : Further ROCIS development; embedding schemes
   Dimitrios Pantazis     : SARC Basis sets
   Anastasios Papadopoulos: AUTO-CI, single reference methods and gradients
   Taras Petrenko         : DFT Hessian,TD-DFT gradient, ASA, ECA, R-Raman, ABS, FL, XAS/XES, NRVS
   Peter Pinski           : DLPNO-MP2, DLPNO-MP2 Gradient
   Christoph Reimann      : Effective Core Potentials
   Marius Retegan         : Local ZFS, SOC
   Christoph Riplinger    : Optimizer, TS searches, QM/MM, DLPNO-CCSD(T), (RO)-DLPNO pert. Triples
   Tobias Risthaus        : Range-separated hybrids, TD-DFT gradient, RPA, STAB
   Michael Roemelt        : Original ROCIS implementation
   Masaaki Saitow         : Open-shell DLPNO-CCSD energy and density
   Barbara Sandhoefer     : DKH picture change effects
   Avijit Sen             : IP-ROCIS
   Kantharuban Sivalingam : CASSCF convergence, NEVPT2, FIC-MRCI
   Bernardo de Souza      : ESD, SOC TD-DFT
   Georgi Stoychev        : AutoAux, RI-MP2 NMR, DLPNO-MP2 response
   Willem Van den Heuvel  : Paramagnetic NMR
   Boris Wezisla          : Elementary symmetry handling
   Frank Wennmohs         : Technical directorship


 We gratefully acknowledge several colleagues who have allowed us to
 interface, adapt or use parts of their codes:
   Stefan Grimme, W. Hujo, H. Kruse, P. Pracht,  : VdW corrections, initial TS optimization,
                  C. Bannwarth, S. Ehlert          DFT functionals, gCP, sTDA/sTD-DF
   Ed Valeev, F. Pavosevic, A. Kumar             : LibInt (2-el integral package), F12 methods
   Garnet Chan, S. Sharma, J. Yang, R. Olivares  : DMRG
   Ulf Ekstrom                                   : XCFun DFT Library
   Mihaly Kallay                                 : mrcc  (arbitrary order and MRCC methods)
   Jiri Pittner, Ondrej Demel                    : Mk-CCSD
   Frank Weinhold                                : gennbo (NPA and NBO analysis)
   Christopher J. Cramer and Donald G. Truhlar   : smd solvation model
   Lars Goerigk                                  : TD-DFT with DH, B97 family of functionals
   V. Asgeirsson, H. Jonsson                     : NEB implementation
   FAccTs GmbH                                   : IRC, NEB, NEB-TS, DLPNO-Multilevel, CI-OPT
                                                   MM, QMMM, 2- and 3-layer-ONIOM, Crystal-QMMM,
                                                   LR-CPCM, SF, NACMEs, symmetry and pop. for TD-DFT,
                                                   nearIR, NL-DFT gradient (VV10), updates on ESD,
                                                   ML-optimized integration grids
   S Lehtola, MJT Oliveira, MAL Marques          : LibXC Library
   Liviu Ungur et al                             : ANISO software


 Your calculation uses the libint2 library for the computation of 2-el integrals
 For citations please refer to: http://libint.valeyev.net

 Your ORCA version has been built with support for libXC version: 5.1.0
 For citations please refer to: https://tddft.org/programs/libxc/

 This ORCA versions uses:
   CBLAS   interface :  Fast vector & matrix operations
   LAPACKE interface :  Fast linear algebra routines
   SCALAPACK package :  Parallel linear algebra routines
   Shared memory     :  Shared parallel matrices
   BLAS/LAPACK       :  OpenBLAS 0.3.15  USE64BITINT DYNAMIC_ARCH NO_AFFINITY Haswell SINGLE_THREADED
        Core in use  :  Haswell
   Copyright (c) 2011-2014, The OpenBLAS Project


Your calculation utilizes the geometrical counterpoise correction gCP
Please cite in your paper:
H.Kruse, S. Grimme J.Chem.Phys., 136, (2012), 154101 
   

Your calculation utilizes the atom-pairwise dispersion correction
based on tight binding partial charges (D4)
Cite in your paper:
E.Caldeweyher, C.Bannwarth, S.Grimme, J.Chem.Phys., (2017), 147, 034112.
E.Caldeweyher, S.Ehlert, A.Hansen, H.Neugebauer, S.Grimme, J.Chem.Phys., (2018), in progress.
   

Your calculation utilizes the SMD solvation module
Please cite in your paper:
A.V. Marenich, C.J. Cramer, D.G. Truhlar J. Phys. Chem. B, 113, (2009), 6378 

================================================================================

----- Orbital basis set information -----
Your calculation utilizes the basis: def2-mTZVPP
   Stefan Grimme, Andreas Hansen, Sebastian Ehlert, and Jan-Michael Mewes 
   J. Chem. Phys. 154, 000000 (2021). DOI: 10.1063/5.0040021

----- AuxJ basis set information -----
Your calculation utilizes the basis: def2-mTZVPP/J
   Stefan Grimme, Andreas Hansen, Sebastian Ehlert, and Jan-Michael Mewes 
   J. Chem. Phys. 154, 000000 (2021). DOI: 10.1063/5.0040021

================================================================================
                                        WARNINGS
                       Please study these warnings very carefully!
================================================================================

Using LibXC functional ID 497 : Re-regularized SCAN exchange by Furness et al
[ 1]  J. W. Furness, A. D. Kaplan, J. Ning, J. P. Perdew, and J. Sun, J. Phys. Chem. Lett. 11, 8208 (2020)
[ 2]  J. W. Furness, A. D. Kaplan, J. Ning, J. P. Perdew, and J. Sun, J. Phys. Chem. Lett. 11, 9248 (2020)
Using LibXC functional ID 498 : Re-regularized SCAN correlation by Furness et al
[ 1]  J. W. Furness, A. D. Kaplan, J. Ning, J. P. Perdew, and J. Sun, J. Phys. Chem. Lett. 11, 8208 (2020)
[ 2]  J. W. Furness, A. D. Kaplan, J. Ning, J. P. Perdew, and J. Sun, J. Phys. Chem. Lett. 11, 9248 (2020)
Using LibXC functional ID 497 : Re-regularized SCAN exchange by Furness et al
[ 1]  J. W. Furness, A. D. Kaplan, J. Ning, J. P. Perdew, and J. Sun, J. Phys. Chem. Lett. 11, 8208 (2020)
[ 2]  J. W. Furness, A. D. Kaplan, J. Ning, J. P. Perdew, and J. Sun, J. Phys. Chem. Lett. 11, 9248 (2020)
Using LibXC functional ID 498 : Re-regularized SCAN correlation by Furness et al
[ 1]  J. W. Furness, A. D. Kaplan, J. Ning, J. P. Perdew, and J. Sun, J. Phys. Chem. Lett. 11, 8208 (2020)
[ 2]  J. W. Furness, A. D. Kaplan, J. Ning, J. P. Perdew, and J. Sun, J. Phys. Chem. Lett. 11, 9248 (2020)

INFO   : the flag for use of the SHARK integral package has been found!

================================================================================
                                       INPUT FILE
================================================================================
NAME = /lustre/hpc/kemi/ree/PhD/git/ReactivityQM/calculations/R01/reac01prodN07/conf13/gfn1/orca_calc.inp
|  1> # ORCA input file 
|  2> ! SP r2SCAN-3c CPCM 
|  3> 
|  4> %maxcore 1875.0 
|  5> %pal nprocs 4 end 
|  6> %cpcm smd true SMDsolvent "DMSO" end 
|  7> 
|  8> *xyz 1 1
|  9> C       3.773764    0.502465    0.620890
| 10> O       2.362012    0.359719    0.360187
| 11> C       1.959526   -0.735895   -0.210756
| 12> O       2.607386   -1.675915   -0.563284
| 13> C       0.437694   -0.705360   -0.409998
| 14> N      -0.274349   -1.704498   -1.031031
| 15> N      -1.485560   -1.358424   -1.024488
| 16> C      -1.638577   -0.100435   -0.391122
| 17> C      -2.507303   -0.221343    0.871471
| 18> C      -2.187195    0.949432   -1.371001
| 19> O      -0.306173    0.239560   -0.023498
| 20> H       4.331964    0.327781   -0.299868
| 21> H       3.909083    1.520167    0.977482
| 22> H       4.072091   -0.221138    1.380648
| 23> H      -2.061096   -0.952833    1.541830
| 24> H      -2.550981    0.751073    1.356111
| 25> H      -3.504022   -0.540916    0.577062
| 26> H      -2.238637    1.907809   -0.859998
| 27> H      -1.520497    1.018994   -2.227766
| 28> H      -3.179133    0.639755   -1.690995
| 29> **                         ****END OF INPUT****
================================================================================

                       ****************************
                       * Single Point Calculation *
                       ****************************

---------------------------------
CARTESIAN COORDINATES (ANGSTROEM)
---------------------------------
  C      3.773764    0.502465    0.620890
  O      2.362012    0.359719    0.360187
  C      1.959526   -0.735895   -0.210756
  O      2.607386   -1.675915   -0.563284
  C      0.437694   -0.705360   -0.409998
  N     -0.274349   -1.704498   -1.031031
  N     -1.485560   -1.358424   -1.024488
  C     -1.638577   -0.100435   -0.391122
  C     -2.507303   -0.221343    0.871471
  C     -2.187195    0.949432   -1.371001
  O     -0.306173    0.239560   -0.023498
  H      4.331964    0.327781   -0.299868
  H      3.909083    1.520167    0.977482
  H      4.072091   -0.221138    1.380648
  H     -2.061096   -0.952833    1.541830
  H     -2.550981    0.751073    1.356111
  H     -3.504022   -0.540916    0.577062
  H     -2.238637    1.907809   -0.859998
  H     -1.520497    1.018994   -2.227766
  H     -3.179133    0.639755   -1.690995

----------------------------
CARTESIAN COORDINATES (A.U.)
----------------------------
  NO LB      ZA    FRAG     MASS         X           Y           Z
   0 C     6.0000    0    12.011    7.131380    0.949521    1.173312
   1 O     8.0000    0    15.999    4.463556    0.679770    0.680655
   2 C     6.0000    0    12.011    3.702967   -1.390640   -0.398271
   3 O     8.0000    0    15.999    4.927245   -3.167020   -1.064452
   4 C     6.0000    0    12.011    0.827122   -1.332937   -0.774784
   5 N     7.0000    0    14.007   -0.518444   -3.221034   -1.948366
   6 N     7.0000    0    14.007   -2.807302   -2.567049   -1.936002
   7 C     6.0000    0    12.011   -3.096462   -0.189795   -0.739113
   8 C     6.0000    0    12.011   -4.738116   -0.418278    1.646842
   9 C     6.0000    0    12.011   -4.133200    1.794166   -2.590816
  10 O     8.0000    0    15.999   -0.578583    0.452703   -0.044405
  11 H     1.0000    0     1.008    8.186226    0.619416   -0.566668
  12 H     1.0000    0     1.008    7.387096    2.872699    1.847173
  13 H     1.0000    0     1.008    7.695137   -0.417890    2.609047
  14 H     1.0000    0     1.008   -3.894907   -1.800593    2.913636
  15 H     1.0000    0     1.008   -4.820655    1.419322    2.562678
  16 H     1.0000    0     1.008   -6.621642   -1.022183    1.090489
  17 H     1.0000    0     1.008   -4.230411    3.605237   -1.625161
  18 H     1.0000    0     1.008   -2.873323    1.925620   -4.209868
  19 H     1.0000    0     1.008   -6.007691    1.208962   -3.195517

--------------------------------
INTERNAL COORDINATES (ANGSTROEM)
--------------------------------
 C      0   0   0     0.000000000000     0.00000000     0.00000000
 O      1   0   0     1.442701003060     0.00000000     0.00000000
 C      2   1   0     1.299361738101   117.77123984     0.00000000
 O      3   2   1     1.194837298875   128.68640545     0.06619733
 C      3   2   1     1.535122925701   110.32424964   180.17958621
 N      5   3   2     1.375123254106   123.88189987   177.65824678
 N      6   5   3     1.259699214434   107.21237525   180.10337056
 C      7   6   5     1.416722632122   110.49457207   359.93956092
 C      8   7   6     1.537349892246   110.99964988   242.74173113
 C      8   7   6     1.537324065464   111.09965262   117.34275210
 O      5   3   2     1.263168306319   123.98379683   357.68085381
 H      1   2   3     1.090824016246   109.41263202    52.99495290
 H      1   2   3     1.086824018427   105.88923588   173.04092497
 H      1   2   3     1.090794444019   109.13868372   292.60807745
 H      9   8   7     1.087915206176   109.09738783    56.79591378
 H      9   8   7     1.087371405887   108.56671854   176.75313928
 H      9   8   7     1.087314272219   108.58658705   296.67444264
 H     10   8   7     1.087316338285   108.61846134   182.97080614
 H     10   8   7     1.087828736646   109.08452064   302.92450020
 H     10   8   7     1.087307224389   108.58106441    63.06023380

---------------------------
INTERNAL COORDINATES (A.U.)
---------------------------
 C      0   0   0     0.000000000000     0.00000000     0.00000000
 O      1   0   0     2.726309788916     0.00000000     0.00000000
 C      2   1   0     2.455437833907   117.77123984     0.00000000
 O      3   2   1     2.257915269469   128.68640545     0.06619733
 C      3   2   1     2.900961911479   110.32424964   180.17958621
 N      5   3   2     2.598606350646   123.88189987   177.65824678
 N      6   5   3     2.380486526396   107.21237525   180.10337056
 C      7   6   5     2.677217782438   110.49457207   359.93956092
 C      8   7   6     2.905170268358   110.99964988   242.74173113
 C      8   7   6     2.905121462813   111.09965262   117.34275210
 O      5   3   2     2.387042159992   123.98379683   357.68085381
 H      1   2   3     2.061358651010   109.41263202    52.99495290
 H      1   2   3     2.053799750594   105.88923588   173.04092497
 H      1   2   3     2.061302767598   109.13868372   292.60807745
 H      9   8   7     2.055861796602   109.09738783    56.79591378
 H      9   8   7     2.054834162983   108.56671854   176.75313928
 H      9   8   7     2.054726195998   108.58658705   296.67444264
 H     10   8   7     2.054730100297   108.61846134   182.97080614
 H     10   8   7     2.055698392871   109.08452064   302.92450020
 H     10   8   7     2.054712877530   108.58106441    63.06023380

---------------------
BASIS SET INFORMATION
---------------------
There are 4 groups of distinct atoms

 Group   1 Type C   : 11s6p1d contracted to 5s3p1d pattern {62111/411/1}
 Group   2 Type O   : 11s6p2d contracted to 5s3p2d pattern {62111/411/11}
 Group   3 Type N   : 11s6p2d contracted to 5s3p2d pattern {62111/411/11}
 Group   4 Type H   : 4s1p contracted to 2s1p pattern {31/1}

Atom   0C    basis set group =>   1
Atom   1O    basis set group =>   2
Atom   2C    basis set group =>   1
Atom   3O    basis set group =>   2
Atom   4C    basis set group =>   1
Atom   5N    basis set group =>   3
Atom   6N    basis set group =>   3
Atom   7C    basis set group =>   1
Atom   8C    basis set group =>   1
Atom   9C    basis set group =>   1
Atom  10O    basis set group =>   2
Atom  11H    basis set group =>   4
Atom  12H    basis set group =>   4
Atom  13H    basis set group =>   4
Atom  14H    basis set group =>   4
Atom  15H    basis set group =>   4
Atom  16H    basis set group =>   4
Atom  17H    basis set group =>   4
Atom  18H    basis set group =>   4
Atom  19H    basis set group =>   4
---------------------------------
AUXILIARY/J BASIS SET INFORMATION
---------------------------------
There are 4 groups of distinct atoms

 Group   1 Type C   : 8s3p3d contracted to 6s3p3d pattern {311111/111/111}
 Group   2 Type O   : 8s3p3d contracted to 6s3p3d pattern {311111/111/111}
 Group   3 Type N   : 8s3p3d contracted to 6s3p3d pattern {311111/111/111}
 Group   4 Type H   : 5s2p1d contracted to 3s1p1d pattern {311/2/1}

Atom   0C    basis set group =>   1
Atom   1O    basis set group =>   2
Atom   2C    basis set group =>   1
Atom   3O    basis set group =>   2
Atom   4C    basis set group =>   1
Atom   5N    basis set group =>   3
Atom   6N    basis set group =>   3
Atom   7C    basis set group =>   1
Atom   8C    basis set group =>   1
Atom   9C    basis set group =>   1
Atom  10O    basis set group =>   2
Atom  11H    basis set group =>   4
Atom  12H    basis set group =>   4
Atom  13H    basis set group =>   4
Atom  14H    basis set group =>   4
Atom  15H    basis set group =>   4
Atom  16H    basis set group =>   4
Atom  17H    basis set group =>   4
Atom  18H    basis set group =>   4
Atom  19H    basis set group =>   4


           ************************************************************
           *        Program running with 4 parallel MPI-processes     *
           *              working on a common directory               *
           ************************************************************
------------------------------------------------------------------------------
                           ORCA GTO INTEGRAL CALCULATION
                           -- RI-GTO INTEGRALS CHOSEN --
------------------------------------------------------------------------------
------------------------------------------------------------------------------
                   ___                                                        
                  /   \      - P O W E R E D   B Y -                         
                 /     \                                                     
                 |  |  |   _    _      __       _____    __    __             
                 |  |  |  | |  | |    /  \     |  _  \  |  |  /  |          
                  \  \/   | |  | |   /    \    | | | |  |  | /  /          
                 / \  \   | |__| |  /  /\  \   | |_| |  |  |/  /          
                |  |  |   |  __  | /  /__\  \  |    /   |      \           
                |  |  |   | |  | | |   __   |  |    \   |  |\   \          
                \     /   | |  | | |  |  |  |  | |\  \  |  | \   \       
                 \___/    |_|  |_| |__|  |__|  |_| \__\ |__|  \__/        
                                                                              
                      - O R C A' S   B I G   F R I E N D -                    
                                      &                                       
                       - I N T E G R A L  F E E D E R -                       
                                                                              
 v1 FN, 2020, v2 2021                                                         
------------------------------------------------------------------------------


Reading SHARK input file /lustre/hpc/kemi/ree/PhD/git/ReactivityQM/calculations/R01/reac01prodN07/conf13/gfn1/orca_calc.SHARKINP.tmp ... ok
----------------------
SHARK INTEGRAL PACKAGE
----------------------

Number of atoms                             ...     20
Number of basis functions                   ...    279
Number of shells                            ...    131
Maximum angular momentum                    ...      2
Integral batch strategy                     ... SHARK/LIBINT Hybrid
RI-J (if used) integral strategy            ... SPLIT-RIJ (Revised 2003 algorithm where possible)
Printlevel                                  ...      1
Contraction scheme used                     ... SEGMENTED contraction
Coulomb Range Separation                    ... NOT USED
Exchange Range Separation                   ... NOT USED
Finite Nucleus Model                        ... NOT USED
Auxiliary Coulomb fitting basis             ... AVAILABLE
   # of basis functions in Aux-J            ...    429
   # of shells in Aux-J                     ...    177
   Maximum angular momentum in Aux-J        ...      2
Auxiliary J/K fitting basis                 ... NOT available
Auxiliary Correlation fitting basis         ... NOT available
Auxiliary 'external' fitting basis          ... NOT available
Integral threshold                          ...     1.000000e-10
Primitive cut-off                           ...     1.000000e-11
Primitive pair pre-selection threshold      ...     1.000000e-11

Calculating pre-screening integrals         ... done (  0.2 sec) Dimension = 131
Organizing shell pair data                  ... done (  0.1 sec)
Shell pair information
Total number of shell pairs                 ...      8646
Shell pairs after pre-screening             ...      7203
Total number of primitive shell pairs       ...     31145
Primitive shell pairs kept                  ...     17781
          la=0 lb=0:   2136 shell pairs
          la=1 lb=0:   2566 shell pairs
          la=1 lb=1:    787 shell pairs
          la=2 lb=0:    999 shell pairs
          la=2 lb=1:    591 shell pairs
          la=2 lb=2:    124 shell pairs

Calculating one electron integrals          ... done (  0.0 sec)
Calculating RI/J V-Matrix + Cholesky decomp.... done (  0.0 sec)
Calculating Nuclear repulsion               ... done (  0.0 sec) ENN=    639.663268332860 Eh

SHARK setup successfully completed in   0.4 seconds

Maximum memory used throughout the entire GTOINT-calculation: 11.7 MB


           ************************************************************
           *        Program running with 4 parallel MPI-processes     *
           *              working on a common directory               *
           ************************************************************
-------------------------------------------------------------------------------
                                 ORCA SCF
-------------------------------------------------------------------------------

------------
SCF SETTINGS
------------
Hamiltonian:
 Density Functional     Method          .... DFT(GTOs)
  Functional kind                       .... Exchange
  Functional name                       .... Re-regularized SCAN exchange by Furness et al
  Functional family                     .... MGGA
  Functional refs                              
    [ 0] J. W. Furness, A. D. Kaplan, J. Ning, J. P. Perdew, and J. Sun, J. Phys. Chem. Lett. 11, 8208 (2020)
    [ 1] J. W. Furness, A. D. Kaplan, J. Ning, J. P. Perdew, and J. Sun, J. Phys. Chem. Lett. 11, 9248 (2020)
  Functional external parameters         .... 8
 Parameter  0 :         c1 parameter
 Parameter  1 :         c2 parameter
 Parameter  2 :          d parameter
 Parameter  3 :         k1 parameter
 Parameter  4 :       taur parameter
 Parameter  5 :     alphar parameter
 Parameter  6 :        eta parameter
 Parameter  7 :        dp2 parameter
  Functional kind                       .... Correlation
  Functional name                       .... Re-regularized SCAN correlation by Furness et al
  Functional family                     .... MGGA
  Functional refs                              
    [ 0] J. W. Furness, A. D. Kaplan, J. Ning, J. P. Perdew, and J. Sun, J. Phys. Chem. Lett. 11, 8208 (2020)
    [ 1] J. W. Furness, A. D. Kaplan, J. Ning, J. P. Perdew, and J. Sun, J. Phys. Chem. Lett. 11, 9248 (2020)
  Functional external parameters         .... 0
 Gradients option       PostSCFGGA      .... off
   Density functional embedding theory  .... OFF
 RI-approximation to the Coulomb term is turned on
   Number of AuxJ basis functions       .... 429


General Settings:
 Integral files         IntName         .... /lustre/hpc/kemi/ree/PhD/git/ReactivityQM/calculations/R01/reac01prodN07/conf13/gfn1/orca_calc
 Hartree-Fock type      HFTyp           .... RHF
 Total Charge           Charge          ....    1
 Multiplicity           Mult            ....    1
 Number of Electrons    NEL             ....   82
 Basis Dimension        Dim             ....  279
 Nuclear Repulsion      ENuc            ....    639.6632683329 Eh

Convergence Acceleration:
 DIIS                   CNVDIIS         .... on
   Start iteration      DIISMaxIt       ....    12
   Startup error        DIISStart       ....  0.200000
   # of expansion vecs  DIISMaxEq       ....     5
   Bias factor          DIISBfac        ....   1.050
   Max. coefficient     DIISMaxC        ....  10.000
 Trust-Rad. Augm. Hess. CNVTRAH         .... auto
   Auto Start mean grad. ratio tolernc. ....  1.125000
   Auto Start start iteration           ....    20
   Auto Start num. interpolation iter.  ....    10
   Max. Number of Micro iterations      ....    16
   Max. Number of Macro iterations      .... Maxiter - #DIIS iter
   Number of Davidson start vectors     ....     2
   Converg. threshold I  (grad. norm)   ....   5.000e-05
   Converg. threshold II (energy diff.) ....   1.000e-06
   Grad. Scal. Fac. for Micro threshold ....   0.100
   Minimum threshold for Micro iter.    ....   0.010
   NR start threshold (gradient norm)   ....   0.001
   Initial trust radius                 ....   0.400
   Minimum AH scaling param. (alpha)    ....   1.000
   Maximum AH scaling param. (alpha)    .... 1000.000
   Orbital update algorithm             .... Taylor
   White noise on init. David. guess    .... on
   Maximum white noise                  ....   0.010
   Quad. conv. algorithm                .... NR
   COSX micro iterations for RIJONX calc.... off
 SOSCF                  CNVSOSCF        .... on
   Start iteration      SOSCFMaxIt      ....   150
   Startup grad/error   SOSCFStart      ....  0.003300
 Level Shifting         CNVShift        .... on
   Level shift para.    LevelShift      ....    0.2500
   Turn off err/grad.   ShiftErr        ....    0.0010
 Zerner damping         CNVZerner       .... off
 Static damping         CNVDamp         .... on
   Fraction old density DampFac         ....    0.7000
   Max. Damping (<1)    DampMax         ....    0.9800
   Min. Damping (>=0)   DampMin         ....    0.0000
   Turn off err/grad.   DampErr         ....    0.1000
 Fernandez-Rico         CNVRico         .... off

SCF Procedure:
 Maximum # iterations   MaxIter         ....   125
 SCF integral mode      SCFMode         .... Direct
   Integral package                     .... SHARK and LIBINT hybrid scheme
 Reset frequency        DirectResetFreq ....    20
 Integral Threshold     Thresh          ....  1.000e-10 Eh
 Primitive CutOff       TCut            ....  1.000e-11 Eh

Convergence Tolerance:
 Convergence Check Mode ConvCheckMode   .... Total+1el-Energy
 Convergence forced     ConvForced      .... 0
 Energy Change          TolE            ....  1.000e-06 Eh
 1-El. energy change                    ....  1.000e-03 Eh
 Orbital Gradient       TolG            ....  5.000e-05
 Orbital Rotation angle TolX            ....  5.000e-05
 DIIS Error             TolErr          ....  1.000e-06


Diagonalization of the overlap matrix:
Smallest eigenvalue                        ... 6.081e-05
Time for diagonalization                   ...    0.022 sec
Threshold for overlap eigenvalues          ... 1.000e-08
Number of eigenvalues below threshold      ... 0
Time for construction of square roots      ...    0.010 sec
Total time needed                          ...    0.033 sec

Time for model grid setup =    0.184 sec

------------------------------
INITIAL GUESS: MODEL POTENTIAL
------------------------------
Loading Hartree-Fock densities                     ... done
Calculating cut-offs                               ... done
Initializing the effective Hamiltonian             ... done
Setting up the integral package (SHARK)            ... done
Starting the Coulomb interaction                   ... done (   0.2 sec)
Reading the grid                                   ... done
Mapping shells                                     ... done
Starting the XC term evaluation                    ... done (   0.2 sec)
  promolecular density results
     # of electrons  =     82.996082442
     EX              =    -70.918220522
     EC              =     -2.798767219
     EX+EC           =    -73.716987741
Transforming the Hamiltonian                       ... done (   0.0 sec)
Diagonalizing the Hamiltonian                      ... done (   0.0 sec)
Back transforming the eigenvectors                 ... done (   0.0 sec)
Now organizing SCF variables                       ... done
                      ------------------
                      INITIAL GUESS DONE (   0.6 sec)
                      ------------------
-------------------
DFT GRID GENERATION
-------------------

General Integration Accuracy     IntAcc      ... 4.388
Radial Grid Type                 RadialGrid  ... OptM3 with GC (2021)
Angular Grid (max. ang.)         AngularGrid ... 4 (Lebedev-302)
Angular grid pruning method      GridPruning ... 4 (adaptive)
Weight generation scheme         WeightScheme... Becke
Basis function cutoff            BFCut       ... 1.0000e-10
Integration weight cutoff        WCut        ... 1.0000e-14
Angular grids for H and He will be reduced by one unit
Partially contracted basis set               ... off
Rotationally invariant grid construction     ... off

Total number of grid points                  ...    96275
Total number of batches                      ...     1516
Average number of points per batch           ...       63
Average number of grid points per atom       ...     4814
Time for grid setup =    0.787 sec


--------------------
CPCM SOLVATION MODEL
--------------------
CPCM parameters:
  Epsilon                                         ...      46.8260
  Refrac                                          ...       1.4170
  Rsolv                                           ...       1.3000
  Surface type                                    ... GAUSSIAN VDW
  Epsilon function type                           ...         CPCM
Solvent:                                     ... DMSO
SMD-CDS solvent descriptors:
  Soln                                       ...    1.4170
  Soln25                                     ...    1.4773
  Sola                                       ...    0.0000
  Solb                                       ...    0.8800
  Solg                                       ...   61.7800
  Solc                                       ...    0.0000
  Solh                                       ...    0.0000
Radii:
 Radius for C  used is    3.4960 Bohr (=   1.8500 Ang.)
 Radius for O  used is    4.3350 Bohr (=   2.2940 Ang.)
 Radius for N  used is    3.5716 Bohr (=   1.8900 Ang.)
 Radius for H  used is    2.2677 Bohr (=   1.2000 Ang.)
Calculating surface                               ...        done! (  0.0s)
GEPOL surface points                              ...         1086
GEPOL Volume                                      ...    1328.1485
GEPOL Surface-area                                ...     722.3661
Calculating surface distance matrix               ...        done! (  0.0s)
Performing Cholesky decomposition & store         ...        done! (  0.1s)
Overall time for CPCM initialization              ...                 0.1s
--------------
SCF ITERATIONS
--------------
ITER       Energy         Delta-E        Max-DP      RMS-DP      [F,P]     Damp
               ***  Starting incremental Fock matrix formation  ***
  0   -568.6139499504   0.000000000000 0.05901542  0.00151897  0.2672928 0.7000
  1   -568.7500195281  -0.136069577728 0.04419950  0.00093826  0.0802150 0.7000
                               ***Turning on DIIS***
  2   -568.7905907592  -0.040571231096 0.07021818  0.00149130  0.0261392 0.0000
  3   -568.8691789630  -0.078588203808 0.03393951  0.00068276  0.0453950 0.0000
  4   -568.8828450994  -0.013666136396 0.01053336  0.00022196  0.0285278 0.0000
  5   -568.8849085967  -0.002063497315 0.00368837  0.00007422  0.0060525 0.0000
                      *** Initiating the SOSCF procedure ***
                           *** Shutting down DIIS ***
                      *** Re-Reading the Fockian *** 
                      *** Removing any level shift *** 
ITER      Energy       Delta-E        Grad      Rot      Max-DP    RMS-DP
  6   -568.88500889  -0.0001002974  0.000645  0.000645  0.000949  0.000027
               *** Restarting incremental Fock matrix formation ***
  7   -568.88502658  -0.0000176864  0.000334  0.003517  0.001094  0.000026
  8   -568.88502413   0.0000024473  0.000518  0.000821  0.000786  0.000014
  9   -568.88503157  -0.0000074329  0.000217  0.000716  0.000557  0.000013
 10   -568.88503004   0.0000015224  0.000318  0.000387  0.000422  0.000008
 11   -568.88503232  -0.0000022769  0.000065  0.000376  0.000149  0.000004
 12   -568.88503214   0.0000001816  0.000111  0.000205  0.000082  0.000003
 13   -568.88503241  -0.0000002723  0.000024  0.000059  0.000057  0.000002
                 **** Energy Check signals convergence ****
              ***Rediagonalizing the Fockian in SOSCF/NRSCF***

               *****************************************************
               *                     SUCCESS                       *
               *           SCF CONVERGED AFTER  14 CYCLES          *
               *****************************************************


SMD CDS free energy correction energy :                 1.67145     Kcal/mol
Total Energy after SMD CDS correction =              -568.882368744 Eh

----------------
TOTAL SCF ENERGY
----------------

Total Energy       :         -568.88236874 Eh          -15480.07625 eV

Components:
Nuclear Repulsion  :          639.66326833 Eh           17406.12244 eV
Electronic Energy  :        -1208.54563708 Eh          -32886.19869 eV
One Electron Energy:        -2027.25503412 Eh          -55164.41398 eV
Two Electron Energy:          818.70939704 Eh           22278.21530 eV
CPCM Dielectric    :           -0.09522150 Eh              -2.59111 eV
SMD CDS (Gcds)     :            0.00266363 Eh               0.07248 eV

Virial components:
Potential Energy   :        -1135.59732602 Eh          -30901.17423 eV
Kinetic Energy     :          566.71495727 Eh           15421.09798 eV
Virial Ratio       :            2.00382452


DFT components:
N(Alpha)           :       41.000027168929 electrons
N(Beta)            :       41.000027168929 electrons
N(Total)           :       82.000054337857 electrons
E(X)               :      -72.270113468181 Eh       
E(C)               :       -2.696908787454 Eh       
E(XC)              :      -74.967022255634 Eh       
DFET-embed. en.    :        0.000000000000 Eh       
CPCM Solvation Model Properties:
Surface-charge          :           -1.02072506
Charge-correction       :            0.00265101 Eh               0.07214 eV
Free-energy (cav+disp)  :            0.00266363 Eh               0.07248 eV

---------------
SCF CONVERGENCE
---------------

  Last Energy change         ...    3.4895e-08  Tolerance :   1.0000e-06
  Last MAX-Density change    ...    4.0257e-05  Tolerance :   1.0000e-05
  Last RMS-Density change    ...    1.1056e-06  Tolerance :   1.0000e-06
  Last Orbital Gradient      ...    3.5054e-05  Tolerance :   5.0000e-05
  Last Orbital Rotation      ...    3.5888e-05  Tolerance :   5.0000e-05

             **** THE GBW FILE WAS UPDATED (/lustre/hpc/kemi/ree/PhD/git/ReactivityQM/calculations/R01/reac01prodN07/conf13/gfn1/orca_calc.gbw) ****
             **** DENSITY /lustre/hpc/kemi/ree/PhD/git/ReactivityQM/calculations/R01/reac01prodN07/conf13/gfn1/orca_calc.scfp WAS UPDATED ****
             **** ENERGY FILE WAS UPDATED (/lustre/hpc/kemi/ree/PhD/git/ReactivityQM/calculations/R01/reac01prodN07/conf13/gfn1/orca_calc.en.tmp) ****
             **** THE GBW FILE WAS UPDATED (/lustre/hpc/kemi/ree/PhD/git/ReactivityQM/calculations/R01/reac01prodN07/conf13/gfn1/orca_calc.gbw) ****
             **** DENSITY /lustre/hpc/kemi/ree/PhD/git/ReactivityQM/calculations/R01/reac01prodN07/conf13/gfn1/orca_calc.scfp WAS UPDATED ****
----------------
ORBITAL ENERGIES
----------------

  NO   OCC          E(Eh)            E(eV) 
   0   2.0000     -19.137039      -520.7453 
   1   2.0000     -19.054663      -518.5038 
   2   2.0000     -18.998454      -516.9742 
   3   2.0000     -14.302439      -389.1891 
   4   2.0000     -14.288928      -388.8215 
   5   2.0000     -10.255869      -279.0764 
   6   2.0000     -10.230049      -278.3738 
   7   2.0000     -10.200527      -277.5704 
   8   2.0000     -10.100965      -274.8612 
   9   2.0000     -10.069803      -274.0133 
  10   2.0000     -10.069741      -274.0116 
  11   2.0000      -1.233584       -33.5675 
  12   2.0000      -1.135357       -30.8946 
  13   2.0000      -1.078844       -29.3568 
  14   2.0000      -1.048708       -28.5368 
  15   2.0000      -0.888991       -24.1907 
  16   2.0000      -0.771566       -20.9954 
  17   2.0000      -0.746316       -20.3083 
  18   2.0000      -0.710369       -19.3301 
  19   2.0000      -0.695351       -18.9215 
  20   2.0000      -0.661813       -18.0088 
  21   2.0000      -0.616696       -16.7811 
  22   2.0000      -0.557027       -15.1575 
  23   2.0000      -0.555045       -15.1035 
  24   2.0000      -0.499774       -13.5996 
  25   2.0000      -0.493888       -13.4394 
  26   2.0000      -0.488696       -13.2981 
  27   2.0000      -0.471675       -12.8349 
  28   2.0000      -0.440945       -11.9987 
  29   2.0000      -0.428595       -11.6627 
  30   2.0000      -0.419419       -11.4130 
  31   2.0000      -0.412147       -11.2151 
  32   2.0000      -0.403141       -10.9700 
  33   2.0000      -0.398205       -10.8357 
  34   2.0000      -0.388282       -10.5657 
  35   2.0000      -0.385334       -10.4855 
  36   2.0000      -0.365009        -9.9324 
  37   2.0000      -0.360761        -9.8168 
  38   2.0000      -0.321307        -8.7432 
  39   2.0000      -0.314803        -8.5662 
  40   2.0000      -0.303082        -8.2473 
  41   0.0000      -0.226539        -6.1644 
  42   0.0000      -0.124076        -3.3763 
  43   0.0000      -0.009287        -0.2527 
  44   0.0000       0.033499         0.9116 
  45   0.0000       0.041031         1.1165 
  46   0.0000       0.058596         1.5945 
  47   0.0000       0.085742         2.3332 
  48   0.0000       0.107142         2.9155 
  49   0.0000       0.119588         3.2542 
  50   0.0000       0.124335         3.3833 
  51   0.0000       0.130332         3.5465 
  52   0.0000       0.137704         3.7471 
  53   0.0000       0.138692         3.7740 
  54   0.0000       0.152290         4.1440 
  55   0.0000       0.166277         4.5246 
  56   0.0000       0.169255         4.6057 
  57   0.0000       0.173959         4.7337 
  58   0.0000       0.178700         4.8627 
  59   0.0000       0.183747         5.0000 
  60   0.0000       0.194889         5.3032 
  61   0.0000       0.196605         5.3499 
  62   0.0000       0.198237         5.3943 
  63   0.0000       0.203380         5.5342 
  64   0.0000       0.205856         5.6016 
  65   0.0000       0.218333         5.9411 
  66   0.0000       0.228935         6.2296 
  67   0.0000       0.233193         6.3455 
  68   0.0000       0.239673         6.5218 
  69   0.0000       0.256367         6.9761 
  70   0.0000       0.259999         7.0749 
  71   0.0000       0.286646         7.8000 
  72   0.0000       0.289947         7.8899 
  73   0.0000       0.296348         8.0640 
  74   0.0000       0.304745         8.2925 
  75   0.0000       0.313548         8.5321 
  76   0.0000       0.322630         8.7792 
  77   0.0000       0.328767         8.9462 
  78   0.0000       0.344304         9.3690 
  79   0.0000       0.354305         9.6411 
  80   0.0000       0.361350         9.8328 
  81   0.0000       0.372509        10.1365 
  82   0.0000       0.389560        10.6005 
  83   0.0000       0.398464        10.8428 
  84   0.0000       0.405049        11.0219 
  85   0.0000       0.425125        11.5682 
  86   0.0000       0.431996        11.7552 
  87   0.0000       0.446251        12.1431 
  88   0.0000       0.457305        12.4439 
  89   0.0000       0.473337        12.8802 
  90   0.0000       0.478237        13.0135 
  91   0.0000       0.486486        13.2380 
  92   0.0000       0.506066        13.7708 
  93   0.0000       0.517560        14.0835 
  94   0.0000       0.550502        14.9799 
  95   0.0000       0.557318        15.1654 
  96   0.0000       0.558806        15.2059 
  97   0.0000       0.589538        16.0421 
  98   0.0000       0.595055        16.1923 
  99   0.0000       0.596052        16.2194 
 100   0.0000       0.619403        16.8548 
 101   0.0000       0.643400        17.5078 
 102   0.0000       0.645981        17.5780 
 103   0.0000       0.665594        18.1117 
 104   0.0000       0.669671        18.2227 
 105   0.0000       0.682773        18.5792 
 106   0.0000       0.686446        18.6791 
 107   0.0000       0.717638        19.5279 
 108   0.0000       0.721777        19.6406 
 109   0.0000       0.732277        19.9263 
 110   0.0000       0.748552        20.3691 
 111   0.0000       0.761655        20.7257 
 112   0.0000       0.767599        20.8874 
 113   0.0000       0.783278        21.3141 
 114   0.0000       0.796890        21.6845 
 115   0.0000       0.822428        22.3794 
 116   0.0000       0.832155        22.6441 
 117   0.0000       0.833916        22.6920 
 118   0.0000       0.878542        23.9063 
 119   0.0000       0.897814        24.4308 
 120   0.0000       0.898326        24.4447 
 121   0.0000       0.920296        25.0425 
 122   0.0000       0.935863        25.4661 
 123   0.0000       0.959862        26.1192 
 124   0.0000       0.972191        26.4547 
 125   0.0000       1.000189        27.2165 
 126   0.0000       1.005217        27.3533 
 127   0.0000       1.031539        28.0696 
 128   0.0000       1.033470        28.1221 
 129   0.0000       1.044275        28.4162 
 130   0.0000       1.088273        29.6134 
 131   0.0000       1.091914        29.7125 
 132   0.0000       1.092549        29.7298 
 133   0.0000       1.108956        30.1762 
 134   0.0000       1.118751        30.4428 
 135   0.0000       1.122199        30.5366 
 136   0.0000       1.150518        31.3072 
 137   0.0000       1.151055        31.3218 
 138   0.0000       1.163388        31.6574 
 139   0.0000       1.192866        32.4595 
 140   0.0000       1.244409        33.8621 
 141   0.0000       1.256572        34.1931 
 142   0.0000       1.289200        35.0809 
 143   0.0000       1.299329        35.3566 
 144   0.0000       1.300521        35.3890 
 145   0.0000       1.319830        35.9144 
 146   0.0000       1.335949        36.3530 
 147   0.0000       1.339260        36.4431 
 148   0.0000       1.359376        36.9905 
 149   0.0000       1.369876        37.2762 
 150   0.0000       1.377174        37.4748 
 151   0.0000       1.393149        37.9095 
 152   0.0000       1.437769        39.1237 
 153   0.0000       1.440265        39.1916 
 154   0.0000       1.477491        40.2046 
 155   0.0000       1.496080        40.7104 
 156   0.0000       1.506089        40.9828 
 157   0.0000       1.547320        42.1047 
 158   0.0000       1.631967        44.4081 
 159   0.0000       1.659571        45.1592 
 160   0.0000       1.667286        45.3692 
 161   0.0000       1.697203        46.1832 
 162   0.0000       1.726122        46.9702 
 163   0.0000       1.738046        47.2946 
 164   0.0000       1.762903        47.9710 
 165   0.0000       1.775767        48.3211 
 166   0.0000       1.803028        49.0629 
 167   0.0000       1.809428        49.2370 
 168   0.0000       1.836700        49.9791 
 169   0.0000       1.848138        50.2904 
 170   0.0000       1.854115        50.4530 
 171   0.0000       1.858398        50.5696 
 172   0.0000       1.866101        50.7792 
 173   0.0000       1.886535        51.3352 
 174   0.0000       1.920609        52.2624 
 175   0.0000       1.945311        52.9346 
 176   0.0000       1.974323        53.7241 
 177   0.0000       1.979619        53.8682 
 178   0.0000       2.023564        55.0640 
 179   0.0000       2.031071        55.2682 
 180   0.0000       2.040924        55.5364 
 181   0.0000       2.077097        56.5207 
 182   0.0000       2.087323        56.7989 
 183   0.0000       2.100390        57.1545 
 184   0.0000       2.105347        57.2894 
 185   0.0000       2.140969        58.2587 
 186   0.0000       2.160017        58.7771 
 187   0.0000       2.177108        59.2421 
 188   0.0000       2.214827        60.2685 
 189   0.0000       2.245093        61.0921 
 190   0.0000       2.258594        61.4595 
 191   0.0000       2.261614        61.5416 
 192   0.0000       2.277400        61.9712 
 193   0.0000       2.279853        62.0379 
 194   0.0000       2.296663        62.4954 
 195   0.0000       2.308037        62.8049 
 196   0.0000       2.326892        63.3179 
 197   0.0000       2.366945        64.4079 
 198   0.0000       2.374960        64.6260 
 199   0.0000       2.376692        64.6731 
 200   0.0000       2.387079        64.9557 
 201   0.0000       2.409833        65.5749 
 202   0.0000       2.424786        65.9818 
 203   0.0000       2.439660        66.3865 
 204   0.0000       2.467232        67.1368 
 205   0.0000       2.497199        67.9522 
 206   0.0000       2.521939        68.6255 
 207   0.0000       2.548950        69.3605 
 208   0.0000       2.570502        69.9469 
 209   0.0000       2.593283        70.5668 
 210   0.0000       2.614272        71.1380 
 211   0.0000       2.621089        71.3234 
 212   0.0000       2.632194        71.6256 
 213   0.0000       2.657388        72.3112 
 214   0.0000       2.670575        72.6700 
 215   0.0000       2.682389        72.9915 
 216   0.0000       2.707893        73.6855 
 217   0.0000       2.719096        73.9904 
 218   0.0000       2.734504        74.4096 
 219   0.0000       2.749004        74.8042 
 220   0.0000       2.750526        74.8456 
 221   0.0000       2.761324        75.1395 
 222   0.0000       2.765774        75.2605 
 223   0.0000       2.782289        75.7099 
 224   0.0000       2.790774        75.9408 
 225   0.0000       2.827928        76.9518 
 226   0.0000       2.853363        77.6440 
 227   0.0000       2.870257        78.1037 
 228   0.0000       2.892527        78.7097 
 229   0.0000       2.922397        79.5225 
 230   0.0000       2.937639        79.9372 
 231   0.0000       2.949868        80.2700 
 232   0.0000       2.967484        80.7494 
 233   0.0000       2.980371        81.1000 
 234   0.0000       3.006075        81.7995 
 235   0.0000       3.036739        82.6339 
 236   0.0000       3.042497        82.7905 
 237   0.0000       3.051752        83.0424 
 238   0.0000       3.081025        83.8390 
 239   0.0000       3.089002        84.0560 
 240   0.0000       3.125832        85.0582 
 241   0.0000       3.157296        85.9144 
 242   0.0000       3.186318        86.7041 
 243   0.0000       3.206608        87.2562 
 244   0.0000       3.236151        88.0601 
 245   0.0000       3.283506        89.3487 
 246   0.0000       3.309243        90.0491 
 247   0.0000       3.319881        90.3386 
 248   0.0000       3.359810        91.4251 
 249   0.0000       3.407777        92.7303 
 250   0.0000       3.439729        93.5998 
 251   0.0000       3.486333        94.8680 
 252   0.0000       3.510197        95.5173 
 253   0.0000       3.514848        95.6439 
 254   0.0000       3.519982        95.7836 
 255   0.0000       3.538950        96.2997 
 256   0.0000       3.552425        96.6664 
 257   0.0000       3.589075        97.6637 
 258   0.0000       3.607247        98.1582 
 259   0.0000       3.668964        99.8376 
 260   0.0000       3.825003       104.0836 
 261   0.0000       3.904390       106.2439 
 262   0.0000       3.970721       108.0488 
 263   0.0000       4.083069       111.1059 
 264   0.0000       4.206870       114.4748 
 265   0.0000       4.436010       120.7100 
 266   0.0000       4.474619       121.7606 
 267   0.0000       4.600610       125.1890 
 268   0.0000      21.945167       597.1584 
 269   0.0000      21.953273       597.3789 
 270   0.0000      21.962837       597.6392 
 271   0.0000      22.044810       599.8698 
 272   0.0000      22.199875       604.0893 
 273   0.0000      22.337700       607.8397 
 274   0.0000      31.886399       867.6730 
 275   0.0000      32.091432       873.2523 
 276   0.0000      43.637820      1187.4455 
 277   0.0000      43.656161      1187.9445 
 278   0.0000      43.899731      1194.5724 

                    ********************************
                    * MULLIKEN POPULATION ANALYSIS *
                    ********************************

-----------------------
MULLIKEN ATOMIC CHARGES
-----------------------
   0 C :   -0.282799
   1 O :   -0.157787
   2 C :    0.069148
   3 O :   -0.342117
   4 C :    0.588751
   5 N :   -0.022167
   6 N :    0.028278
   7 C :    0.009255
   8 C :   -0.399304
   9 C :   -0.397350
  10 O :    0.032593
  11 H :    0.194413
  12 H :    0.197604
  13 H :    0.199061
  14 H :    0.200771
  15 H :    0.219061
  16 H :    0.221383
  17 H :    0.219127
  18 H :    0.200655
  19 H :    0.221426
Sum of atomic charges:    1.0000000

--------------------------------
MULLIKEN REDUCED ORBITAL CHARGES
--------------------------------
  0 C s       :     3.343381  s :     3.343381
      pz      :     1.103188  p :     2.897539
      px      :     0.652759
      py      :     1.141592
      dz2     :     0.005839  d :     0.041879
      dxz     :     0.010685
      dyz     :     0.005138
      dx2y2   :     0.013976
      dxy     :     0.006240
  1 O s       :     3.707234  s :     3.707234
      pz      :     1.604543  p :     4.405351
      px      :     1.364019
      py      :     1.436789
      dz2     :     0.004252  d :     0.045202
      dxz     :     0.009583
      dyz     :     0.006118
      dx2y2   :     0.017272
      dxy     :     0.007976
  2 C s       :     3.235268  s :     3.235268
      pz      :     0.814970  p :     2.559780
      px      :     0.952576
      py      :     0.792233
      dz2     :     0.016529  d :     0.135805
      dxz     :     0.010037
      dyz     :     0.028566
      dx2y2   :     0.051415
      dxy     :     0.029258
  3 O s       :     3.852067  s :     3.852067
      pz      :     1.430221  p :     4.466829
      px      :     1.624794
      py      :     1.411814
      dz2     :     0.003865  d :     0.023221
      dxz     :     0.005323
      dyz     :     0.004973
      dx2y2   :     0.002902
      dxy     :     0.006159
  4 C s       :     3.045847  s :     3.045847
      pz      :     0.703844  p :     2.275110
      px      :     0.789543
      py      :     0.781723
      dz2     :     0.010210  d :     0.090292
      dxz     :     0.013785
      dyz     :     0.013958
      dx2y2   :     0.026301
      dxy     :     0.026037
  5 N s       :     3.504523  s :     3.504523
      pz      :     1.101360  p :     3.452525
      px      :     1.017887
      py      :     1.333278
      dz2     :     0.008943  d :     0.065119
      dxz     :     0.010362
      dyz     :     0.013936
      dx2y2   :     0.017152
      dxy     :     0.014726
  6 N s       :     3.563985  s :     3.563985
      pz      :     0.991120  p :     3.354514
      px      :     1.253940
      py      :     1.109454
      dz2     :     0.007967  d :     0.053223
      dxz     :     0.025476
      dyz     :     0.003240
      dx2y2   :     0.012621
      dxy     :     0.003919
  7 C s       :     3.225236  s :     3.225236
      pz      :     0.959138  p :     2.679031
      px      :     0.798343
      py      :     0.921551
      dz2     :     0.014743  d :     0.086478
      dxz     :     0.015315
      dyz     :     0.017929
      dx2y2   :     0.023506
      dxy     :     0.014985
  8 C s       :     3.349774  s :     3.349774
      pz      :     0.899207  p :     3.024073
      px      :     1.010068
      py      :     1.114797
      dz2     :     0.003738  d :     0.025457
      dxz     :     0.007810
      dyz     :     0.006042
      dx2y2   :     0.005146
      dxy     :     0.002721
  9 C s       :     3.348472  s :     3.348472
      pz      :     0.995454  p :     3.023418
      px      :     1.071281
      py      :     0.956683
      dz2     :     0.003113  d :     0.025459
      dxz     :     0.005937
      dyz     :     0.007653
      dx2y2   :     0.005347
      dxy     :     0.003409
 10 O s       :     3.713773  s :     3.713773
      pz      :     1.548990  p :     4.201252
      px      :     1.140452
      py      :     1.511811
      dz2     :     0.011707  d :     0.052382
      dxz     :     0.010022
      dyz     :     0.013486
      dx2y2   :     0.007427
      dxy     :     0.009741
 11 H s       :     0.787636  s :     0.787636
      pz      :     0.009303  p :     0.017951
      px      :     0.004912
      py      :     0.003737
 12 H s       :     0.784488  s :     0.784488
      pz      :     0.004506  p :     0.017908
      px      :     0.002190
      py      :     0.011212
 13 H s       :     0.783065  s :     0.783065
      pz      :     0.007778  p :     0.017874
      px      :     0.002946
      py      :     0.007150
 14 H s       :     0.780858  s :     0.780858
      pz      :     0.006697  p :     0.018371
      px      :     0.004423
      py      :     0.007252
 15 H s       :     0.762528  s :     0.762528
      pz      :     0.005058  p :     0.018411
      px      :     0.003379
      py      :     0.009974
 16 H s       :     0.760163  s :     0.760163
      pz      :     0.003495  p :     0.018454
      px      :     0.010716
      py      :     0.004243
 17 H s       :     0.762460  s :     0.762460
      pz      :     0.004787  p :     0.018413
      px      :     0.003483
      py      :     0.010143
 18 H s       :     0.780972  s :     0.780972
      pz      :     0.008858  p :     0.018373
      px      :     0.006196
      py      :     0.003319
 19 H s       :     0.760118  s :     0.760118
      pz      :     0.004137  p :     0.018455
      px      :     0.010600
      py      :     0.003718


                     *******************************
                     * LOEWDIN POPULATION ANALYSIS *
                     *******************************

----------------------
LOEWDIN ATOMIC CHARGES
----------------------
   0 C :   -0.006080
   1 O :   -0.521937
   2 C :    0.405660
   3 O :   -0.318328
   4 C :    0.570830
   5 N :   -0.176403
   6 N :   -0.183437
   7 C :    0.279085
   8 C :   -0.256074
   9 C :   -0.255951
  10 O :   -0.312390
  11 H :    0.196120
  12 H :    0.199579
  13 H :    0.196712
  14 H :    0.192232
  15 H :    0.197160
  16 H :    0.201928
  17 H :    0.197130
  18 H :    0.192130
  19 H :    0.202034

-------------------------------
LOEWDIN REDUCED ORBITAL CHARGES
-------------------------------
  0 C s       :     2.911005  s :     2.911005
      pz      :     1.105432  p :     2.997670
      px      :     0.768259
      py      :     1.123979
      dz2     :     0.012664  d :     0.097405
      dxz     :     0.025290
      dyz     :     0.012384
      dx2y2   :     0.033258
      dxy     :     0.013809
  1 O s       :     3.451526  s :     3.451526
      pz      :     1.610053  p :     4.605434
      px      :     1.461030
      py      :     1.534351
      dz2     :     0.054791  d :     0.464978
      dxz     :     0.103638
      dyz     :     0.059722
      dx2y2   :     0.120893
      dxy     :     0.125934
  2 C s       :     2.709914  s :     2.709914
      pz      :     0.782329  p :     2.593874
      px      :     0.889830
      py      :     0.921715
      dz2     :     0.033744  d :     0.290552
      dxz     :     0.018999
      dyz     :     0.062687
      dx2y2   :     0.108948
      dxy     :     0.066175
  3 O s       :     3.539003  s :     3.539003
      pz      :     1.421272  p :     4.575737
      px      :     1.652557
      py      :     1.501908
      dz2     :     0.027025  d :     0.203589
      dxz     :     0.022439
      dyz     :     0.040297
      dx2y2   :     0.054953
      dxy     :     0.058873
  4 C s       :     2.743128  s :     2.743128
      pz      :     0.690149  p :     2.499690
      px      :     0.958687
      py      :     0.850853
      dz2     :     0.020249  d :     0.186353
      dxz     :     0.024329
      dyz     :     0.032875
      dx2y2   :     0.051842
      dxy     :     0.057058
  5 N s       :     3.181061  s :     3.181061
      pz      :     1.058008  p :     3.504147
      px      :     1.144732
      py      :     1.301406
      dz2     :     0.058129  d :     0.491196
      dxz     :     0.084758
      dyz     :     0.048864
      dx2y2   :     0.151535
      dxy     :     0.147910
  6 N s       :     3.195910  s :     3.195910
      pz      :     0.957892  p :     3.424314
      px      :     1.307643
      py      :     1.158780
      dz2     :     0.068679  d :     0.563212
      dxz     :     0.104277
      dyz     :     0.078619
      dx2y2   :     0.149102
      dxy     :     0.162536
  7 C s       :     2.752417  s :     2.752417
      pz      :     0.996368  p :     2.796294
      px      :     0.843492
      py      :     0.956434
      dz2     :     0.025640  d :     0.172204
      dxz     :     0.032201
      dyz     :     0.036062
      dx2y2   :     0.048967
      dxy     :     0.029335
  8 C s       :     2.961839  s :     2.961839
      pz      :     0.996199  p :     3.237280
      px      :     1.076760
      py      :     1.164321
      dz2     :     0.008172  d :     0.056955
      dxz     :     0.016299
      dyz     :     0.014286
      dx2y2   :     0.012257
      dxy     :     0.005941
  9 C s       :     2.961767  s :     2.961767
      pz      :     1.072586  p :     3.237226
      px      :     1.127292
      py      :     1.037348
      dz2     :     0.006894  d :     0.056958
      dxz     :     0.013425
      dyz     :     0.016830
      dx2y2   :     0.012973
      dxy     :     0.006836
 10 O s       :     3.427830  s :     3.427830
      pz      :     1.513659  p :     4.409178
      px      :     1.349515
      py      :     1.546004
      dz2     :     0.053752  d :     0.475382
      dxz     :     0.109480
      dyz     :     0.060663
      dx2y2   :     0.127941
      dxy     :     0.123547
 11 H s       :     0.761435  s :     0.761435
      pz      :     0.023651  p :     0.042445
      px      :     0.010452
      py      :     0.008343
 12 H s       :     0.758874  s :     0.758874
      pz      :     0.009991  p :     0.041547
      px      :     0.004017
      py      :     0.027539
 13 H s       :     0.761102  s :     0.761102
      pz      :     0.018602  p :     0.042185
      px      :     0.006128
      py      :     0.017455
 14 H s       :     0.762681  s :     0.762681
      pz      :     0.016061  p :     0.045087
      px      :     0.010706
      py      :     0.018320
 15 H s       :     0.757328  s :     0.757328
      pz      :     0.011775  p :     0.045512
      px      :     0.007485
      py      :     0.026252
 16 H s       :     0.752571  s :     0.752571
      pz      :     0.007990  p :     0.045501
      px      :     0.027523
      py      :     0.009988
 17 H s       :     0.757351  s :     0.757351
      pz      :     0.011784  p :     0.045519
      px      :     0.007850
      py      :     0.025885
 18 H s       :     0.762774  s :     0.762774
      pz      :     0.022151  p :     0.045096
      px      :     0.015732
      py      :     0.007212
 19 H s       :     0.752467  s :     0.752467
      pz      :     0.009450  p :     0.045499
      px      :     0.027450
      py      :     0.008599


                      *****************************
                      * MAYER POPULATION ANALYSIS *
                      *****************************

  NA   - Mulliken gross atomic population
  ZA   - Total nuclear charge
  QA   - Mulliken gross atomic charge
  VA   - Mayer's total valence
  BVA  - Mayer's bonded valence
  FA   - Mayer's free valence

  ATOM       NA         ZA         QA         VA         BVA        FA
  0 C      6.2828     6.0000    -0.2828     3.6894     3.6894     0.0000
  1 O      8.1578     8.0000    -0.1578     2.0930     2.0930    -0.0000
  2 C      5.9309     6.0000     0.0691     4.1132     4.1132    -0.0000
  3 O      8.3421     8.0000    -0.3421     2.0434     2.0434     0.0000
  4 C      5.4112     6.0000     0.5888     3.6947     3.6947    -0.0000
  5 N      7.0222     7.0000    -0.0222     2.9771     2.9771    -0.0000
  6 N      6.9717     7.0000     0.0283     2.7546     2.7546    -0.0000
  7 C      5.9907     6.0000     0.0093     3.6729     3.6729    -0.0000
  8 C      6.3993     6.0000    -0.3993     3.7915     3.7915    -0.0000
  9 C      6.3973     6.0000    -0.3973     3.7925     3.7925     0.0000
 10 O      7.9674     8.0000     0.0326     2.2871     2.2871    -0.0000
 11 H      0.8056     1.0000     0.1944     0.9459     0.9459     0.0000
 12 H      0.8024     1.0000     0.1976     0.9453     0.9453    -0.0000
 13 H      0.8009     1.0000     0.1991     0.9431     0.9431     0.0000
 14 H      0.7992     1.0000     0.2008     0.9455     0.9455    -0.0000
 15 H      0.7809     1.0000     0.2191     0.9410     0.9410    -0.0000
 16 H      0.7786     1.0000     0.2214     0.9413     0.9413    -0.0000
 17 H      0.7809     1.0000     0.2191     0.9409     0.9409     0.0000
 18 H      0.7993     1.0000     0.2007     0.9455     0.9455    -0.0000
 19 H      0.7786     1.0000     0.2214     0.9413     0.9413     0.0000

  Mayer bond orders larger than 0.100000
B(  0-C ,  1-O ) :   0.8136 B(  0-C , 11-H ) :   0.9435 B(  0-C , 12-H ) :   0.9528 
B(  0-C , 13-H ) :   0.9390 B(  1-O ,  2-C ) :   1.1872 B(  2-C ,  3-O ) :   1.8690 
B(  2-C ,  4-C ) :   0.9514 B(  4-C ,  5-N ) :   1.0838 B(  4-C , 10-O ) :   1.4463 
B(  5-N ,  6-N ) :   1.7171 B(  6-N ,  7-C ) :   0.8267 B(  7-C ,  8-C ) :   0.9685 
B(  7-C ,  9-C ) :   0.9708 B(  7-C , 10-O ) :   0.7269 B(  8-C , 14-H ) :   0.9106 
B(  8-C , 15-H ) :   0.9377 B(  8-C , 16-H ) :   0.9305 B(  9-C , 17-H ) :   0.9379 
B(  9-C , 18-H ) :   0.9095 B(  9-C , 19-H ) :   0.9306 

-------
TIMINGS
-------

Total SCF time: 0 days 0 hours 0 min 35 sec 

Total time                  ....      35.113 sec
Sum of individual times     ....      34.441 sec  ( 98.1%)

Fock matrix formation       ....      32.309 sec  ( 92.0%)
  Split-RI-J                ....       3.947 sec  ( 12.2% of F)
  XC integration            ....      18.761 sec  ( 58.1% of F)
    Basis function eval.    ....       3.077 sec  ( 16.4% of XC)
    Density eval.           ....       5.943 sec  ( 31.7% of XC)
    XC-Functional eval.     ....       2.518 sec  ( 13.4% of XC)
    XC-Potential eval.      ....       5.659 sec  ( 30.2% of XC)
Diagonalization             ....       0.249 sec  (  0.7%)
Density matrix formation    ....       0.012 sec  (  0.0%)
Population analysis         ....       0.171 sec  (  0.5%)
Initial guess               ....       0.401 sec  (  1.1%)
Orbital Transformation      ....       0.000 sec  (  0.0%)
Orbital Orthonormalization  ....       0.000 sec  (  0.0%)
DIIS solution               ....       0.150 sec  (  0.4%)
SOSCF solution              ....       0.178 sec  (  0.5%)
Grid generation             ....       0.970 sec  (  2.8%)

Maximum memory used throughout the entire SCF-calculation: 41.1 MB


-------------------------------------------------------------------------------
                          DFT DISPERSION CORRECTION                            
                                                                               
                                 DFTD4 V2.5                                    
-------------------------------------------------------------------------------
The R2SCAN3C composite method is recognized
Using three-body term ABC
Active option DFTDOPT                   ...         5   

Starting D4
-------------------------   ----------------
Dispersion correction           -0.005965900
-------------------------   ----------------

------------------   -----------------
gCP correction             0.018658363
------------------   -----------------

-------------------------   --------------------
FINAL SINGLE POINT ENERGY      -568.869676280861
-------------------------   --------------------


                            ***************************************
                            *     ORCA property calculations      *
                            ***************************************

                                    ---------------------
                                    Active property flags
                                    ---------------------
   (+) Dipole Moment


------------------------------------------------------------------------------
                       ORCA ELECTRIC PROPERTIES CALCULATION
------------------------------------------------------------------------------

Dipole Moment Calculation                       ... on
Quadrupole Moment Calculation                   ... off
Polarizability Calculation                      ... off
GBWName                                         ... /lustre/hpc/kemi/ree/PhD/git/ReactivityQM/calculations/R01/reac01prodN07/conf13/gfn1/orca_calc.gbw
Electron density                                ... /lustre/hpc/kemi/ree/PhD/git/ReactivityQM/calculations/R01/reac01prodN07/conf13/gfn1/orca_calc.scfp
The origin for moment calculation is the CENTER OF MASS  = ( 0.544084, -0.714026 -0.509290)

-------------
DIPOLE MOMENT
-------------
                                X             Y             Z
Electronic contribution:      3.48240      -5.31236      -2.16558
Nuclear contribution   :     -4.95948       7.35405       2.98370
                        -----------------------------------------
Total Dipole Moment    :     -1.47707       2.04169       0.81812
                        -----------------------------------------
Magnitude (a.u.)       :      2.64945
Magnitude (Debye)      :      6.73436



--------------------
Rotational spectrum 
--------------------
 
Rotational constants in cm-1:     0.083908     0.022144     0.019851 
Rotational constants in MHz :  2515.490843   663.856495   595.116161 

 Dipole components along the rotational axes: 
x,y,z [a.u.] :     1.422333    -2.235107    -0.028711 
x,y,z [Debye]:     3.615284    -5.681191    -0.072979 

 

Timings for individual modules:

Sum of individual times         ...       36.016 sec (=   0.600 min)
GTO integral calculation        ...        0.655 sec (=   0.011 min)   1.8 %
SCF iterations                  ...       35.361 sec (=   0.589 min)  98.2 %
                             ****ORCA TERMINATED NORMALLY****
TOTAL RUN TIME: 0 days 0 hours 0 minutes 36 seconds 706 msec
