20
 energy: -37.575225752941 gnorm: 0.000623964436 xtb: 6.5.1 (579679a)
C            3.77376402326155        0.50246548718413        0.62088989192317
O            2.36201205094939        0.35971915548337        0.36018731529173
C            1.95952561576317       -0.73589464525426       -0.21075643754271
O            2.60738616220277       -1.67591519214522       -0.56328410867966
C            0.43769383701882       -0.70535968479446       -0.40999758862129
N           -0.27434919956418       -1.70449821302940       -1.03103050172158
N           -1.48555975077651       -1.35842409607196       -1.02448839014719
C           -1.63857650631573       -0.10043525901687       -0.39112243642641
C           -2.50730268534948       -0.22134290086064        0.87147141779530
C           -2.18719469146790        0.94943210806258       -1.37100119076195
O           -0.30617253167164        0.23956012205180       -0.02349755880069
H            4.33196430485405        0.32778137398017       -0.29986784025985
H            3.90908324609904        1.52016725580506        0.97748231972221
H            4.07209119480993       -0.22113787954787        1.38064806154685
H           -2.06109622856308       -0.95283333065067        1.54183004112634
H           -2.55098140444354        0.75107285791512        1.35611127866204
H           -3.50402239872200       -0.54091596167258        0.57706175418390
H           -2.23863672823800        1.90780941684567       -0.85999759623618
H           -1.52049652007049        1.01899369810893       -2.22776575219389
H           -3.17913278977577        0.63975468760742       -1.69099467886027
