42
 energy: -82.976052317803 gnorm: 0.000573667426 xtb: 6.5.1 (579679a)
C           -6.72272461841680        0.30833302134466        0.85016361178421
O           -5.40966296613458        0.37556198379898        0.29144573024490
C           -4.48593526292505       -0.42678118363244        0.85036845436418
O           -4.73448048057332       -1.17317454052563        1.77544897103817
C           -3.17859703384333       -0.28253595537087        0.22537064620046
C           -2.85091567121958        0.53542718769200       -0.83612884266637
O           -3.31185762509404        1.34314288236070       -1.58402899611196
C           -0.50800500406908        1.46737950752778       -0.87489051979814
C           -0.60789550851368        2.09781931221719        0.46753783605105
O            0.05288461301619        1.90179299696161       -1.83222418371540
N           -1.23582169723417        0.19911161383119       -1.01976095222051
C           -1.04373403986741       -0.82170660671425        0.02994627530071
C            0.23368309998610       -1.60438793733174        0.15620504383330
C            0.27883658507630       -2.66565764458917       -0.95725059930714
C            0.26092575727820       -2.25499390492577        1.54430049701311
N            1.37615158192863       -0.70075185520442        0.00481587403215
C            2.66587977414937       -1.10952077879252        0.06937240625531
O            3.04338084889716       -2.23097575147577        0.34840908632651
C            3.57542636603654        0.02338141110131       -0.23581130899669
N            3.20548051992050        1.23409701404114       -0.53059397690363
N            4.34263164181997        1.95002840309013       -0.74771872144486
C            5.33533349303683        1.13040875521336       -0.57157359344688
C            6.78007650722101        1.42519102599876       -0.68835607930248
O            4.91408841117063       -0.10049608548145       -0.24568948556888
N           -2.11152605874701       -1.05358500329515        0.67462333511768
H           -7.12619770622263       -0.70280327617365        0.75056046543220
H           -7.33549657934485        1.01419222970704        0.29236687318390
H           -6.69903524907136        0.58379664935706        1.90781123260153
H            0.31184879967659        2.64039169619307        0.67440627653098
H           -0.80657600833106        1.36851306204834        1.24764265308003
H           -1.42706428271847        2.81809310137527        0.43608886002061
H           -1.08304236807797       -0.15269908779339       -1.96274647297872
H           -0.61141312971690       -3.28926259077220       -0.90381051609959
H            1.16207829050308       -3.28994099584688       -0.83416706172950
H            0.31908444091640       -2.17969739317338       -1.93012557225933
H            1.14096752550321       -2.88631636661218        1.64546989094570
H            0.27981177188050       -1.48367830866856        2.31259296186483
H           -0.63321429774636       -2.86284459696381        1.67377527729444
H            1.21644319575479        0.23636131469491       -0.33136518108768
H            7.26401670039388        1.30237909509362        0.28077469292849
H            6.91703130284588        2.44645965515476       -1.03492994042537
H            7.24713236084545        0.73302494454388       -1.38832494738800
