      -----------------------------------------------------------      
     |                   =====================                   |     
     |                           x T B                           |     
     |                   =====================                   |     
     |                         S. Grimme                         |     
     |          Mulliken Center for Theoretical Chemistry        |     
     |                    University of Bonn                     |     
      -----------------------------------------------------------      

   * xtb version 6.5.1 (579679a) compiled by 'ehlert@majestix' on 2022-07-11

   xtb is free software: you can redistribute it and/or modify it under
   the terms of the GNU Lesser General Public License as published by
   the Free Software Foundation, either version 3 of the License, or
   (at your option) any later version.
   
   xtb is distributed in the hope that it will be useful,
   but WITHOUT ANY WARRANTY; without even the implied warranty of
   MERCHANTABILITY or FITNESS FOR A PARTICULAR PURPOSE.  See the
   GNU Lesser General Public License for more details.
   
   Cite this work as:
   * C. Bannwarth, E. Caldeweyher, S. Ehlert, A. Hansen, P. Pracht,
     J. Seibert, S. Spicher, S. Grimme, WIREs Comput. Mol. Sci., 2020, 11,
     e01493. DOI: 10.1002/wcms.1493
   
   for GFN2-xTB:
   * C. Bannwarth, S. Ehlert and S. Grimme., J. Chem. Theory Comput., 2019,
     15, 1652-1671. DOI: 10.1021/acs.jctc.8b01176
   for GFN1-xTB:
   * S. Grimme, C. Bannwarth, P. Shushkov, J. Chem. Theory Comput., 2017,
     13, 1989-2009. DOI: 10.1021/acs.jctc.7b00118
   for GFN0-xTB:
   * P. Pracht, E. Caldeweyher, S. Ehlert, S. Grimme, ChemRxiv, 2019, preprint.
     DOI: 10.26434/chemrxiv.8326202.v1
   for GFN-FF:
   * S. Spicher and S. Grimme, Angew. Chem. Int. Ed., 2020, 59, 15665-15673.
     DOI: 10.1002/anie.202004239
   
   for ALPB and GBSA implicit solvation:
   * S. Ehlert, M. Stahn, S. Spicher, S. Grimme, J. Chem. Theory Comput.,
     2021, 17, 4250-4261. DOI: 10.1021/acs.jctc.1c00471
   
   for DFT-D4:
   * E. Caldeweyher, C. Bannwarth and S. Grimme, J. Chem. Phys., 2017,
     147, 034112. DOI: 10.1063/1.4993215
   * E. Caldeweyher, S. Ehlert, A. Hansen, H. Neugebauer, S. Spicher,
     C. Bannwarth and S. Grimme, J. Chem. Phys., 2019, 150, 154122.
     DOI: 10.1063/1.5090222
   * E. Caldeweyher, J.-M. Mewes, S. Ehlert and S. Grimme, Phys. Chem. Chem. Phys.
     2020, 22, 8499-8512. DOI: 10.1039/D0CP00502A
   
   for sTDA-xTB:
   * S. Grimme and C. Bannwarth, J. Chem. Phys., 2016, 145, 054103.
     DOI: 10.1063/1.4959605
   
   in the mass-spec context:
   * V. Asgeirsson, C. Bauer and S. Grimme, Chem. Sci., 2017, 8, 4879.
     DOI: 10.1039/c7sc00601b
   * J. Koopman and S. Grimme, ACS Omega 2019, 4, 12, 15120-15133.
     DOI: 10.1021/acsomega.9b02011
   
   for metadynamics refer to:
   * S. Grimme, J. Chem. Theory Comput., 2019, 155, 2847-2862
     DOI: 10.1021/acs.jctc.9b00143
   
   for SPH calculations refer to:
   * S. Spicher and S. Grimme, J. Chem. Theory Comput., 2021, 17, 1701-1714
     DOI: 10.1021/acs.jctc.0c01306
   
   with help from (in alphabetical order)
   P. Atkinson, C. Bannwarth, F. Bohle, G. Brandenburg, E. Caldeweyher
   M. Checinski, S. Dohm, S. Ehlert, S. Ehrlich, I. Gerasimov, C. Hölzer
   A. Katbashev, J. Koopman, C. Lavigne, S. Lehtola, F. März, M. Müller,
   F. Musil, H. Neugebauer, J. Pisarek, C. Plett, P. Pracht, F. Pultar,
   J. Seibert, P. Shushkov, S. Spicher, M. Stahn, M. Steiner, T. Strunk,
   J. Stückrath, T. Rose, and J. Unsleber
   
 * started run on 2023/06/21 at 17:29:25.443     

           -------------------------------------------------
          |                Calculation Setup                |
           -------------------------------------------------

          program call               : /lustre/hpc/kemi/ree/PhD/git/ReactivityQM/dep/xtb-6.5.1/bin/xtb --gfn 1 /lustre/hpc/kemi/ree/PhD/git/ReactivityQM/calculations/R02methylcation/reac01prodN01/conf01/R02methylcation_reac01prodN01_conf01_gfn1.xyz --opt --vfukui --chrg 0 --uhf 0 --alpb DMSO
          hostname                   : node317
          coordinate file            : /lustre/hpc/kemi/ree/PhD/git/ReactivityQM/calculations/R02methylcation/reac01prodN01/conf01/R02methylcation_reac01prodN01_conf01_gfn1.xyz
          omp threads                :                     1

   ID    Z sym.   atoms
    1    6 C      1, 3, 5, 7-10, 12, 14, 17, 18, 20, 22, 24
    2    8 O      2, 4, 13, 19, 23, 25
    3    7 N      6, 11, 15, 16, 21
    4    1 H      26-42

           -------------------------------------------------
          |                 G F N 1 - x T B                 |
           -------------------------------------------------

        Reference                      10.1021/acs.jctc.7b00118
      * Hamiltonian:
        H0-scaling (s, p, d)           1.850000    2.250000    2.000000
        zeta-weighting                 0.000000
      * Dispersion:
        s8                             2.400000
        a1                             0.630000
        a2                             5.000000
        s9                             0.000000
      * Repulsion:
        kExp                           1.500000
        rExp                           1.000000
      * Coulomb:
        alpha                          2.000000
        third order                    atomic
        anisotropic                    false
      * Halogen bond correction:
        rad-scale                      1.300000
        damping                        0.440000

      * Solvation model:               ALPB
        Solvent                        DMSO
        Parameter file                 internal GFN1-xTB/ALPB
        Dielectric constant                4.6680E+01
        Reference state                gsolv [1 M gas/solution]
        Free energy shift                  7.6243E-03 Eh       4.7843E+00 kcal/mol
        Temperature                        2.9815E+02 K
        Density                            1.1000E+00 kg/L
        Solvent mass                       7.8130E+01 g/mol
        Interaction kernel             P16
        Born radius scaling (c1)           1.7672E+00
        Born radii integrator          GBOBC
        Born offset                        0.0000E+00 a0       0.0000E+00 AA
        H-bond correction              true
        Ion screening                  false
        Surface tension                    1.0000E-05 Eh       1.5569E+01 dyn/cm
        Grid points                               230 per atom

          ...................................................
          :                      SETUP                      :
          :.................................................:
          :  # basis functions                 134          :
          :  # atomic orbitals                 134          :
          :  # shells                           84          :
          :  # electrons                       134          :
          :  # halogen bonds                     0          :
          :  max. iterations                   250          :
          :  Hamiltonian                  GFN1-xTB          :
          :  restarted?                      false          :
          :  GBSA solvation                   true          :
          :  PC potential                    false          :
          :  electronic temp.          300.0000000     K    :
          :  accuracy                    1.0000000          :
          :  -> integral cutoff          0.2500000E+02      :
          :  -> integral neglect         0.1000000E-07      :
          :  -> SCF convergence          0.1000000E-05 Eh   :
          :  -> wf. convergence          0.2000000E-04 e    :
          :  Broyden damping             0.4000000          :
          ...................................................

 iter      E             dE          RMSdq      gap      omega  full diag
   1    -83.2472421 -0.832472E+02  0.852E+00    2.60       0.0  T
   2    -83.6167638 -0.369522E+00  0.510E+00    0.70       1.0  T
   3    -83.2584515  0.358312E+00  0.243E+00    0.36       1.0  T
   4    -83.5561310 -0.297679E+00  0.135E+00    2.30       1.0  T
   5    -83.6277350 -0.716040E-01  0.603E-01    1.84       1.0  T
   6    -83.6368648 -0.912974E-02  0.420E-01    1.07       1.0  T
   7    -83.6426549 -0.579011E-02  0.249E-01    0.36       1.0  T
   8    -83.3018104  0.340844E+00  0.165E+00    0.28       1.0  T
   9    -83.6418527 -0.340042E+00  0.271E-01    0.43       1.0  T
  10    -83.6416331  0.219515E-03  0.273E-01    0.47       1.0  T
  11    -83.6420010 -0.367870E-03  0.258E-01    0.41       1.0  T
  12    -83.6428937 -0.892640E-03  0.226E-01    0.30       1.0  T
  13    -83.6438309 -0.937267E-03  0.200E-01    0.24       1.0  T
  14    -83.6470906 -0.325964E-02  0.105E-01    0.15       1.0  T
  15    -83.6461333  0.957305E-03  0.138E-01    0.17       1.0  T
  16    -83.6436171  0.251612E-02  0.193E-01    0.07       1.0  T
  17    -83.6465632 -0.294612E-02  0.123E-01    0.16       1.0  T
  18    -83.6480612 -0.149790E-02  0.554E-02    0.10       1.0  T
  19    -83.6483758 -0.314635E-03  0.254E-02    0.12       1.0  T
  20    -83.6484268 -0.509909E-04  0.156E-02    0.11       1.0  T
  21    -83.6484576 -0.308656E-04  0.209E-03    0.11       7.4  T
  22    -83.6484572  0.471154E-06  0.283E-03    0.11       5.4  T
  23    -83.6484582 -0.999250E-06  0.485E-04    0.11      31.8  T
  24    -83.6484582 -0.299812E-07  0.246E-05    0.11     627.3  T
  25    -83.6484582 -0.754738E-10  0.510E-06    0.11    3027.7  T

   *** convergence criteria satisfied after 25 iterations ***

         #    Occupation            Energy/Eh            Energy/eV
      -------------------------------------------------------------
         1        2.0000           -0.9311931             -25.3391
       ...           ...                  ...                  ...
        61        2.0000           -0.4702823             -12.7970
        62        2.0000           -0.4628229             -12.5941
        63        2.0000           -0.4555179             -12.3953
        64        2.0000           -0.4524068             -12.3106
        65        2.0000           -0.4407917             -11.9946
        66        2.0000           -0.3932528             -10.7010
        67        1.7939           -0.3774578             -10.2711 (HOMO)
        68        0.2061           -0.3733467             -10.1593 (LUMO)
        69                         -0.3052536              -8.3064
        70                         -0.2871522              -7.8138
        71                         -0.2610470              -7.1035
        72                         -0.2327488              -6.3334
       ...                                ...                  ...
       134                          0.7985163              21.7287
      -------------------------------------------------------------
                  HL-Gap            0.0041110 Eh            0.1119 eV
             Fermi-level           -0.3754023 Eh          -10.2152 eV

 SCC (total)                   0 d,  0 h,  0 min,  0.281 sec
 SCC setup                      ...        0 min,  0.002 sec (  0.800%)
 Dispersion                     ...        0 min,  0.000 sec (  0.152%)
 classical contributions        ...        0 min,  0.000 sec (  0.048%)
 integral evaluation            ...        0 min,  0.035 sec ( 12.525%)
 iterations                     ...        0 min,  0.115 sec ( 41.163%)
 molecular gradient             ...        0 min,  0.113 sec ( 40.378%)
 printout                       ...        0 min,  0.014 sec (  4.917%)

         :::::::::::::::::::::::::::::::::::::::::::::::::::::
         ::                     SUMMARY                     ::
         :::::::::::::::::::::::::::::::::::::::::::::::::::::
         :: total energy             -82.882774390092 Eh    ::
         :: total w/o Gsasa/hb       -82.861752311490 Eh    ::
         :: gradient norm              0.143581348032 Eh/a0 ::
         :: HOMO-LUMO gap              0.111866960657 eV    ::
         ::.................................................::
         :: SCC energy               -83.648458202423 Eh    ::
         :: -> electrostatic           0.440361991665 Eh    ::
         :: -> Gsolv                  -0.104805157384 Eh    ::
         ::    -> Gelec               -0.083783078782 Eh    ::
         ::    -> Gsasa               -0.024326846080 Eh    ::
         ::    -> Ghb                 -0.004319511527 Eh    ::
         ::    -> Gshift               0.007624279005 Eh    ::
         :: repulsion energy           0.791518960138 Eh    ::
         :: dispersion energy         -0.025835147808 Eh    ::
         :: halogen bond corr.         0.000000000000 Eh    ::
         :: add. restraining           0.000000000000 Eh    ::
         :: total charge              -0.000000000000 e     ::
         :::::::::::::::::::::::::::::::::::::::::::::::::::::

      ----------------------------------------------------------- 
     |                   =====================                   |
     |                        A N C O P T                        |
     |                   =====================                   |
     |               Approximate Normal Coordinate               |
     |                Rational Function Optimizer                |
      ----------------------------------------------------------- 

          ...................................................
          :                      SETUP                      :
          :.................................................:
          :   optimization level            normal          :
          :   max. optcycles                   200          :
          :   ANC micro-cycles                  20          :
          :   degrees of freedom               120          :
          :.................................................:
          :   RF solver                   davidson          :
          :   write xtbopt.log                true          :
          :   linear?                        false          :
          :   energy convergence         0.5000000E-05 Eh   :
          :   grad. convergence          0.1000000E-02 Eh/α :
          :   maximium RF displ.         1.0000000          :
          :   Hlow (freq-cutoff)         0.1000000E-01      :
          :   Hmax (freq-cutoff)         5.0000000          :
          :   S6 in model hess.         20.0000000          :
          ...................................................

generating ANC from model Hessian ...
Using Lindh-Hessian (1995)
 Shifting diagonal of input Hessian by   9.759103459634506E-003
 Lowest  eigenvalues of input Hessian
    0.000000    0.000000    0.000000    0.000000    0.000000    0.000000
    0.010000    0.010085    0.010292    0.010605    0.011945    0.012272
    0.012812    0.013874    0.014392    0.014509    0.016188    0.016582
 Highest eigenvalues
    2.074815    2.092243    2.235446    2.341043    2.360416    2.454336
 

........................................................................
.............................. CYCLE    1 ..............................
........................................................................
   1    -83.6484582 -0.836485E+02  0.134E-05    0.11       0.0  T
   2    -83.6484582  0.137678E-08  0.105E-04    0.11     147.3  T
   3    -83.6484582 -0.139984E-08  0.343E-07    0.11   45042.7  T
     SCC iter.                  ...        0 min,  0.013 sec
     gradient                   ...        0 min,  0.081 sec
 * total energy  :   -82.8827744 Eh     change       -0.3510081E-11 Eh
   gradient norm :     0.1435807 Eh/α   predicted     0.0000000E+00 (-100.00%)
   displ. norm   :     0.3636654 α      lambda       -0.2243680E-01
   maximum displ.:     0.1760539 α      in ANC's #20, #27, #21, ...

........................................................................
.............................. CYCLE    2 ..............................
........................................................................
   1    -83.6600970 -0.836601E+02  0.204E-01    0.41       0.0  T
   2    -83.3867397  0.273357E+00  0.148E+00    0.10       1.0  T
   3    -83.6609788 -0.274239E+00  0.170E-01    0.34       1.0  T
   4    -83.6613391 -0.360293E-03  0.155E-01    0.29       1.0  T
   5    -83.6624689 -0.112980E-02  0.114E-01    0.21       1.0  T
   6    -83.6638031 -0.133424E-02  0.378E-02    0.15       1.0  T
   7    -83.6639594 -0.156309E-03  0.857E-03    0.14       1.8  T
   8    -83.6639671 -0.763306E-05  0.122E-03    0.13      12.6  T
   9    -83.6639670  0.180565E-07  0.112E-03    0.13      13.8  T
  10    -83.6639672 -0.153678E-06  0.290E-04    0.13      53.2  T
  11    -83.6639672 -0.462305E-08  0.195E-04    0.13      79.2  T
  12    -83.6639672 -0.414762E-08  0.321E-05    0.13     481.0  T
     SCC iter.                  ...        0 min,  0.045 sec
     gradient                   ...        0 min,  0.081 sec
 * total energy  :   -82.8996857 Eh     change       -0.1691133E-01 Eh
   gradient norm :     0.0787181 Eh/α   predicted    -0.1273176E-01 ( -24.71%)
   displ. norm   :     0.4350262 α      lambda       -0.1334913E-01
   maximum displ.:     0.2380122 α      in ANC's #20, #27, #21, ...

........................................................................
.............................. CYCLE    3 ..............................
........................................................................
   1    -83.6815043 -0.836815E+02  0.161E-01    0.51       0.0  T
   2    -83.6826579 -0.115365E-02  0.973E-02    0.15       1.0  T
   3    -83.6829776 -0.319663E-03  0.539E-02    0.24       1.0  T
   4    -83.6832624 -0.284860E-03  0.157E-02    0.18       1.0  T
   5    -83.6832081  0.543487E-04  0.235E-02    0.16       1.0  T
   6    -83.6832212 -0.130901E-04  0.207E-02    0.20       1.0  T
   7    -83.6832659 -0.446728E-04  0.514E-03    0.17       3.0  T
   8    -83.6832687 -0.281795E-05  0.164E-03    0.18       9.4  T
   9    -83.6832690 -0.320858E-06  0.160E-04    0.18      96.6  T
  10    -83.6832690 -0.224381E-08  0.395E-05    0.18     390.9  T
     SCC iter.                  ...        0 min,  0.036 sec
     gradient                   ...        0 min,  0.081 sec
 * total energy  :   -82.9081934 Eh     change       -0.8507634E-02 Eh
   gradient norm :     0.0264607 Eh/α   predicted    -0.7937713E-02 (  -6.70%)
   displ. norm   :     0.3460131 α      lambda       -0.3418040E-02
   maximum displ.:     0.1719803 α      in ANC's #20, #27, #19, ...

........................................................................
.............................. CYCLE    4 ..............................
........................................................................
   1    -83.6877344 -0.836877E+02  0.658E-02    0.35       0.0  T
   2    -83.6879777 -0.243297E-03  0.437E-02    0.20       1.0  T
   3    -83.6880703 -0.925209E-04  0.143E-02    0.23       1.1  T
   4    -83.6880530  0.172164E-04  0.157E-02    0.20       1.0  T
   5    -83.6880791 -0.260483E-04  0.351E-03    0.22       4.4  T
   6    -83.6880791 -0.419504E-09  0.100E-03    0.22      15.4  T
   7    -83.6880791 -0.508510E-07  0.244E-04    0.22      63.2  T
   8    -83.6880791 -0.306058E-08  0.752E-05    0.22     205.1  T
   9    -83.6880791 -0.209894E-10  0.222E-05    0.22     695.0  T
     SCC iter.                  ...        0 min,  0.034 sec
     gradient                   ...        0 min,  0.081 sec
 * total energy  :   -82.9107110 Eh     change       -0.2517658E-02 Eh
   gradient norm :     0.0200066 Eh/α   predicted    -0.1913669E-02 ( -23.99%)
   displ. norm   :     0.3747795 α      lambda       -0.2291392E-02
   maximum displ.:     0.1485001 α      in ANC's #27, #20, #2, ...

........................................................................
.............................. CYCLE    5 ..............................
........................................................................
   1    -83.6904004 -0.836904E+02  0.385E-02    0.34       0.0  T
   2    -83.6905042 -0.103745E-03  0.268E-02    0.28       1.0  T
   3    -83.6905223 -0.181144E-04  0.109E-02    0.28       1.4  T
   4    -83.6905228 -0.459420E-06  0.390E-03    0.27       4.0  T
   5    -83.6905229 -0.141010E-06  0.962E-04    0.27      16.0  T
   6    -83.6905229 -0.101308E-07  0.202E-04    0.27      76.3  T
   7    -83.6905229 -0.909822E-09  0.872E-05    0.27     176.9  T
   8    -83.6905229 -0.897700E-10  0.398E-05    0.27     387.6  T
     SCC iter.                  ...        0 min,  0.026 sec
     gradient                   ...        0 min,  0.072 sec
 * total energy  :   -82.9122869 Eh     change       -0.1575848E-02 Eh
   gradient norm :     0.0159904 Eh/α   predicted    -0.1306622E-02 ( -17.08%)
   displ. norm   :     0.2878112 α      lambda       -0.1059695E-02
   maximum displ.:     0.1456239 α      in ANC's #2, #27, #17, ...

........................................................................
.............................. CYCLE    6 ..............................
........................................................................
   1    -83.6932093 -0.836932E+02  0.190E-02    0.33       0.0  T
   2    -83.6932333 -0.240001E-04  0.122E-02    0.32       1.3  T
   3    -83.6932371 -0.380588E-05  0.499E-03    0.32       3.1  T
   4    -83.6932372 -0.487742E-07  0.187E-03    0.32       8.3  T
   5    -83.6932372 -0.150962E-07  0.246E-04    0.32      62.7  T
   6    -83.6932372 -0.126833E-08  0.872E-05    0.32     177.0  T
   7    -83.6932372 -0.993055E-10  0.296E-05    0.32     521.8  T
     SCC iter.                  ...        0 min,  0.025 sec
     gradient                   ...        0 min,  0.077 sec
 * total energy  :   -82.9130604 Eh     change       -0.7735816E-03 Eh
   gradient norm :     0.0145526 Eh/α   predicted    -0.5737378E-03 ( -25.83%)
   displ. norm   :     0.2997290 α      lambda       -0.8195218E-03
   maximum displ.:     0.1826679 α      in ANC's #2, #6, #27, ...

........................................................................
.............................. CYCLE    7 ..............................
........................................................................
   1    -83.6953715 -0.836954E+02  0.129E-02    0.34       0.0  T
   2    -83.6953772 -0.573646E-05  0.621E-03    0.34       2.5  T
   3    -83.6953777 -0.429775E-06  0.354E-03    0.34       4.4  T
   4    -83.6953777 -0.356299E-07  0.107E-03    0.34      14.4  T
   5    -83.6953777 -0.538664E-08  0.159E-04    0.34      97.1  T
   6    -83.6953777 -0.363116E-09  0.596E-05    0.34     258.9  T
     SCC iter.                  ...        0 min,  0.021 sec
     gradient                   ...        0 min,  0.077 sec
 * total energy  :   -82.9136704 Eh     change       -0.6099369E-03 Eh
   gradient norm :     0.0121103 Eh/α   predicted    -0.4465733E-03 ( -26.78%)
   displ. norm   :     0.3232124 α      lambda       -0.6444624E-03
   maximum displ.:     0.2092056 α      in ANC's #2, #3, #6, ...

........................................................................
.............................. CYCLE    8 ..............................
........................................................................
   1    -83.6967901 -0.836968E+02  0.137E-02    0.36       0.0  T
   2    -83.6967944 -0.430952E-05  0.717E-03    0.36       2.2  T
   3    -83.6967948 -0.382512E-06  0.411E-03    0.36       3.8  T
   4    -83.6967949 -0.720896E-07  0.777E-04    0.36      19.9  T
   5    -83.6967949 -0.105964E-07  0.141E-04    0.36     109.7  T
   6    -83.6967949 -0.611280E-09  0.507E-05    0.36     304.3  T
     SCC iter.                  ...        0 min,  0.021 sec
     gradient                   ...        0 min,  0.077 sec
 * total energy  :   -82.9141441 Eh     change       -0.4737181E-03 Eh
   gradient norm :     0.0083161 Eh/α   predicted    -0.3558944E-03 ( -24.87%)
   displ. norm   :     0.3176322 α      lambda       -0.4421486E-03
   maximum displ.:     0.2128371 α      in ANC's #2, #8, #3, ...

........................................................................
.............................. CYCLE    9 ..............................
........................................................................
   1    -83.6966944 -0.836967E+02  0.108E-02    0.36       0.0  T
   2    -83.6966994 -0.495103E-05  0.645E-03    0.37       2.4  T
   3    -83.6967001 -0.703925E-06  0.330E-03    0.36       4.7  T
   4    -83.6967001 -0.211362E-08  0.878E-04    0.36      17.6  T
   5    -83.6967001 -0.914574E-08  0.127E-04    0.36     121.7  T
   6    -83.6967001 -0.624581E-09  0.375E-05    0.36     411.0  T
     SCC iter.                  ...        0 min,  0.021 sec
     gradient                   ...        0 min,  0.078 sec
 * total energy  :   -82.9144708 Eh     change       -0.3266753E-03 Eh
   gradient norm :     0.0072306 Eh/α   predicted    -0.2433801E-03 ( -25.50%)
   displ. norm   :     0.2974900 α      lambda       -0.3291642E-03
   maximum displ.:     0.2016963 α      in ANC's #2, #3, #8, ...

........................................................................
.............................. CYCLE   10 ..............................
........................................................................
   1    -83.6979205 -0.836979E+02  0.106E-02    0.38       0.0  T
   2    -83.6979230 -0.254125E-05  0.593E-03    0.38       2.6  T
   3    -83.6979233 -0.285159E-06  0.339E-03    0.38       4.6  T
   4    -83.6979234 -0.391212E-07  0.487E-04    0.38      31.7  T
   5    -83.6979234 -0.395012E-08  0.123E-04    0.38     125.4  T
   6    -83.6979234 -0.613753E-09  0.316E-05    0.38     488.2  T
     SCC iter.                  ...        0 min,  0.022 sec
     gradient                   ...        0 min,  0.077 sec
 * total energy  :   -82.9147029 Eh     change       -0.2321319E-03 Eh
   gradient norm :     0.0077476 Eh/α   predicted    -0.1791532E-03 ( -22.82%)
   displ. norm   :     0.3030703 α      lambda       -0.2686390E-03
   maximum displ.:     0.2113865 α      in ANC's #2, #8, #3, ...

........................................................................
.............................. CYCLE   11 ..............................
........................................................................
   1    -83.6956876 -0.836957E+02  0.975E-03    0.37       0.0  T
   2    -83.6956896 -0.201825E-05  0.459E-03    0.38       3.4  T
   3    -83.6956899 -0.235330E-06  0.271E-03    0.38       5.7  T
   4    -83.6956899 -0.171114E-07  0.492E-04    0.38      31.4  T
   5    -83.6956899 -0.310082E-08  0.893E-05    0.38     172.8  T
   6    -83.6956899 -0.172676E-09  0.293E-05    0.38     526.7  T
     SCC iter.                  ...        0 min,  0.022 sec
     gradient                   ...        0 min,  0.077 sec
 * total energy  :   -82.9148732 Eh     change       -0.1702536E-03 Eh
   gradient norm :     0.0072943 Eh/α   predicted    -0.1466583E-03 ( -13.86%)
   displ. norm   :     0.2244143 α      lambda       -0.2029327E-03
   maximum displ.:     0.1541758 α      in ANC's #2, #3, #8, ...

........................................................................
.............................. CYCLE   12 ..............................
........................................................................
   1    -83.6977445 -0.836977E+02  0.819E-03    0.40       0.0  T
   2    -83.6977467 -0.220964E-05  0.382E-03    0.40       4.0  T
   3    -83.6977471 -0.395297E-06  0.153E-03    0.40      10.1  T
   4    -83.6977471 -0.206101E-08  0.324E-04    0.40      47.6  T
   5    -83.6977471 -0.493316E-09  0.652E-05    0.40     236.5  T
   6    -83.6977471 -0.617888E-10  0.246E-05    0.40     627.4  T
     SCC iter.                  ...        0 min,  0.021 sec
     gradient                   ...        0 min,  0.077 sec
 * total energy  :   -82.9150172 Eh     change       -0.1440355E-03 Eh
   gradient norm :     0.0058134 Eh/α   predicted    -0.1065786E-03 ( -26.01%)
   displ. norm   :     0.2345788 α      lambda       -0.1607586E-03
   maximum displ.:     0.1660312 α      in ANC's #2, #3, #8, ...

........................................................................
.............................. CYCLE   13 ..............................
........................................................................
   1    -83.6976726 -0.836977E+02  0.656E-03    0.41       0.0  T
   2    -83.6976741 -0.156619E-05  0.405E-03    0.41       3.8  T
   3    -83.6976744 -0.231691E-06  0.199E-03    0.41       7.7  T
   4    -83.6976744 -0.217142E-09  0.487E-04    0.41      31.7  T
   5    -83.6976744 -0.253000E-08  0.837E-05    0.41     184.3  T
   6    -83.6976744 -0.133809E-09  0.306E-05    0.41     504.7  T
     SCC iter.                  ...        0 min,  0.021 sec
     gradient                   ...        0 min,  0.077 sec
 * total energy  :   -82.9151321 Eh     change       -0.1149425E-03 Eh
   gradient norm :     0.0054061 Eh/α   predicted    -0.8480381E-04 ( -26.22%)
   displ. norm   :     0.1889271 α      lambda       -0.1492746E-03
   maximum displ.:     0.1402343 α      in ANC's #2, #3, #6, ...

........................................................................
.............................. CYCLE   14 ..............................
........................................................................
   1    -83.6993569 -0.836994E+02  0.552E-03    0.41       0.0  T
   2    -83.6993581 -0.119599E-05  0.369E-03    0.41       4.2  T
   3    -83.6993582 -0.149545E-06  0.199E-03    0.41       7.7  T
   4    -83.6993582  0.387956E-09  0.407E-04    0.41      37.9  T
   5    -83.6993582 -0.242967E-08  0.776E-05    0.41     198.7  T
   6    -83.6993582 -0.173202E-09  0.258E-05    0.41     597.2  T
     SCC iter.                  ...        0 min,  0.021 sec
     gradient                   ...        0 min,  0.077 sec
 * total energy  :   -82.9152284 Eh     change       -0.9621552E-04 Eh
   gradient norm :     0.0050666 Eh/α   predicted    -0.7730737E-04 ( -19.65%)
   displ. norm   :     0.1551386 α      lambda       -0.1053989E-03
   maximum displ.:     0.1141162 α      in ANC's #2, #3, #6, ...

........................................................................
.............................. CYCLE   15 ..............................
........................................................................
   1    -83.6988125 -0.836988E+02  0.454E-03    0.41       0.0  T
   2    -83.6988129 -0.374144E-06  0.246E-03    0.41       6.3  T
   3    -83.6988129 -0.283402E-07  0.118E-03    0.41      13.1  T
   4    -83.6988129 -0.655440E-08  0.335E-04    0.41      46.0  T
   5    -83.6988129 -0.705327E-09  0.621E-05    0.41     248.6  T
   6    -83.6988129 -0.973017E-10  0.254E-05    0.41     608.2  T
     SCC iter.                  ...        0 min,  0.021 sec
     gradient                   ...        0 min,  0.077 sec
 * total energy  :   -82.9153105 Eh     change       -0.8213829E-04 Eh
   gradient norm :     0.0050543 Eh/α   predicted    -0.5397219E-04 ( -34.29%)
   displ. norm   :     0.1856425 α      lambda       -0.1128016E-03
   maximum displ.:     0.1388102 α      in ANC's #2, #3, #4, ...

........................................................................
.............................. CYCLE   16 ..............................
........................................................................
   1    -83.6982219 -0.836982E+02  0.408E-03    0.41       0.0  T
   2    -83.6982223 -0.448644E-06  0.178E-03    0.41       8.7  T
   3    -83.6982224 -0.428106E-07  0.854E-04    0.41      18.1  T
   4    -83.6982224 -0.435809E-08  0.325E-04    0.41      47.6  T
   5    -83.6982224 -0.590575E-09  0.499E-05    0.41     309.2  T
   6    -83.6982224 -0.379146E-10  0.217E-05    0.41     709.9  T
     SCC iter.                  ...        0 min,  0.021 sec
     gradient                   ...        0 min,  0.078 sec
 * total energy  :   -82.9154034 Eh     change       -0.9286339E-04 Eh
   gradient norm :     0.0046602 Eh/α   predicted    -0.5834630E-04 ( -37.17%)
   displ. norm   :     0.2345576 α      lambda       -0.1295243E-03
   maximum displ.:     0.1752530 α      in ANC's #2, #3, #4, ...

........................................................................
.............................. CYCLE   17 ..............................
........................................................................
   1    -83.6976735 -0.836977E+02  0.495E-03    0.41       0.0  T
   2    -83.6976744 -0.881391E-06  0.280E-03    0.41       5.5  T
   3    -83.6976745 -0.114438E-06  0.130E-03    0.41      11.9  T
   4    -83.6976745 -0.202266E-08  0.495E-04    0.41      31.2  T
   5    -83.6976745 -0.174185E-08  0.561E-05    0.41     275.1  T
   6    -83.6976745 -0.640767E-10  0.231E-05    0.41     668.9  T
     SCC iter.                  ...        0 min,  0.019 sec
     gradient                   ...        0 min,  0.076 sec
 * total energy  :   -82.9155094 Eh     change       -0.1060249E-03 Eh
   gradient norm :     0.0041307 Eh/α   predicted    -0.6832602E-04 ( -35.56%)
   displ. norm   :     0.2849696 α      lambda       -0.1366461E-03
   maximum displ.:     0.2122904 α      in ANC's #2, #3, #4, ...

........................................................................
.............................. CYCLE   18 ..............................
........................................................................
   1    -83.6973343 -0.836973E+02  0.497E-03    0.41       0.0  T
   2    -83.6973354 -0.102849E-05  0.317E-03    0.41       4.9  T
   3    -83.6973355 -0.140758E-06  0.150E-03    0.41      10.3  T
   4    -83.6973355 -0.193340E-08  0.540E-04    0.41      28.6  T
   5    -83.6973355 -0.198594E-08  0.611E-05    0.41     252.7  T
   6    -83.6973355 -0.709122E-10  0.231E-05    0.41     668.6  T
     SCC iter.                  ...        0 min,  0.022 sec
     gradient                   ...        0 min,  0.082 sec
 * total energy  :   -82.9156227 Eh     change       -0.1133247E-03 Eh
   gradient norm :     0.0043889 Eh/α   predicted    -0.7387216E-04 ( -34.81%)
   displ. norm   :     0.3487391 α      lambda       -0.1521901E-03
   maximum displ.:     0.2589182 α      in ANC's #2, #3, #4, ...

........................................................................
.............................. CYCLE   19 ..............................
........................................................................
   1    -83.6970533 -0.836971E+02  0.476E-03    0.41       0.0  T
   2    -83.6970541 -0.846005E-06  0.298E-03    0.41       5.2  T
   3    -83.6970542 -0.118748E-06  0.141E-03    0.41      11.0  T
   4    -83.6970542 -0.223480E-08  0.473E-04    0.41      32.6  T
   5    -83.6970542 -0.132567E-08  0.556E-05    0.41     277.5  T
   6    -83.6970542 -0.614051E-10  0.225E-05    0.41     687.0  T
     SCC iter.                  ...        0 min,  0.022 sec
     gradient                   ...        0 min,  0.082 sec
 * total energy  :   -82.9157486 Eh     change       -0.1258957E-03 Eh
   gradient norm :     0.0052327 Eh/α   predicted    -0.8535219E-04 ( -32.20%)
   displ. norm   :     0.4267422 α      lambda       -0.1749327E-03
   maximum displ.:     0.3174079 α      in ANC's #2, #3, #4, ...

........................................................................
.............................. CYCLE   20 ..............................
........................................................................
   1    -83.6970620 -0.836971E+02  0.480E-03    0.41       0.0  T
   2    -83.6970627 -0.677891E-06  0.254E-03    0.41       6.1  T
   3    -83.6970628 -0.741554E-07  0.123E-03    0.41      12.5  T
   4    -83.6970628 -0.549912E-08  0.431E-04    0.42      35.8  T
   5    -83.6970628 -0.954813E-09  0.644E-05    0.42     239.7  T
   6    -83.6970628 -0.788845E-10  0.237E-05    0.42     651.3  T
     SCC iter.                  ...        0 min,  0.022 sec
     gradient                   ...        0 min,  0.082 sec
 * total energy  :   -82.9158876 Eh     change       -0.1390278E-03 Eh
   gradient norm :     0.0060936 Eh/α   predicted    -0.1033969E-03 ( -25.63%)
   displ. norm   :     0.4698465 α      lambda       -0.1686332E-03
   maximum displ.:     0.3503976 α      in ANC's #2, #3, #4, ...
 * RMSD in coord.:     0.7079607 α      energy gain  -0.3311324E-01 Eh

generating ANC from model Hessian ...
Using Lindh-Hessian (1995)
 Shifting diagonal of input Hessian by   9.782789274606612E-003
 Lowest  eigenvalues of input Hessian
    0.000000    0.000000    0.000000    0.000000    0.000000    0.000000
    0.010000    0.010239    0.010415    0.010658    0.011928    0.012377
    0.012805    0.013975    0.014327    0.015136    0.017431    0.018083
 Highest eigenvalues
    2.097042    2.195139    2.218423    2.343163    2.356348    2.465057
 

........................................................................
.............................. CYCLE   21 ..............................
........................................................................
   1    -83.6971558 -0.836972E+02  0.552E-03    0.42       0.0  T
   2    -83.6971564 -0.641503E-06  0.232E-03    0.43       6.7  T
   3    -83.6971565 -0.426905E-07  0.116E-03    0.43      13.3  T
   4    -83.6971565 -0.803817E-08  0.411E-04    0.43      37.6  T
   5    -83.6971565 -0.122853E-08  0.858E-05    0.43     179.8  T
   6    -83.6971565 -0.134960E-09  0.313E-05    0.43     493.0  T
     SCC iter.                  ...        0 min,  0.022 sec
     gradient                   ...        0 min,  0.082 sec
 * total energy  :   -82.9160113 Eh     change       -0.1236859E-03 Eh
   gradient norm :     0.0058254 Eh/α   predicted     0.0000000E+00 (-100.00%)
   displ. norm   :     0.0414209 α      lambda       -0.6290843E-04
   maximum displ.:     0.0199927 α      in ANC's #6, #3, #4, ...

........................................................................
.............................. CYCLE   22 ..............................
........................................................................
   1    -83.6988336 -0.836988E+02  0.408E-03    0.43       0.0  T
   2    -83.6988340 -0.368020E-06  0.244E-03    0.43       6.3  T
   3    -83.6988340 -0.473115E-07  0.132E-03    0.43      11.7  T
   4    -83.6988340 -0.165109E-08  0.219E-04    0.43      70.4  T
   5    -83.6988340 -0.458655E-09  0.333E-05    0.43     463.9  T
   6    -83.6988340 -0.171525E-10  0.129E-05    0.43    1193.7  T
     SCC iter.                  ...        0 min,  0.022 sec
     gradient                   ...        0 min,  0.082 sec
 * total energy  :   -82.9160648 Eh     change       -0.5343873E-04 Eh
   gradient norm :     0.0030474 Eh/α   predicted    -0.3507592E-04 ( -34.36%)
   displ. norm   :     0.0941681 α      lambda       -0.7403300E-04
   maximum displ.:     0.0466541 α      in ANC's #6, #3, #4, ...

........................................................................
.............................. CYCLE   23 ..............................
........................................................................
   1    -83.7002367 -0.837002E+02  0.547E-03    0.43       0.0  T
   2    -83.7002378 -0.103550E-05  0.338E-03    0.43       4.6  T
   3    -83.7002379 -0.138061E-06  0.176E-03    0.43       8.8  T
   4    -83.7002379  0.599272E-10  0.406E-04    0.43      38.0  T
   5    -83.7002379 -0.134759E-08  0.518E-05    0.43     297.6  T
   6    -83.7002379 -0.370761E-10  0.194E-05    0.43     796.0  T
     SCC iter.                  ...        0 min,  0.022 sec
     gradient                   ...        0 min,  0.082 sec
 * total energy  :   -82.9161159 Eh     change       -0.5113468E-04 Eh
   gradient norm :     0.0019024 Eh/α   predicted    -0.3734520E-04 ( -26.97%)
   displ. norm   :     0.1785676 α      lambda       -0.5206132E-04
   maximum displ.:     0.0844552 α      in ANC's #6, #3, #11, ...

........................................................................
.............................. CYCLE   24 ..............................
........................................................................
   1    -83.7004824 -0.837005E+02  0.622E-03    0.44       0.0  T
   2    -83.7004839 -0.148452E-05  0.378E-03    0.44       4.1  T
   3    -83.7004841 -0.206197E-06  0.183E-03    0.44       8.4  T
   4    -83.7004841 -0.323254E-09  0.519E-04    0.44      29.7  T
   5    -83.7004841 -0.195118E-08  0.731E-05    0.44     211.1  T
   6    -83.7004841 -0.574687E-10  0.262E-05    0.44     589.7  T
     SCC iter.                  ...        0 min,  0.022 sec
     gradient                   ...        0 min,  0.083 sec
 * total energy  :   -82.9161713 Eh     change       -0.5536705E-04 Eh
   gradient norm :     0.0045694 Eh/α   predicted    -0.2644710E-04 ( -52.23%)
   displ. norm   :     0.1833303 α      lambda       -0.7232840E-04
   maximum displ.:     0.0839016 α      in ANC's #11, #6, #3, ...

........................................................................
.............................. CYCLE   25 ..............................
........................................................................
   1    -83.6996626 -0.836997E+02  0.463E-03    0.44       0.0  T
   2    -83.6996631 -0.464801E-06  0.242E-03    0.44       6.4  T
   3    -83.6996632 -0.599288E-07  0.115E-03    0.44      13.4  T
   4    -83.6996632 -0.418684E-08  0.318E-04    0.44      48.5  T
   5    -83.6996632 -0.646864E-09  0.565E-05    0.44     273.1  T
   6    -83.6996632 -0.337934E-10  0.212E-05    0.44     728.9  T
     SCC iter.                  ...        0 min,  0.022 sec
     gradient                   ...        0 min,  0.082 sec
 * total energy  :   -82.9162322 Eh     change       -0.6089930E-04 Eh
   gradient norm :     0.0054600 Eh/α   predicted    -0.3738237E-04 ( -38.62%)
   displ. norm   :     0.3713979 α      lambda       -0.1387513E-03
   maximum displ.:     0.1794831 α      in ANC's #11, #3, #6, ...

........................................................................
.............................. CYCLE   26 ..............................
........................................................................
   1    -83.6967985 -0.836968E+02  0.107E-02    0.45       0.0  T
   2    -83.6967997 -0.126356E-05  0.538E-03    0.45       2.9  T
   3    -83.6967998 -0.932342E-07  0.253E-03    0.45       6.1  T
   4    -83.6967999 -0.547285E-07  0.625E-04    0.45      24.7  T
   5    -83.6967999 -0.271594E-08  0.115E-04    0.45     134.6  T
   6    -83.6967999 -0.186674E-09  0.435E-05    0.45     354.4  T
     SCC iter.                  ...        0 min,  0.022 sec
     gradient                   ...        0 min,  0.082 sec
 * total energy  :   -82.9162873 Eh     change       -0.5514347E-04 Eh
   gradient norm :     0.0087324 Eh/α   predicted    -0.7894553E-04 (  43.16%)
   displ. norm   :     0.0520589 α      lambda       -0.9799699E-04
   maximum displ.:     0.0221700 α      in ANC's #11, #6, #10, ...

........................................................................
.............................. CYCLE   27 ..............................
........................................................................
   1    -83.6981561 -0.836982E+02  0.470E-03    0.45       0.0  T
   2    -83.6981564 -0.338076E-06  0.280E-03    0.45       5.5  T
   3    -83.6981565 -0.410299E-07  0.147E-03    0.45      10.5  T
   4    -83.6981565 -0.488117E-08  0.215E-04    0.45      71.7  T
   5    -83.6981565 -0.548440E-09  0.299E-05    0.45     515.5  T
   6    -83.6981565 -0.139124E-10  0.117E-05    0.45    1319.7  T
     SCC iter.                  ...        0 min,  0.023 sec
     gradient                   ...        0 min,  0.082 sec
 * total energy  :   -82.9163538 Eh     change       -0.6646571E-04 Eh
   gradient norm :     0.0045612 Eh/α   predicted    -0.4914091E-04 ( -26.07%)
   displ. norm   :     0.1518537 α      lambda       -0.9732832E-04
   maximum displ.:     0.0706087 α      in ANC's #11, #3, #13, ...

........................................................................
.............................. CYCLE   28 ..............................
........................................................................
   1    -83.6986808 -0.836987E+02  0.478E-03    0.45       0.0  T
   2    -83.6986815 -0.682606E-06  0.295E-03    0.45       5.2  T
   3    -83.6986815 -0.735107E-07  0.152E-03    0.45      10.2  T
   4    -83.6986815 -0.116762E-08  0.441E-04    0.45      35.0  T
   5    -83.6986815 -0.150122E-08  0.560E-05    0.45     275.6  T
   6    -83.6986815 -0.680700E-10  0.224E-05    0.45     688.6  T
     SCC iter.                  ...        0 min,  0.023 sec
     gradient                   ...        0 min,  0.083 sec
 * total energy  :   -82.9164289 Eh     change       -0.7508864E-04 Eh
   gradient norm :     0.0030848 Eh/α   predicted    -0.4978682E-04 ( -33.70%)
   displ. norm   :     0.3108908 α      lambda       -0.1334582E-03
   maximum displ.:     0.1519652 α      in ANC's #11, #13, #3, ...

........................................................................
.............................. CYCLE   29 ..............................
........................................................................
   1    -83.6981792 -0.836982E+02  0.875E-03    0.45       0.0  T
   2    -83.6981804 -0.125265E-05  0.478E-03    0.45       3.2  T
   3    -83.6981805 -0.102084E-06  0.223E-03    0.45       6.9  T
   4    -83.6981806 -0.239764E-07  0.590E-04    0.45      26.1  T
   5    -83.6981806 -0.284496E-08  0.105E-04    0.45     146.5  T
   6    -83.6981806 -0.226592E-09  0.448E-05    0.45     344.1  T
     SCC iter.                  ...        0 min,  0.025 sec
     gradient                   ...        0 min,  0.083 sec
 * total energy  :   -82.9165229 Eh     change       -0.9404520E-04 Eh
   gradient norm :     0.0060074 Eh/α   predicted    -0.7328126E-04 ( -22.08%)
   displ. norm   :     0.1659948 α      lambda       -0.9189652E-04
   maximum displ.:     0.0783614 α      in ANC's #13, #3, #11, ...

........................................................................
.............................. CYCLE   30 ..............................
........................................................................
   1    -83.6991749 -0.836992E+02  0.496E-03    0.45       0.0  T
   2    -83.6991753 -0.450873E-06  0.263E-03    0.45       5.9  T
   3    -83.6991753 -0.350019E-07  0.127E-03    0.45      12.1  T
   4    -83.6991754 -0.737984E-08  0.323E-04    0.45      47.8  T
   5    -83.6991754 -0.800810E-09  0.707E-05    0.45     218.3  T
   6    -83.6991754 -0.825793E-10  0.301E-05    0.45     512.5  T
     SCC iter.                  ...        0 min,  0.025 sec
     gradient                   ...        0 min,  0.082 sec
 * total energy  :   -82.9165887 Eh     change       -0.6578461E-04 Eh
   gradient norm :     0.0061351 Eh/α   predicted    -0.4721466E-04 ( -28.23%)
   displ. norm   :     0.1566216 α      lambda       -0.1019252E-03
   maximum displ.:     0.0817373 α      in ANC's #3, #13, #11, ...

........................................................................
.............................. CYCLE   31 ..............................
........................................................................
   1    -83.7001042 -0.837001E+02  0.512E-03    0.45       0.0  T
   2    -83.7001047 -0.465026E-06  0.276E-03    0.45       5.6  T
   3    -83.7001047 -0.360318E-07  0.137E-03    0.45      11.3  T
   4    -83.7001047 -0.772187E-08  0.337E-04    0.45      45.8  T
   5    -83.7001047 -0.988479E-09  0.751E-05    0.45     205.5  T
   6    -83.7001047 -0.527933E-10  0.267E-05    0.45     577.1  T
     SCC iter.                  ...        0 min,  0.023 sec
     gradient                   ...        0 min,  0.082 sec
 * total energy  :   -82.9166597 Eh     change       -0.7105970E-04 Eh
   gradient norm :     0.0044389 Eh/α   predicted    -0.5221494E-04 ( -26.52%)
   displ. norm   :     0.1456739 α      lambda       -0.6684065E-04
   maximum displ.:     0.0808469 α      in ANC's #3, #13, #11, ...

........................................................................
.............................. CYCLE   32 ..............................
........................................................................
   1    -83.6996049 -0.836996E+02  0.476E-03    0.45       0.0  T
   2    -83.6996053 -0.422477E-06  0.290E-03    0.45       5.3  T
   3    -83.6996054 -0.476796E-07  0.145E-03    0.45      10.6  T
   4    -83.6996054 -0.450545E-08  0.310E-04    0.45      49.8  T
   5    -83.6996054 -0.901707E-09  0.637E-05    0.45     242.2  T
   6    -83.6996054 -0.340350E-10  0.228E-05    0.45     676.6  T
     SCC iter.                  ...        0 min,  0.023 sec
     gradient                   ...        0 min,  0.082 sec
 * total energy  :   -82.9167050 Eh     change       -0.4527259E-04 Eh
   gradient norm :     0.0034780 Eh/α   predicted    -0.3413056E-04 ( -24.61%)
   displ. norm   :     0.1282099 α      lambda       -0.9312695E-04
   maximum displ.:     0.0772959 α      in ANC's #6, #4, #10, ...

........................................................................
.............................. CYCLE   33 ..............................
........................................................................
   1    -83.7023835 -0.837024E+02  0.110E-02    0.46       0.0  T
   2    -83.7023854 -0.192885E-05  0.673E-03    0.45       2.3  T
   3    -83.7023857 -0.232267E-06  0.352E-03    0.46       4.4  T
   4    -83.7023857 -0.276610E-07  0.477E-04    0.45      32.3  T
   5    -83.7023857 -0.316027E-08  0.818E-05    0.45     188.7  T
   6    -83.7023857 -0.245606E-09  0.274E-05    0.45     564.0  T
     SCC iter.                  ...        0 min,  0.025 sec
     gradient                   ...        0 min,  0.082 sec
 * total energy  :   -82.9166592 Eh     change        0.4577400E-04 Eh
   gradient norm :     0.0079694 Eh/α   predicted    -0.4732997E-04 (-203.40%)
   displ. norm   :     0.1219680 α      lambda       -0.1616388E-03
   maximum displ.:     0.0639336 α      in ANC's #11, #3, #13, ...

........................................................................
.............................. CYCLE   34 ..............................
........................................................................
   1    -83.6998266 -0.836998E+02  0.794E-03    0.45       0.0  T
   2    -83.6998269 -0.351501E-06  0.458E-03    0.46       3.4  T
   3    -83.6998269  0.810857E-09  0.194E-03    0.45       8.0  T
   4    -83.6998270 -0.438079E-07  0.247E-04    0.46      62.5  T
   5    -83.6998270 -0.639730E-09  0.518E-05    0.46     297.8  T
   6    -83.6998270 -0.306954E-10  0.184E-05    0.46     836.8  T
     SCC iter.                  ...        0 min,  0.022 sec
     gradient                   ...        0 min,  0.082 sec
 * total energy  :   -82.9167450 Eh     change       -0.8574324E-04 Eh
   gradient norm :     0.0029123 Eh/α   predicted    -0.8202180E-04 (  -4.34%)
   displ. norm   :     0.0205013 α      lambda       -0.1344757E-04
   maximum displ.:     0.0100203 α      in ANC's #4, #11, #2, ...

........................................................................
.............................. CYCLE   35 ..............................
........................................................................
   1    -83.6998907 -0.836999E+02  0.149E-03    0.45       0.0  T
   2    -83.6998908 -0.809123E-07  0.910E-04    0.46      17.0  T
   3    -83.6998908 -0.722086E-08  0.470E-04    0.45      32.8  T
   4    -83.6998908  0.731148E-10  0.169E-04    0.45      91.1  T
   5    -83.6998908 -0.211585E-09  0.151E-05    0.45    1019.1  T
     SCC iter.                  ...        0 min,  0.020 sec
     gradient                   ...        0 min,  0.082 sec
 * total energy  :   -82.9167563 Eh     change       -0.1136049E-04 Eh
   gradient norm :     0.0018114 Eh/α   predicted    -0.6728136E-05 ( -40.78%)
   displ. norm   :     0.1685578 α      lambda       -0.3676788E-04
   maximum displ.:     0.0789627 α      in ANC's #3, #11, #1, ...

........................................................................
.............................. CYCLE   36 ..............................
........................................................................
   1    -83.6998589 -0.836999E+02  0.516E-03    0.45       0.0  T
   2    -83.6998598 -0.884701E-06  0.286E-03    0.45       5.4  T
   3    -83.6998599 -0.700010E-07  0.144E-03    0.45      10.7  T
   4    -83.6998599 -0.117129E-08  0.530E-04    0.45      29.1  T
   5    -83.6998599 -0.196522E-08  0.671E-05    0.45     230.1  T
   6    -83.6998599 -0.619451E-10  0.250E-05    0.45     616.1  T
     SCC iter.                  ...        0 min,  0.022 sec
     gradient                   ...        0 min,  0.082 sec
 * total energy  :   -82.9167794 Eh     change       -0.2304819E-04 Eh
   gradient norm :     0.0026591 Eh/α   predicted    -0.1861689E-04 ( -19.23%)
   displ. norm   :     0.0216238 α      lambda       -0.9502616E-05
   maximum displ.:     0.0150989 α      in ANC's #4, #2, #6, ...

........................................................................
.............................. CYCLE   37 ..............................
........................................................................
   1    -83.7002855 -0.837003E+02  0.142E-03    0.45       0.0  T
   2    -83.7002855 -0.383537E-07  0.785E-04    0.45      19.7  T
   3    -83.7002855 -0.213493E-08  0.399E-04    0.45      38.7  T
   4    -83.7002855 -0.549363E-09  0.112E-04    0.45     137.8  T
   5    -83.7002855 -0.892584E-10  0.990E-06    0.45    1559.2  T
     SCC iter.                  ...        0 min,  0.019 sec
     gradient                   ...        0 min,  0.082 sec
 * total energy  :   -82.9167867 Eh     change       -0.7273465E-05 Eh
   gradient norm :     0.0017551 Eh/α   predicted    -0.4756585E-05 ( -34.60%)
   displ. norm   :     0.1023183 α      lambda       -0.1616914E-04
   maximum displ.:     0.0509838 α      in ANC's #4, #3, #1, ...

........................................................................
.............................. CYCLE   38 ..............................
........................................................................
   1    -83.7004344 -0.837004E+02  0.394E-03    0.45       0.0  T
   2    -83.7004350 -0.575743E-06  0.222E-03    0.45       7.0  T
   3    -83.7004350 -0.409225E-07  0.109E-03    0.45      14.2  T
   4    -83.7004350 -0.197218E-09  0.469E-04    0.45      32.9  T
   5    -83.7004350 -0.143258E-08  0.477E-05    0.45     323.4  T
   6    -83.7004350 -0.236895E-10  0.181E-05    0.45     853.5  T
     SCC iter.                  ...        0 min,  0.022 sec
     gradient                   ...        0 min,  0.083 sec
 * total energy  :   -82.9167974 Eh     change       -0.1070196E-04 Eh
   gradient norm :     0.0016709 Eh/α   predicted    -0.8126883E-05 ( -24.06%)
   displ. norm   :     0.0521851 α      lambda       -0.6951046E-05
   maximum displ.:     0.0333347 α      in ANC's #4, #2, #7, ...

........................................................................
.............................. CYCLE   39 ..............................
........................................................................
   1    -83.7005430 -0.837005E+02  0.137E-03    0.45       0.0  T
   2    -83.7005431 -0.512421E-07  0.767E-04    0.45      20.1  T
   3    -83.7005431 -0.453043E-08  0.408E-04    0.45      37.8  T
   4    -83.7005431 -0.133468E-09  0.925E-05    0.45     166.8  T
   5    -83.7005431 -0.819682E-10  0.172E-05    0.45     896.4  T
     SCC iter.                  ...        0 min,  0.019 sec
     gradient                   ...        0 min,  0.082 sec
 * total energy  :   -82.9168046 Eh     change       -0.7265934E-05 Eh
   gradient norm :     0.0013322 Eh/α   predicted    -0.3484414E-05 ( -52.04%)
   displ. norm   :     0.1071464 α      lambda       -0.1026557E-04
   maximum displ.:     0.0606865 α      in ANC's #4, #1, #2, ...

........................................................................
.............................. CYCLE   40 ..............................
........................................................................
   1    -83.6999703 -0.837000E+02  0.219E-03    0.45       0.0  T
   2    -83.6999704 -0.998671E-07  0.120E-03    0.45      12.9  T
   3    -83.6999704 -0.581797E-08  0.619E-04    0.45      24.9  T
   4    -83.6999704 -0.799048E-09  0.166E-04    0.45      92.9  T
   5    -83.6999704 -0.275037E-09  0.268E-05    0.45     575.0  T
     SCC iter.                  ...        0 min,  0.018 sec
     gradient                   ...        0 min,  0.082 sec
 * total energy  :   -82.9168137 Eh     change       -0.9066922E-05 Eh
   gradient norm :     0.0010189 Eh/α   predicted    -0.5161812E-05 ( -43.07%)
   displ. norm   :     0.0667988 α      lambda       -0.4615542E-05
   maximum displ.:     0.0417987 α      in ANC's #4, #7, #2, ...

........................................................................
.............................. CYCLE   41 ..............................
........................................................................
   1    -83.7002331 -0.837002E+02  0.906E-04    0.45       0.0  T
   2    -83.7002331 -0.227129E-07  0.431E-04    0.45      35.8  T
   3    -83.7002331 -0.210856E-08  0.219E-04    0.45      70.6  T
   4    -83.7002331 -0.158053E-09  0.637E-05    0.45     242.4  T
   5    -83.7002331 -0.333387E-10  0.150E-05    0.45    1028.3  T
     SCC iter.                  ...        0 min,  0.019 sec
     gradient                   ...        0 min,  0.082 sec
 * total energy  :   -82.9168190 Eh     change       -0.5281878E-05 Eh
   gradient norm :     0.0006788 Eh/α   predicted    -0.2315950E-05 ( -56.15%)
   displ. norm   :     0.0803890 α      lambda       -0.4381888E-05
   maximum displ.:     0.0499549 α      in ANC's #4, #1, #2, ...

........................................................................
.............................. CYCLE   42 ..............................
........................................................................
   1    -83.7003377 -0.837003E+02  0.112E-03    0.45       0.0  T
   2    -83.7003377 -0.330492E-07  0.580E-04    0.45      26.6  T
   3    -83.7003377 -0.261814E-08  0.298E-04    0.45      51.8  T
   4    -83.7003377 -0.221647E-09  0.858E-05    0.45     179.9  T
   5    -83.7003377 -0.762981E-10  0.179E-05    0.45     859.8  T
     SCC iter.                  ...        0 min,  0.018 sec
     gradient                   ...        0 min,  0.083 sec
 * total energy  :   -82.9168232 Eh     change       -0.4263765E-05 Eh
   gradient norm :     0.0004211 Eh/α   predicted    -0.2201533E-05 ( -48.37%)
   displ. norm   :     0.0500743 α      lambda       -0.2120662E-05
   maximum displ.:     0.0308506 α      in ANC's #4, #1, #2, ...

   *** GEOMETRY OPTIMIZATION CONVERGED AFTER 42 ITERATIONS ***

------------------------------------------------------------------------
 total energy gain   :        -0.0340489 Eh      -21.3660 kcal/mol
 total RMSD          :         0.8328755 a0        0.4407 Å
 total power (kW/mol):        -2.1284586 (step)  -14.8383 (real)
------------------------------------------------------------------------

 ANCopt (total)                0 d,  0 h,  0 min,  6.025 sec
 optimizer setup                ...        0 min,  0.001 sec (  0.012%)
 model hessian                  ...        0 min,  0.054 sec (  0.902%)
 ANC generation                 ...        0 min,  0.005 sec (  0.079%)
 coordinate transformation      ...        0 min,  0.001 sec (  0.025%)
 single point calculation       ...        0 min,  5.939 sec ( 98.571%)
 optimization log               ...        0 min,  0.012 sec (  0.202%)
 hessian update                 ...        0 min,  0.001 sec (  0.023%)
 rational function              ...        0 min,  0.007 sec (  0.116%)

================
 final structure:
================
42
 xtb: 6.5.1 (579679a)
C            2.80063354318501        3.33185655322103        0.63874882410455
O            2.61780667745545        1.96000039438004        0.31424389518225
C            3.76836746000045        1.23689633614742        0.13395274556033
O            4.85751632885943        1.77146134154717        0.25676432927981
C            3.49843827804876       -0.15007912123715       -0.20130424598846
N            2.15834230983268       -0.48469222953170       -0.26352198557011
C            1.78778132158479       -1.67576772218318       -0.55453925474895
C            0.30800602220405       -2.00531621055939       -0.60896790967312
C           -0.11391490169095       -2.40714353046743       -2.02769008709607
C           -0.05368431718370       -3.09455664756054        0.40762500857636
N           -0.35832411137494       -0.75124911011244       -0.23986502789828
C           -1.66748602171912       -0.57828097928257       -0.14935416446952
O           -2.54719506193967       -1.40099593828965       -0.34758339061804
C           -1.99534517852908        0.82990096201165        0.25074391533006
N           -1.21086120337380        1.80629709621446        0.50437095478633
N           -1.96156907591988        2.90379252993815        0.82939162823764
C           -3.19850335629452        2.59337557264013        0.77322346047126
C           -4.38258242427760        3.42582583703614        1.03504074066153
O           -3.31894878845295        1.24833478007370        0.40065411316787
C           -4.51886007337265        0.43913197875528        0.18900766214757
N            2.69101337901211       -2.67708700401918       -0.82379771502614
C            4.05520816186860       -2.49174554780438       -0.80056457960187
O            4.79784529495603       -3.43250190185474       -1.05642699971762
C            4.52909299877453       -1.09528597255848       -0.44996215692095
O            5.74975404951668       -0.87494952699797       -0.40641878398368
H            3.35523721156677        3.84751930479628       -0.15219088029054
H            1.80774056184606        3.76859423047483        0.73607167029586
H            3.34550335061979        3.43828563819209        1.58266812126146
H            0.11127838970567       -1.60281751155780       -2.72652322832940
H            0.42445815016648       -3.30370441567954       -2.32872574927954
H           -1.18189460425029       -2.61350107081340       -2.05477570223572
H            0.48575522218903       -4.00975104492797        0.17142150251521
H            0.21298784653786       -2.77147141551414        1.41288883110739
H           -1.12160683644036       -3.29900412039433        0.37080255892996
H            0.28720105347951        0.02285984734452       -0.05268562085074
H           -4.05006957864948        4.42514069394218        1.31087329590246
H           -5.01199015281502        3.48446829624813        0.14679782815446
H           -4.97528275008687        3.00296204428153        1.84637378675100
H           -5.36925933567518        1.08531395748984        0.37980988527044
H           -4.49870003997328        0.09078135444565       -0.84137094536969
H           -4.47831404305046       -0.39291102179842        0.88818937355249
H            2.36442524365212       -3.59998770603796       -1.05655870358453
 
 Bond Distances (Angstroems)
 ---------------------------
C1-O2=1.4215         C1-H26=1.0950        C1-H27=1.0891        C1-H28=1.0951        O2-C1=1.4215         O2-C3=1.3708         
C3-O2=1.3708         C3-O4=1.2195         C3-C5=1.4522         O4-C3=1.2195         C5-C3=1.4522         C5-N6=1.3826         
C5-C24=1.4204        N6-C5=1.3826         N6-C7=1.2809         C7-N6=1.2809         C7-C8=1.5170         C7-N21=1.3751        
C8-C7=1.5170         C8-C9=1.5337         C8-C10=1.5332        C8-N11=1.4673        C9-C8=1.5337         C9-H29=1.0890        
C9-H30=1.0883        C9-H31=1.0881        C10-C8=1.5332        C10-H32=1.0883       C10-H33=1.0891       C10-H34=1.0879       
N11-C8=1.4673        N11-C12=1.3236       N11-H35=1.0252       C12-N11=1.3236       C12-O13=1.2207       C12-C14=1.5002       
O13-C12=1.2207       C14-C12=1.5002       C14-N15=1.2779       C14-O19=1.3962       N15-C14=1.2779       N15-N16=1.3688       
N16-N15=1.3688       N16-C17=1.2765       C17-N16=1.2765       C17-C18=1.4709       C17-O19=1.4009       C18-C17=1.4709       
C18-H36=1.0887       C18-H37=1.0902       C18-H38=1.0901       O19-C14=1.3962       O19-C17=1.4009       O19-C20=1.4627       
C20-O19=1.4627       C20-H39=1.0850       C20-H40=1.0879       C20-H41=1.0876       N21-C7=1.3751        N21-C22=1.3769       
N21-H42=1.0063       C22-N21=1.3769       C22-O23=1.2256       C22-C24=1.5158       O23-C22=1.2256       C24-C5=1.4204        
C24-C22=1.5158       C24-O25=1.2412       O25-C24=1.2412       H26-C1=1.0950        H27-C1=1.0891        H28-C1=1.0951        
H29-C9=1.0890        H30-C9=1.0883        H31-C9=1.0881        H32-C10=1.0883       H33-C10=1.0891       H34-C10=1.0879       
H35-N11=1.0252       H36-C18=1.0887       H37-C18=1.0902       H38-C18=1.0901       H39-C20=1.0850       H40-C20=1.0879       
H41-C20=1.0876       H42-N21=1.0063       
 C  H  Rav=1.0893 sigma=0.0026  Rmin=1.0850  Rmax=1.0951    15
 C  C  Rav=1.4929 sigma=0.0385  Rmin=1.4204  Rmax=1.5337     8
 N  H  Rav=1.0157 sigma=0.0095  Rmin=1.0063  Rmax=1.0252     2
 N  C  Rav=1.3451 sigma=0.0633  Rmin=1.2765  Rmax=1.4673     8
 N  N  Rav=1.3688 sigma=0.0000  Rmin=1.3688  Rmax=1.3688     1
 O  C  Rav=1.3288 sigma=0.0943  Rmin=1.2195  Rmax=1.4627     9
 
 selected bond angles (degree)
 --------------------
H26-C1-O2=110.78               H27-C1-O2=106.87               H27-C1-H26=109.72              H28-C1-O2=110.77               
H28-C1-H26=108.96              H28-C1-H27=109.73              C3-O2-C1=115.54                O4-C3-O2=120.34                
C5-C3-O2=112.22                C5-C3-O4=127.44                N6-C5-C3=114.94                C24-C5-C3=122.76               
C24-C5-N6=122.30               C7-N6-C5=121.04                C8-C7-N6=119.50                N21-C7-N6=122.11               
N21-C7-C8=118.39               C9-C8-C7=111.01                C10-C8-C7=111.14               C10-C8-C9=111.24               
N11-C8-C7=104.38               N11-C8-C9=109.37               N11-C8-C10=109.47              H29-C9-C8=110.07               
H30-C9-C8=109.61               H30-C9-H29=109.19              H31-C9-C8=110.04               H31-C9-H29=109.09              
H31-C9-H30=108.81              H32-C10-C8=109.67              H33-C10-C8=110.09              H33-C10-H32=109.17             
H34-C10-C8=110.04              H34-C10-H32=108.73             H34-C10-H33=109.11             
 
 selected dihedral angles (degree)
 ---------------------------------
C3-O2-C1-H26= 59.78           C3-O2-C1-H27=179.26           C3-O2-C1-H28=298.75           O4-C3-O2-C1=  0.21            
C5-C3-O2-C1=180.32            N6-C5-C3-O2=359.41            N6-C5-C3-O4=179.54            C24-C5-C3-O2=179.30           
C24-C5-C3-O4=359.43           C7-N6-C5-C3=179.74            C7-N6-C5-C24=359.85           C8-C7-N6-C5=179.82            
N21-C7-N6-C5=359.74           C9-C8-C7-N6=116.05            C9-C8-C7-N21=296.13           C10-C8-C7-N6=240.43           
C10-C8-C7-N21= 60.50          N11-C8-C7-N6=358.33           N11-C8-C7-N21=178.40          H29-C9-C8-C7=301.81           
H29-C9-C8-C10=177.49          H29-C9-C8-N11= 56.45          H30-C9-C8-C7= 61.92           H30-C9-C8-C10=297.60          
H30-C9-C8-N11=176.56          H31-C9-C8-C7=181.54           H31-C9-C8-C10= 57.23          H31-C9-C8-N11=296.18          
H32-C10-C8-C7=298.16          H32-C10-C8-C9= 62.40          H32-C10-C8-N11=183.38         H33-C10-C8-C7= 58.30          
H33-C10-C8-C9=182.54          H33-C10-C8-N11=303.52         H34-C10-C8-C7=178.59          H34-C10-C8-C9=302.83          
H34-C10-C8-N11= 63.82         
           -------------------------------------------------
          |                Final Singlepoint                |
           -------------------------------------------------

          ...................................................
          :                      SETUP                      :
          :.................................................:
          :  # basis functions                 134          :
          :  # atomic orbitals                 134          :
          :  # shells                           84          :
          :  # electrons                       134          :
          :  # halogen bonds                     0          :
          :  max. iterations                   250          :
          :  Hamiltonian                  GFN1-xTB          :
          :  restarted?                      false          :
          :  GBSA solvation                   true          :
          :  PC potential                    false          :
          :  electronic temp.          300.0000000     K    :
          :  accuracy                    1.0000000          :
          :  -> integral cutoff          0.2500000E+02      :
          :  -> integral neglect         0.1000000E-07      :
          :  -> SCF convergence          0.1000000E-05 Eh   :
          :  -> wf. convergence          0.2000000E-04 e    :
          :  Broyden damping             0.4000000          :
          ...................................................

 iter      E             dE          RMSdq      gap      omega  full diag
   1    -83.7003377 -0.837003E+02  0.667E-06    0.45       0.0  T
   2    -83.7003377 -0.682121E-12  0.312E-06    0.45    4944.5  T
   3    -83.7003377 -0.852651E-13  0.140E-06    0.45   10997.5  T

   *** convergence criteria satisfied after 3 iterations ***

         #    Occupation            Energy/Eh            Energy/eV
      -------------------------------------------------------------
         1        2.0000           -0.9639090             -26.2293
       ...           ...                  ...                  ...
        61        2.0000           -0.4665433             -12.6953
        62        2.0000           -0.4643449             -12.6355
        63        2.0000           -0.4498015             -12.2397
        64        2.0000           -0.4446879             -12.1006
        65        2.0000           -0.4294994             -11.6873
        66        2.0000           -0.3863038             -10.5119
        67        1.9997           -0.3740561             -10.1786 (HOMO)
        68        0.0003           -0.3575262              -9.7288 (LUMO)
        69                         -0.3092648              -8.4155
        70                         -0.2779511              -7.5634
        71                         -0.2501562              -6.8071
        72                         -0.2355054              -6.4084
       ...                                ...                  ...
       134                          0.7653486              20.8262
      -------------------------------------------------------------
                  HL-Gap            0.0165300 Eh            0.4498 eV
             Fermi-level           -0.3657912 Eh           -9.9537 eV

 SCC (total)                   0 d,  0 h,  0 min,  0.130 sec
 SCC setup                      ...        0 min,  0.002 sec (  1.620%)
 Dispersion                     ...        0 min,  0.000 sec (  0.268%)
 classical contributions        ...        0 min,  0.000 sec (  0.096%)
 integral evaluation            ...        0 min,  0.035 sec ( 26.927%)
 iterations                     ...        0 min,  0.011 sec (  8.762%)
 molecular gradient             ...        0 min,  0.080 sec ( 61.587%)
 printout                       ...        0 min,  0.001 sec (  0.695%)

         :::::::::::::::::::::::::::::::::::::::::::::::::::::
         ::                     SUMMARY                     ::
         :::::::::::::::::::::::::::::::::::::::::::::::::::::
         :: total energy             -82.916823246910 Eh    ::
         :: total w/o Gsasa/hb       -82.896273781452 Eh    ::
         :: gradient norm              0.000421350101 Eh/a0 ::
         :: HOMO-LUMO gap              0.449803272334 eV    ::
         ::.................................................::
         :: SCC energy               -83.700337686507 Eh    ::
         :: -> electrostatic           0.478884009926 Eh    ::
         :: -> Gsolv                  -0.123964698935 Eh    ::
         ::    -> Gelec               -0.103415233476 Eh    ::
         ::    -> Gsasa               -0.023960841573 Eh    ::
         ::    -> Ghb                 -0.004212902890 Eh    ::
         ::    -> Gshift               0.007624279005 Eh    ::
         :: repulsion energy           0.809855984875 Eh    ::
         :: dispersion energy         -0.026341545278 Eh    ::
         :: halogen bond corr.         0.000000000000 Eh    ::
         :: add. restraining           0.000000000000 Eh    ::
         :: total charge               0.000000000840 e     ::
         :::::::::::::::::::::::::::::::::::::::::::::::::::::

           -------------------------------------------------
          |                Property Printout                |
           -------------------------------------------------

    * Orbital Energies and Occupations

         #    Occupation            Energy/Eh            Energy/eV
      -------------------------------------------------------------
         1        2.0000           -0.9639090             -26.2293
       ...           ...                  ...                  ...
        55        2.0000           -0.5075297             -13.8106
        56        2.0000           -0.5013338             -13.6420
        57        2.0000           -0.4999568             -13.6045
        58        2.0000           -0.4930737             -13.4172
        59        2.0000           -0.4825624             -13.1312
        60        2.0000           -0.4721731             -12.8485
        61        2.0000           -0.4665433             -12.6953
        62        2.0000           -0.4643449             -12.6355
        63        2.0000           -0.4498015             -12.2397
        64        2.0000           -0.4446879             -12.1006
        65        2.0000           -0.4294994             -11.6873
        66        2.0000           -0.3863038             -10.5119
        67        1.9997           -0.3740561             -10.1786 (HOMO)
        68        0.0003           -0.3575262              -9.7288 (LUMO)
        69                         -0.3092648              -8.4155
        70                         -0.2779511              -7.5634
        71                         -0.2501562              -6.8071
        72                         -0.2355054              -6.4084
        73                         -0.2041042              -5.5540
        74                         -0.1873066              -5.0969
        75                         -0.1735914              -4.7237
        76                         -0.1341772              -3.6511
        77                         -0.1287503              -3.5035
        78                         -0.1253160              -3.4100
       ...                                ...                  ...
       134                          0.7653486              20.8262
      -------------------------------------------------------------
                  HL-Gap            0.0165300 Eh            0.4498 eV
             Fermi-level           -0.3657912 Eh           -9.9537 eV

  Mulliken/CM5 charges         n(s)   n(p)   n(d)
     1C     0.17288  0.05357   0.971  2.856  0.000
     2O    -0.45212 -0.53264   1.695  4.757  0.000
     3C     0.54721  0.61134   0.977  2.476  0.000
     4O    -0.60430 -0.64934   1.731  4.873  0.000
     5C    -0.01718  0.05857   1.036  2.981  0.000
     6N    -0.39015 -0.58482   1.528  3.862  0.000
     7C     0.23876  0.39037   0.999  2.762  0.000
     8C     0.14809  0.18771   1.069  2.783  0.000
     9C    -0.10887 -0.24860   1.020  3.088  0.000
    10C    -0.10936 -0.24911   1.020  3.089  0.000
    11N    -0.30533 -0.65314   1.435  3.870  0.000
    12C     0.47281  0.58510   0.961  2.566  0.000
    13O    -0.56708 -0.61957   1.724  4.844  0.000
    14C     0.33624  0.46181   1.036  2.627  0.000
    15N    -0.16829 -0.28185   1.549  3.619  0.000
    16N    -0.19182 -0.30447   1.545  3.647  0.000
    17C     0.38620  0.49354   1.027  2.587  0.000
    18C    -0.11500 -0.25347   1.019  3.096  0.000
    19O    -0.19714 -0.29310   1.647  4.550  0.000
    20C     0.14969  0.02546   1.019  2.831  0.000
    21N    -0.31609 -0.66213   1.434  3.882  0.000
    22C     0.43004  0.53282   1.013  2.557  0.000
    23O    -0.59835 -0.63609   1.734  4.865  0.000
    24C     0.29394  0.33940   1.032  2.674  0.000
    25O    -0.62215 -0.66037   1.741  4.881  0.000
    26H     0.03612  0.09778   0.964  0.000  0.000
    27H     0.02972  0.09052   0.970  0.000  0.000
    28H     0.03564  0.09715   0.964  0.000  0.000
    29H     0.04787  0.10461   0.952  0.000  0.000
    30H     0.05075  0.10667   0.949  0.000  0.000
    31H     0.06136  0.12080   0.939  0.000  0.000
    32H     0.05072  0.10680   0.949  0.000  0.000
    33H     0.04792  0.10466   0.952  0.000  0.000
    34H     0.06183  0.12148   0.938  0.000  0.000
    35H     0.25932  0.47552   0.741  0.000  0.000
    36H     0.10519  0.16108   0.895  0.000  0.000
    37H     0.10405  0.15859   0.896  0.000  0.000
    38H     0.10400  0.15855   0.896  0.000  0.000
    39H     0.10148  0.16351   0.899  0.000  0.000
    40H     0.11600  0.18010   0.884  0.000  0.000
    41H     0.11619  0.18030   0.884  0.000  0.000
    42H     0.25920  0.46086   0.741  0.000  0.000

Wiberg/Mayer (AO) data.
largest (>0.10) Wiberg bond orders for each atom

 ---------------------------------------------------------------------------
     #   Z sym  total        # sym  WBO       # sym  WBO       # sym  WBO
 ---------------------------------------------------------------------------
     1   6 C    3.898 --    27 H    0.987    28 H    0.980    26 H    0.980
                             2 O    0.925
     2   8 O    2.133 --     3 C    1.021     1 C    0.925     4 O    0.109
     3   6 C    3.850 --     4 O    1.599     5 C    1.118     2 O    1.021
     4   8 O    1.875 --     3 C    1.599     2 O    0.109
     5   6 C    3.911 --    24 C    1.263     6 N    1.147     3 C    1.118
                            25 O    0.129
     6   7 N    3.072 --     7 C    1.623     5 C    1.147
     7   6 C    3.936 --     6 N    1.623    21 N    1.106     8 C    0.977
     8   6 C    3.920 --    10 C    0.983     9 C    0.982     7 C    0.977
                            11 N    0.912
     9   6 C    3.988 --    29 H    0.985    30 H    0.983     8 C    0.982
                            31 H    0.981
    10   6 C    3.988 --    33 H    0.985     8 C    0.983    32 H    0.983
                            34 H    0.981
    11   7 N    3.419 --    12 C    1.339     8 C    0.912    35 H    0.854
                            13 O    0.201
    12   6 C    3.931 --    13 O    1.557    11 N    1.339    14 C    0.962
    13   8 O    1.922 --    12 C    1.557    11 N    0.201
    14   6 C    3.795 --    15 N    1.709    12 C    0.962    19 O    0.882
    15   7 N    3.042 --    14 C    1.709    16 N    1.142
    16   7 N    3.024 --    17 C    1.702    15 N    1.142
    17   6 C    3.804 --    16 N    1.702    18 C    1.043    19 O    0.875
    18   6 C    3.970 --    17 C    1.043    36 H    0.970    38 H    0.952
                            37 H    0.951
    19   8 O    2.653 --    14 C    0.882    17 C    0.875    20 C    0.749
    20   6 C    3.727 --    39 H    0.975    40 H    0.968    41 H    0.968
                            19 O    0.749
    21   7 N    3.424 --    22 C    1.146     7 C    1.106    42 H    0.895
                            23 O    0.133
    22   6 C    3.874 --    23 O    1.595    21 N    1.146    24 C    0.962
    23   8 O    1.872 --    22 C    1.595    21 N    0.133
    24   6 C    3.942 --    25 O    1.535     5 C    1.263    22 C    0.962
    25   8 O    1.838 --    24 C    1.535     5 C    0.129
    26   1 H    1.013 --     1 C    0.980
    27   1 H    1.017 --     1 C    0.987
    28   1 H    1.013 --     1 C    0.980
    29   1 H    1.002 --     9 C    0.985
    30   1 H    1.000 --     9 C    0.983
    31   1 H    1.005 --     9 C    0.981
    32   1 H    1.000 --    10 C    0.983
    33   1 H    1.002 --    10 C    0.985
    34   1 H    1.005 --    10 C    0.981
    35   1 H    0.967 --    11 N    0.854
    36   1 H    0.989 --    18 C    0.970
    37   1 H    0.989 --    18 C    0.951
    38   1 H    0.989 --    18 C    0.952
    39   1 H    0.991 --    20 C    0.975
    40   1 H    1.000 --    20 C    0.968
    41   1 H    1.001 --    20 C    0.968
    42   1 H    0.943 --    21 N    0.895
 ---------------------------------------------------------------------------

Topologies differ in total number of bonds
Writing topology from bond orders to xtbtopo.mol

 dipole moment from electron density (au)
     X       Y       Z   
 -16.7905   3.0283   1.2292  total (Debye):   43.478

           -------------------------------------------------
          |                Geometry Summary                 |
           -------------------------------------------------

      molecular mass/u    :      351.3152409
   center of mass at/Å    :        0.7184153      -0.0530020      -0.0856228
  moments of inertia/u·Å² :        0.1414456E+04   0.3833820E+04   0.5128905E+04
rotational constants/cm⁻¹ :        0.1191811E-01   0.4397085E-02   0.3286789E-02

 * 37 selected distances

     #   Z          #   Z                                           value/Å
     1   6 C        2   8 O                                       1.4215199
     2   8 O        3   6 C                                       1.3708300
     3   6 C        4   8 O                                       1.2194622
     6   7 N        7   6 C                                       1.2808855
     8   6 C        9   6 C                                       1.5337065 (max)
     8   6 C       10   6 C                                       1.5332078
     8   6 C       11   7 N                                       1.4672823
    11   7 N       12   6 C                                       1.3236372
    12   6 C       13   8 O                                       1.2206732
    14   6 C       15   7 N                                       1.2779247
    16   7 N       17   6 C                                       1.2765266
    17   6 C       18   6 C                                       1.4709063
    14   6 C       19   8 O                                       1.3962402
    17   6 C       19   8 O                                       1.4008748
    19   8 O       20   6 C                                       1.4626657
     7   6 C       21   7 N                                       1.3751251
    21   7 N       22   6 C                                       1.3769237
    22   6 C       23   8 O                                       1.2255604
     5   6 C       24   6 C                                       1.4203860
    24   6 C       25   8 O                                       1.2411518
     1   6 C       26   1 H                                       1.0950247
     1   6 C       27   1 H                                       1.0890584
     1   6 C       28   1 H                                       1.0950772
     9   6 C       29   1 H                                       1.0890456
     9   6 C       30   1 H                                       1.0882507
     9   6 C       31   1 H                                       1.0880707
    10   6 C       32   1 H                                       1.0882868
    10   6 C       33   1 H                                       1.0890609
    10   6 C       34   1 H                                       1.0879400
    11   7 N       35   1 H                                       1.0251750
    18   6 C       36   1 H                                       1.0887051
    18   6 C       37   1 H                                       1.0902150
    18   6 C       38   1 H                                       1.0901234
    20   6 C       39   1 H                                       1.0849589
    20   6 C       40   1 H                                       1.0878579
    20   6 C       41   1 H                                       1.0875637
    21   7 N       42   1 H                                       1.0062720 (min)

 * 5 distinct bonds (by element types)

   Z      Z             #   av. dist./Å        max./Å        min./Å
   1 H    6 C          15     1.0892826     1.0950772     1.0849589
   6 C    6 C           4     1.4895516     1.5337065     1.4203860
   1 H    7 N           2     1.0157235     1.0251750     1.0062720
   6 C    7 N           7     1.3397579     1.4672823     1.2765266
   6 C    8 O           9     1.3287753     1.4626657     1.2194622


optimized geometry written to: xtbopt.xyz


           -------------------------------------------------
          | TOTAL ENERGY              -82.916823246910 Eh   |
          | GRADIENT NORM               0.000421350101 Eh/α |
          | HOMO-LUMO GAP               0.449803272334 eV   |
           -------------------------------------------------

------------------------------------------------------------------------
 * finished run on 2023/06/21 at 17:29:32.071     
------------------------------------------------------------------------
 total:
 * wall-time:     0 d,  0 h,  0 min,  6.628 sec
 *  cpu-time:     0 d,  0 h,  0 min,  6.410 sec
 * ratio c/w:     0.967 speedup
 SCF:
 * wall-time:     0 d,  0 h,  0 min,  0.281 sec
 *  cpu-time:     0 d,  0 h,  0 min,  0.212 sec
 * ratio c/w:     0.754 speedup
 ANC optimizer:
 * wall-time:     0 d,  0 h,  0 min,  6.161 sec
 *  cpu-time:     0 d,  0 h,  0 min,  6.147 sec
 * ratio c/w:     0.998 speedup

