      -----------------------------------------------------------      
     |                   =====================                   |     
     |                           x T B                           |     
     |                   =====================                   |     
     |                         S. Grimme                         |     
     |          Mulliken Center for Theoretical Chemistry        |     
     |                    University of Bonn                     |     
      -----------------------------------------------------------      

   * xtb version 6.5.1 (579679a) compiled by 'ehlert@majestix' on 2022-07-11

   xtb is free software: you can redistribute it and/or modify it under
   the terms of the GNU Lesser General Public License as published by
   the Free Software Foundation, either version 3 of the License, or
   (at your option) any later version.
   
   xtb is distributed in the hope that it will be useful,
   but WITHOUT ANY WARRANTY; without even the implied warranty of
   MERCHANTABILITY or FITNESS FOR A PARTICULAR PURPOSE.  See the
   GNU Lesser General Public License for more details.
   
   Cite this work as:
   * C. Bannwarth, E. Caldeweyher, S. Ehlert, A. Hansen, P. Pracht,
     J. Seibert, S. Spicher, S. Grimme, WIREs Comput. Mol. Sci., 2020, 11,
     e01493. DOI: 10.1002/wcms.1493
   
   for GFN2-xTB:
   * C. Bannwarth, S. Ehlert and S. Grimme., J. Chem. Theory Comput., 2019,
     15, 1652-1671. DOI: 10.1021/acs.jctc.8b01176
   for GFN1-xTB:
   * S. Grimme, C. Bannwarth, P. Shushkov, J. Chem. Theory Comput., 2017,
     13, 1989-2009. DOI: 10.1021/acs.jctc.7b00118
   for GFN0-xTB:
   * P. Pracht, E. Caldeweyher, S. Ehlert, S. Grimme, ChemRxiv, 2019, preprint.
     DOI: 10.26434/chemrxiv.8326202.v1
   for GFN-FF:
   * S. Spicher and S. Grimme, Angew. Chem. Int. Ed., 2020, 59, 15665-15673.
     DOI: 10.1002/anie.202004239
   
   for ALPB and GBSA implicit solvation:
   * S. Ehlert, M. Stahn, S. Spicher, S. Grimme, J. Chem. Theory Comput.,
     2021, 17, 4250-4261. DOI: 10.1021/acs.jctc.1c00471
   
   for DFT-D4:
   * E. Caldeweyher, C. Bannwarth and S. Grimme, J. Chem. Phys., 2017,
     147, 034112. DOI: 10.1063/1.4993215
   * E. Caldeweyher, S. Ehlert, A. Hansen, H. Neugebauer, S. Spicher,
     C. Bannwarth and S. Grimme, J. Chem. Phys., 2019, 150, 154122.
     DOI: 10.1063/1.5090222
   * E. Caldeweyher, J.-M. Mewes, S. Ehlert and S. Grimme, Phys. Chem. Chem. Phys.
     2020, 22, 8499-8512. DOI: 10.1039/D0CP00502A
   
   for sTDA-xTB:
   * S. Grimme and C. Bannwarth, J. Chem. Phys., 2016, 145, 054103.
     DOI: 10.1063/1.4959605
   
   in the mass-spec context:
   * V. Asgeirsson, C. Bauer and S. Grimme, Chem. Sci., 2017, 8, 4879.
     DOI: 10.1039/c7sc00601b
   * J. Koopman and S. Grimme, ACS Omega 2019, 4, 12, 15120-15133.
     DOI: 10.1021/acsomega.9b02011
   
   for metadynamics refer to:
   * S. Grimme, J. Chem. Theory Comput., 2019, 155, 2847-2862
     DOI: 10.1021/acs.jctc.9b00143
   
   for SPH calculations refer to:
   * S. Spicher and S. Grimme, J. Chem. Theory Comput., 2021, 17, 1701-1714
     DOI: 10.1021/acs.jctc.0c01306
   
   with help from (in alphabetical order)
   P. Atkinson, C. Bannwarth, F. Bohle, G. Brandenburg, E. Caldeweyher
   M. Checinski, S. Dohm, S. Ehlert, S. Ehrlich, I. Gerasimov, C. Hölzer
   A. Katbashev, J. Koopman, C. Lavigne, S. Lehtola, F. März, M. Müller,
   F. Musil, H. Neugebauer, J. Pisarek, C. Plett, P. Pracht, F. Pultar,
   J. Seibert, P. Shushkov, S. Spicher, M. Stahn, M. Steiner, T. Strunk,
   J. Stückrath, T. Rose, and J. Unsleber
   
 * started run on 2023/06/20 at 15:23:22.519     

           -------------------------------------------------
          |                Calculation Setup                |
           -------------------------------------------------

          program call               : /lustre/hpc/kemi/ree/PhD/git/ReactivityQM/dep/xtb-6.5.1/bin/xtb --gfn 1 /lustre/hpc/kemi/ree/PhD/git/ReactivityQM/calculations/RaltegravirCLI/reac02prodN06/conf05/RaltegravirCLI_reac02prodN06_conf05_gfn1.xyz --opt --vfukui --chrg 1 --uhf 0 --alpb DMSO
          hostname                   : node308
          coordinate file            : /lustre/hpc/kemi/ree/PhD/git/ReactivityQM/calculations/RaltegravirCLI/reac02prodN06/conf05/RaltegravirCLI_reac02prodN06_conf05_gfn1.xyz
          omp threads                :                     1

   ID    Z sym.   atoms
    1    6 C      1, 3, 5, 7-9, 12-16, 18, 19, 21-24
    2    7 N      2, 11, 20, 25
    3    8 O      4, 6, 10
    4    9 F      17
    5    1 H      26-47

           -------------------------------------------------
          |                 G F N 1 - x T B                 |
           -------------------------------------------------

        Reference                      10.1021/acs.jctc.7b00118
      * Hamiltonian:
        H0-scaling (s, p, d)           1.850000    2.250000    2.000000
        zeta-weighting                 0.000000
      * Dispersion:
        s8                             2.400000
        a1                             0.630000
        a2                             5.000000
        s9                             0.000000
      * Repulsion:
        kExp                           1.500000
        rExp                           1.000000
      * Coulomb:
        alpha                          2.000000
        third order                    atomic
        anisotropic                    false
      * Halogen bond correction:
        rad-scale                      1.300000
        damping                        0.440000

      * Solvation model:               ALPB
        Solvent                        DMSO
        Parameter file                 internal GFN1-xTB/ALPB
        Dielectric constant                4.6680E+01
        Reference state                gsolv [1 M gas/solution]
        Free energy shift                  7.6243E-03 Eh       4.7843E+00 kcal/mol
        Temperature                        2.9815E+02 K
        Density                            1.1000E+00 kg/L
        Solvent mass                       7.8130E+01 g/mol
        Interaction kernel             P16
        Born radius scaling (c1)           1.7672E+00
        Born radii integrator          GBOBC
        Born offset                        0.0000E+00 a0       0.0000E+00 AA
        H-bond correction              true
        Ion screening                  false
        Surface tension                    1.0000E-05 Eh       1.5569E+01 dyn/cm
        Grid points                               230 per atom

          ...................................................
          :                      SETUP                      :
          :.................................................:
          :  # basis functions                 144          :
          :  # atomic orbitals                 144          :
          :  # shells                           94          :
          :  # electrons                       134          :
          :  # halogen bonds                     0          :
          :  max. iterations                   250          :
          :  Hamiltonian                  GFN1-xTB          :
          :  restarted?                      false          :
          :  GBSA solvation                   true          :
          :  PC potential                    false          :
          :  electronic temp.          300.0000000     K    :
          :  accuracy                    1.0000000          :
          :  -> integral cutoff          0.2500000E+02      :
          :  -> integral neglect         0.1000000E-07      :
          :  -> SCF convergence          0.1000000E-05 Eh   :
          :  -> wf. convergence          0.2000000E-04 e    :
          :  Broyden damping             0.4000000          :
          ...................................................

 iter      E             dE          RMSdq      gap      omega  full diag
   1    -80.0606585 -0.800607E+02  0.853E+00    1.41       0.0  T
   2    -79.7691350  0.291524E+00  0.575E+00    0.26       1.0  T
   3    -79.9583419 -0.189207E+00  0.357E+00    2.62       1.0  T
   4    -80.1850841 -0.226742E+00  0.198E+00    1.99       1.0  T
   5    -80.2993314 -0.114247E+00  0.106E+00    1.12       1.0  T
   6    -80.3422716 -0.429402E-01  0.461E-01    0.53       1.0  T
   7    -80.3496492 -0.737760E-02  0.151E-01    0.22       1.0  T
   8    -80.3499550 -0.305762E-03  0.132E-01    0.27       1.0  T
   9    -80.3416480  0.830697E-02  0.318E-01    0.12       1.0  T
  10    -80.3444528 -0.280479E-02  0.320E-01    0.54       1.0  T
  11    -80.3488236 -0.437082E-02  0.166E-01    0.35       1.0  T
  12    -80.3508931 -0.206941E-02  0.134E-02    0.20       1.1  T
  13    -80.3507758  0.117284E-03  0.389E-02    0.21       1.0  T
  14    -80.3506722  0.103616E-03  0.507E-02    0.17       1.0  T
  15    -80.3507559 -0.837662E-04  0.413E-02    0.21       1.0  T
  16    -80.3509030 -0.147123E-03  0.439E-03    0.19       3.3  T
  17    -80.3509033 -0.237490E-06  0.411E-03    0.20       3.5  T
  18    -80.3509048 -0.147618E-05  0.495E-04    0.19      29.5  T
  19    -80.3509048 -0.210086E-07  0.939E-05    0.19     155.3  T
  20    -80.3509048 -0.321194E-09  0.720E-05    0.19     202.5  T

   *** convergence criteria satisfied after 20 iterations ***

         #    Occupation            Energy/Eh            Energy/eV
      -------------------------------------------------------------
         1        2.0000           -0.8868210             -24.1316
       ...           ...                  ...                  ...
        61        2.0000           -0.4915100             -13.3747
        62        2.0000           -0.4776876             -12.9985
        63        2.0000           -0.4731147             -12.8741
        64        2.0000           -0.4688937             -12.7592
        65        2.0000           -0.4593785             -12.5003
        66        2.0000           -0.4470035             -12.1636
        67        1.9535           -0.4392290             -11.9520 (HOMO)
        68        0.0465           -0.4321264             -11.7588 (LUMO)
        69                         -0.3241925              -8.8217
        70                         -0.3002466              -8.1701
        71                         -0.2772508              -7.5444
        72                         -0.2755191              -7.4973
       ...                                ...                  ...
       144                          0.6609311              17.9849
      -------------------------------------------------------------
                  HL-Gap            0.0071027 Eh            0.1933 eV
             Fermi-level           -0.4356776 Eh          -11.8554 eV

 SCC (total)                   0 d,  0 h,  0 min,  0.226 sec
 SCC setup                      ...        0 min,  0.002 sec (  0.789%)
 Dispersion                     ...        0 min,  0.000 sec (  0.152%)
 classical contributions        ...        0 min,  0.000 sec (  0.054%)
 integral evaluation            ...        0 min,  0.043 sec ( 18.849%)
 iterations                     ...        0 min,  0.079 sec ( 34.986%)
 molecular gradient             ...        0 min,  0.101 sec ( 44.674%)
 printout                       ...        0 min,  0.001 sec (  0.476%)

         :::::::::::::::::::::::::::::::::::::::::::::::::::::
         ::                     SUMMARY                     ::
         :::::::::::::::::::::::::::::::::::::::::::::::::::::
         :: total energy             -79.463610773826 Eh    ::
         :: total w/o Gsasa/hb       -79.434507349129 Eh    ::
         :: gradient norm              0.144679602498 Eh/a0 ::
         :: HOMO-LUMO gap              0.193273912398 eV    ::
         ::.................................................::
         :: SCC energy               -80.350904779577 Eh    ::
         :: -> electrostatic           0.301643708374 Eh    ::
         :: -> Gsolv                  -0.105480096048 Eh    ::
         ::    -> Gelec               -0.076376671352 Eh    ::
         ::    -> Gsasa               -0.024423713828 Eh    ::
         ::    -> Ghb                 -0.012303989873 Eh    ::
         ::    -> Gshift               0.007624279005 Eh    ::
         :: repulsion energy           0.918943680098 Eh    ::
         :: dispersion energy         -0.031649674347 Eh    ::
         :: halogen bond corr.         0.000000000000 Eh    ::
         :: add. restraining           0.000000000000 Eh    ::
         :: total charge               1.000000000000 e     ::
         :::::::::::::::::::::::::::::::::::::::::::::::::::::

      ----------------------------------------------------------- 
     |                   =====================                   |
     |                        A N C O P T                        |
     |                   =====================                   |
     |               Approximate Normal Coordinate               |
     |                Rational Function Optimizer                |
      ----------------------------------------------------------- 

          ...................................................
          :                      SETUP                      :
          :.................................................:
          :   optimization level            normal          :
          :   max. optcycles                   200          :
          :   ANC micro-cycles                  20          :
          :   degrees of freedom               135          :
          :.................................................:
          :   RF solver                   davidson          :
          :   write xtbopt.log                true          :
          :   linear?                        false          :
          :   energy convergence         0.5000000E-05 Eh   :
          :   grad. convergence          0.1000000E-02 Eh/α :
          :   maximium RF displ.         1.0000000          :
          :   Hlow (freq-cutoff)         0.1000000E-01      :
          :   Hmax (freq-cutoff)         5.0000000          :
          :   S6 in model hess.         20.0000000          :
          ...................................................

generating ANC from model Hessian ...
Using Lindh-Hessian (1995)
 Shifting diagonal of input Hessian by   9.735203028866553E-003
 Lowest  eigenvalues of input Hessian
    0.000000    0.000000    0.000000    0.000000    0.000000    0.000000
    0.010000    0.010070    0.010358    0.010755    0.011374    0.011514
    0.012953    0.013679    0.014098    0.015795    0.017872    0.018214
 Highest eigenvalues
    1.979316    2.040255    2.092775    2.150497    2.285406    2.307165
 

........................................................................
.............................. CYCLE    1 ..............................
........................................................................
   1    -80.3509048 -0.803509E+02  0.356E-06    0.19       0.0  T
   2    -80.3509048  0.247269E-10  0.167E-05    0.19     874.1  T
   3    -80.3509048 -0.257927E-10  0.648E-07    0.19   22514.0  T
     SCC iter.                  ...        0 min,  0.013 sec
     gradient                   ...        0 min,  0.101 sec
 * total energy  :   -79.4636108 Eh     change       -0.4614549E-09 Eh
   gradient norm :     0.1446749 Eh/α   predicted     0.0000000E+00 (-100.00%)
   displ. norm   :     0.2906117 α      lambda       -0.2105917E-01
   maximum displ.:     0.0912891 α      in ANC's #11, #74, #47, ...

........................................................................
.............................. CYCLE    2 ..............................
........................................................................
   1    -80.3625059 -0.803625E+02  0.185E-01    0.45       0.0  T
   2    -80.1882859  0.174220E+00  0.138E+00    0.09       1.0  T
   3    -80.3647156 -0.176430E+00  0.124E-01    0.37       1.0  T
   4    -80.3649604 -0.244835E-03  0.963E-02    0.34       1.0  T
   5    -80.3653551 -0.394677E-03  0.657E-02    0.29       1.0  T
   6    -80.3656489 -0.293753E-03  0.281E-02    0.25       1.0  T
   7    -80.3657033 -0.544243E-04  0.108E-02    0.24       1.4  T
   8    -80.3657121 -0.884891E-05  0.273E-03    0.23       5.4  T
   9    -80.3657127 -0.576150E-06  0.588E-04    0.23      24.8  T
  10    -80.3657127 -0.153215E-07  0.356E-04    0.23      41.0  T
  11    -80.3657127 -0.664106E-08  0.183E-04    0.23      79.6  T
  12    -80.3657127 -0.192449E-08  0.946E-05    0.23     154.2  T
     SCC iter.                  ...        0 min,  0.047 sec
     gradient                   ...        0 min,  0.101 sec
 * total energy  :   -79.4791675 Eh     change       -0.1555676E-01 Eh
   gradient norm :     0.0796612 Eh/α   predicted    -0.1142987E-01 ( -26.53%)
   displ. norm   :     0.2978876 α      lambda       -0.1049726E-01
   maximum displ.:     0.1238981 α      in ANC's #11, #8, #6, ...

........................................................................
.............................. CYCLE    3 ..............................
........................................................................
   1    -80.3801174 -0.803801E+02  0.132E-01    0.55       0.0  T
   2    -80.3800833  0.341027E-04  0.140E-01    0.25       1.0  T
   3    -80.3815730 -0.148974E-02  0.287E-02    0.37       1.0  T
   4    -80.3816302 -0.571681E-04  0.150E-02    0.31       1.0  T
   5    -80.3816265  0.374585E-05  0.121E-02    0.31       1.2  T
   6    -80.3816328 -0.634425E-05  0.259E-03    0.32       5.6  T
   7    -80.3816332 -0.424340E-06  0.647E-04    0.32      22.5  T
   8    -80.3816333 -0.233332E-07  0.209E-04    0.32      69.8  T
   9    -80.3816333 -0.812008E-10  0.108E-04    0.32     135.4  T
  10    -80.3816333 -0.725521E-09  0.230E-05    0.32     635.2  T
     SCC iter.                  ...        0 min,  0.040 sec
     gradient                   ...        0 min,  0.101 sec
 * total energy  :   -79.4852479 Eh     change       -0.6080398E-02 Eh
   gradient norm :     0.0291504 Eh/α   predicted    -0.5716274E-02 (  -5.99%)
   displ. norm   :     0.2586329 α      lambda       -0.1876332E-02
   maximum displ.:     0.1246616 α      in ANC's #11, #6, #8, ...

........................................................................
.............................. CYCLE    4 ..............................
........................................................................
   1    -80.3837324 -0.803837E+02  0.279E-02    0.39       0.0  T
   2    -80.3837862 -0.537886E-04  0.123E-02    0.36       1.2  T
   3    -80.3837908 -0.461910E-05  0.517E-03    0.36       2.8  T
   4    -80.3837911 -0.257495E-06  0.361E-03    0.36       4.0  T
   5    -80.3837914 -0.254553E-06  0.150E-03    0.36       9.7  T
   6    -80.3837914 -0.970149E-07  0.425E-04    0.36      34.4  T
   7    -80.3837915 -0.871906E-08  0.143E-04    0.36     102.3  T
   8    -80.3837915 -0.290683E-09  0.346E-05    0.36     421.3  T
     SCC iter.                  ...        0 min,  0.032 sec
     gradient                   ...        0 min,  0.101 sec
 * total energy  :   -79.4867446 Eh     change       -0.1496661E-02 Eh
   gradient norm :     0.0189943 Eh/α   predicted    -0.1001050E-02 ( -33.11%)
   displ. norm   :     0.4356668 α      lambda       -0.2016619E-02
   maximum displ.:     0.1956541 α      in ANC's #11, #6, #8, ...

........................................................................
.............................. CYCLE    5 ..............................
........................................................................
   1    -80.3849260 -0.803849E+02  0.478E-02    0.44       0.0  T
   2    -80.3850447 -0.118701E-03  0.363E-02    0.44       1.0  T
   3    -80.3851275 -0.827865E-04  0.831E-03    0.42       1.8  T
   4    -80.3851284 -0.942759E-06  0.529E-03    0.42       2.8  T
   5    -80.3851288 -0.412373E-06  0.185E-03    0.42       7.9  T
   6    -80.3851289 -0.200490E-07  0.424E-04    0.42      34.4  T
   7    -80.3851289 -0.696146E-08  0.173E-04    0.42      84.3  T
   8    -80.3851289 -0.418737E-09  0.418E-05    0.42     348.6  T
     SCC iter.                  ...        0 min,  0.032 sec
     gradient                   ...        0 min,  0.101 sec
 * total energy  :   -79.4881010 Eh     change       -0.1356381E-02 Eh
   gradient norm :     0.0105762 Eh/α   predicted    -0.1199712E-02 ( -11.55%)
   displ. norm   :     0.3352564 α      lambda       -0.7269986E-03
   maximum displ.:     0.1654020 α      in ANC's #6, #11, #5, ...

........................................................................
.............................. CYCLE    6 ..............................
........................................................................
   1    -80.3862781 -0.803863E+02  0.272E-02    0.46       0.0  T
   2    -80.3863113 -0.332653E-04  0.193E-02    0.47       1.0  T
   3    -80.3863376 -0.262751E-04  0.449E-03    0.45       3.2  T
   4    -80.3863381 -0.466678E-06  0.219E-03    0.45       6.7  T
   5    -80.3863381 -0.217191E-07  0.865E-04    0.45      16.9  T
   6    -80.3863381 -0.609896E-08  0.173E-04    0.45      84.4  T
   7    -80.3863381 -0.100798E-08  0.795E-05    0.45     183.5  T
     SCC iter.                  ...        0 min,  0.030 sec
     gradient                   ...        0 min,  0.100 sec
 * total energy  :   -79.4886553 Eh     change       -0.5543334E-03 Eh
   gradient norm :     0.0106606 Eh/α   predicted    -0.4043564E-03 ( -27.06%)
   displ. norm   :     0.4145569 α      lambda       -0.7173457E-03
   maximum displ.:     0.2134518 α      in ANC's #6, #3, #5, ...

........................................................................
.............................. CYCLE    7 ..............................
........................................................................
   1    -80.3877926 -0.803878E+02  0.269E-02    0.48       0.0  T
   2    -80.3878184 -0.258198E-04  0.184E-02    0.49       1.0  T
   3    -80.3878454 -0.269425E-04  0.432E-03    0.48       3.4  T
   4    -80.3878458 -0.416289E-06  0.192E-03    0.48       7.6  T
   5    -80.3878458 -0.193320E-07  0.564E-04    0.48      25.8  T
   6    -80.3878458 -0.367781E-08  0.126E-04    0.48     116.0  T
   7    -80.3878458 -0.162871E-09  0.478E-05    0.48     305.3  T
     SCC iter.                  ...        0 min,  0.031 sec
     gradient                   ...        0 min,  0.100 sec
 * total energy  :   -79.4892191 Eh     change       -0.5637614E-03 Eh
   gradient norm :     0.0092300 Eh/α   predicted    -0.4203315E-03 ( -25.44%)
   displ. norm   :     0.4580383 α      lambda       -0.6844081E-03
   maximum displ.:     0.2330786 α      in ANC's #6, #3, #1, ...

........................................................................
.............................. CYCLE    8 ..............................
........................................................................
   1    -80.3886491 -0.803886E+02  0.236E-02    0.48       0.0  T
   2    -80.3886648 -0.156765E-04  0.144E-02    0.50       1.0  T
   3    -80.3886826 -0.178081E-04  0.465E-03    0.49       3.1  T
   4    -80.3886830 -0.476278E-06  0.201E-03    0.49       7.3  T
   5    -80.3886831 -0.329114E-07  0.596E-04    0.49      24.5  T
   6    -80.3886831 -0.823678E-08  0.157E-04    0.49      93.0  T
   7    -80.3886831 -0.491283E-09  0.417E-05    0.49     350.1  T
     SCC iter.                  ...        0 min,  0.030 sec
     gradient                   ...        0 min,  0.100 sec
 * total energy  :   -79.4897539 Eh     change       -0.5348012E-03 Eh
   gradient norm :     0.0079016 Eh/α   predicted    -0.4140280E-03 ( -22.58%)
   displ. norm   :     0.4510274 α      lambda       -0.5555317E-03
   maximum displ.:     0.2236633 α      in ANC's #6, #3, #1, ...

........................................................................
.............................. CYCLE    9 ..............................
........................................................................
   1    -80.3894806 -0.803895E+02  0.181E-02    0.48       0.0  T
   2    -80.3894899 -0.927833E-05  0.108E-02    0.50       1.4  T
   3    -80.3894998 -0.988116E-05  0.387E-03    0.49       3.8  T
   4    -80.3895000 -0.290464E-06  0.165E-03    0.49       8.8  T
   5    -80.3895001 -0.174238E-07  0.529E-04    0.49      27.5  T
   6    -80.3895001 -0.634267E-08  0.118E-04    0.49     123.6  T
   7    -80.3895001 -0.271228E-09  0.324E-05    0.49     450.2  T
     SCC iter.                  ...        0 min,  0.030 sec
     gradient                   ...        0 min,  0.101 sec
 * total energy  :   -79.4901727 Eh     change       -0.4188630E-03 Eh
   gradient norm :     0.0079859 Eh/α   predicted    -0.3343004E-03 ( -20.19%)
   displ. norm   :     0.4151902 α      lambda       -0.3962977E-03
   maximum displ.:     0.2105139 α      in ANC's #3, #6, #1, ...

........................................................................
.............................. CYCLE   10 ..............................
........................................................................
   1    -80.3889072 -0.803889E+02  0.121E-02    0.48       0.0  T
   2    -80.3889140 -0.681896E-05  0.453E-03    0.49       3.2  T
   3    -80.3889146 -0.568408E-06  0.213E-03    0.49       6.8  T
   4    -80.3889146 -0.692437E-08  0.897E-04    0.49      16.3  T
   5    -80.3889146 -0.171005E-07  0.432E-04    0.49      33.7  T
   6    -80.3889146 -0.702036E-08  0.936E-05    0.49     155.8  T
   7    -80.3889146 -0.323027E-09  0.309E-05    0.49     472.8  T
     SCC iter.                  ...        0 min,  0.031 sec
     gradient                   ...        0 min,  0.141 sec
 * total energy  :   -79.4904727 Eh     change       -0.2999477E-03 Eh
   gradient norm :     0.0117120 Eh/α   predicted    -0.2323088E-03 ( -22.55%)
   displ. norm   :     0.4084887 α      lambda       -0.4620292E-03
   maximum displ.:     0.2242087 α      in ANC's #3, #1, #6, ...

........................................................................
.............................. CYCLE   11 ..............................
........................................................................
   1    -80.3927646 -0.803928E+02  0.138E-02    0.49       0.0  T
   2    -80.3927708 -0.614192E-05  0.785E-03    0.49       1.9  T
   3    -80.3927718 -0.991870E-06  0.421E-03    0.48       3.5  T
   4    -80.3927717  0.952740E-07  0.217E-03    0.49       6.7  T
   5    -80.3927719 -0.224395E-06  0.258E-04    0.48      56.5  T
   6    -80.3927719 -0.158236E-08  0.943E-05    0.49     154.6  T
   7    -80.3927719 -0.161080E-09  0.331E-05    0.49     440.0  T
     SCC iter.                  ...        0 min,  0.028 sec
     gradient                   ...        0 min,  0.098 sec
 * total energy  :   -79.4907278 Eh     change       -0.2551160E-03 Eh
   gradient norm :     0.0093240 Eh/α   predicted    -0.2695697E-03 (   5.67%)
   displ. norm   :     0.4374019 α      lambda       -0.4419989E-03
   maximum displ.:     0.2415959 α      in ANC's #3, #1, #6, ...

........................................................................
.............................. CYCLE   12 ..............................
........................................................................
   1    -80.3884159 -0.803884E+02  0.261E-02    0.48       0.0  T
   2    -80.3884514 -0.355020E-04  0.175E-02    0.47       1.0  T
   3    -80.3884707 -0.193821E-04  0.480E-03    0.48       3.0  T
   4    -80.3884710 -0.204805E-06  0.295E-03    0.48       4.9  T
   5    -80.3884710 -0.541573E-07  0.558E-04    0.48      26.2  T
   6    -80.3884710 -0.648252E-08  0.151E-04    0.48      96.8  T
   7    -80.3884710 -0.983164E-09  0.291E-05    0.48     500.8  T
     SCC iter.                  ...        0 min,  0.028 sec
     gradient                   ...        0 min,  0.100 sec
 * total energy  :   -79.4909460 Eh     change       -0.2181878E-03 Eh
   gradient norm :     0.0154189 Eh/α   predicted    -0.2632816E-03 (  20.67%)
   displ. norm   :     0.1274164 α      lambda       -0.2795038E-03
   maximum displ.:     0.0721588 α      in ANC's #5, #9, #1, ...

........................................................................
.............................. CYCLE   13 ..............................
........................................................................
   1    -80.3911081 -0.803911E+02  0.140E-02    0.49       0.0  T
   2    -80.3911129 -0.483290E-05  0.741E-03    0.48       2.0  T
   3    -80.3911172 -0.422367E-05  0.360E-03    0.48       4.1  T
   4    -80.3911174 -0.242175E-06  0.132E-03    0.48      11.1  T
   5    -80.3911174 -0.990994E-08  0.313E-04    0.48      46.7  T
   6    -80.3911174 -0.304711E-08  0.629E-05    0.48     232.0  T
   7    -80.3911174 -0.738964E-10  0.209E-05    0.48     697.1  T
     SCC iter.                  ...        0 min,  0.028 sec
     gradient                   ...        0 min,  0.100 sec
 * total energy  :   -79.4911626 Eh     change       -0.2166519E-03 Eh
   gradient norm :     0.0102399 Eh/α   predicted    -0.1420200E-03 ( -34.45%)
   displ. norm   :     0.3518241 α      lambda       -0.4135185E-03
   maximum displ.:     0.1939152 α      in ANC's #3, #1, #5, ...

........................................................................
.............................. CYCLE   14 ..............................
........................................................................
   1    -80.3908936 -0.803909E+02  0.203E-02    0.51       0.0  T
   2    -80.3909095 -0.158958E-04  0.852E-03    0.49       1.7  T
   3    -80.3909138 -0.430450E-05  0.491E-03    0.49       3.0  T
   4    -80.3909144 -0.513968E-06  0.223E-03    0.49       6.6  T
   5    -80.3909144  0.753730E-09  0.600E-04    0.49      24.3  T
   6    -80.3909144 -0.921656E-08  0.143E-04    0.49     102.0  T
   7    -80.3909144 -0.528559E-09  0.478E-05    0.49     305.0  T
     SCC iter.                  ...        0 min,  0.028 sec
     gradient                   ...        0 min,  0.100 sec
 * total energy  :   -79.4914143 Eh     change       -0.2516804E-03 Eh
   gradient norm :     0.0072995 Eh/α   predicted    -0.2323685E-03 (  -7.67%)
   displ. norm   :     0.3513637 α      lambda       -0.2544403E-03
   maximum displ.:     0.2061227 α      in ANC's #3, #1, #5, ...

........................................................................
.............................. CYCLE   15 ..............................
........................................................................
   1    -80.3895376 -0.803895E+02  0.295E-02    0.49       0.0  T
   2    -80.3895813 -0.437480E-04  0.187E-02    0.47       1.0  T
   3    -80.3896076 -0.263227E-04  0.338E-03    0.49       4.3  T
   4    -80.3896080 -0.350870E-06  0.148E-03    0.49       9.9  T
   5    -80.3896080 -0.580150E-08  0.553E-04    0.49      26.4  T
   6    -80.3896080 -0.225982E-08  0.136E-04    0.49     107.1  T
   7    -80.3896080 -0.374115E-09  0.389E-05    0.49     375.1  T
     SCC iter.                  ...        0 min,  0.028 sec
     gradient                   ...        0 min,  0.100 sec
 * total energy  :   -79.4915655 Eh     change       -0.1512110E-03 Eh
   gradient norm :     0.0095067 Eh/α   predicted    -0.1429289E-03 (  -5.48%)
   displ. norm   :     0.2553162 α      lambda       -0.1912755E-03
   maximum displ.:     0.1557885 α      in ANC's #3, #1, #5, ...

........................................................................
.............................. CYCLE   16 ..............................
........................................................................
   1    -80.3901209 -0.803901E+02  0.579E-03    0.49       0.0  T
   2    -80.3901227 -0.170259E-05  0.254E-03    0.49       5.7  T
   3    -80.3901227 -0.944400E-07  0.121E-03    0.49      12.1  T
   4    -80.3901227  0.104133E-08  0.473E-04    0.49      30.9  T
   5    -80.3901227 -0.357188E-08  0.107E-04    0.49     136.4  T
   6    -80.3901227 -0.388951E-09  0.554E-05    0.49     263.4  T
     SCC iter.                  ...        0 min,  0.024 sec
     gradient                   ...        0 min,  0.100 sec
 * total energy  :   -79.4917161 Eh     change       -0.1505480E-03 Eh
   gradient norm :     0.0061402 Eh/α   predicted    -0.1018773E-03 ( -32.33%)
   displ. norm   :     0.3811658 α      lambda       -0.2180390E-03
   maximum displ.:     0.2360888 α      in ANC's #3, #1, #5, ...

........................................................................
.............................. CYCLE   17 ..............................
........................................................................
   1    -80.3894792 -0.803895E+02  0.842E-03    0.49       0.0  T
   2    -80.3894813 -0.208415E-05  0.433E-03    0.50       3.4  T
   3    -80.3894824 -0.110216E-05  0.248E-03    0.50       5.9  T
   4    -80.3894825 -0.902700E-07  0.794E-04    0.50      18.4  T
   5    -80.3894825 -0.638933E-08  0.266E-04    0.50      54.8  T
   6    -80.3894825 -0.159109E-08  0.658E-05    0.50     221.8  T
   7    -80.3894825 -0.683542E-10  0.182E-05    0.50     799.4  T
     SCC iter.                  ...        0 min,  0.027 sec
     gradient                   ...        0 min,  0.100 sec
 * total energy  :   -79.4918637 Eh     change       -0.1476578E-03 Eh
   gradient norm :     0.0063895 Eh/α   predicted    -0.1248600E-03 ( -15.44%)
   displ. norm   :     0.2569094 α      lambda       -0.1652937E-03
   maximum displ.:     0.1336159 α      in ANC's #3, #1, #5, ...

........................................................................
.............................. CYCLE   18 ..............................
........................................................................
   1    -80.3930373 -0.803930E+02  0.162E-02    0.49       0.0  T
   2    -80.3930490 -0.117226E-04  0.111E-02    0.51       1.3  T
   3    -80.3930585 -0.945621E-05  0.281E-03    0.50       5.2  T
   4    -80.3930585 -0.591359E-07  0.153E-03    0.50       9.5  T
   5    -80.3930585 -0.141338E-08  0.300E-04    0.50      48.7  T
   6    -80.3930585 -0.190364E-08  0.640E-05    0.50     227.9  T
   7    -80.3930585 -0.682689E-10  0.200E-05    0.50     727.8  T
     SCC iter.                  ...        0 min,  0.027 sec
     gradient                   ...        0 min,  0.100 sec
 * total energy  :   -79.4919399 Eh     change       -0.7621237E-04 Eh
   gradient norm :     0.0070705 Eh/α   predicted    -0.8810529E-04 (  15.60%)
   displ. norm   :     0.3820613 α      lambda       -0.1462052E-03
   maximum displ.:     0.2297214 α      in ANC's #3, #1, #5, ...

........................................................................
.............................. CYCLE   19 ..............................
........................................................................
   1    -80.3891978 -0.803892E+02  0.113E-02    0.49       0.0  T
   2    -80.3892035 -0.569752E-05  0.527E-03    0.49       2.8  T
   3    -80.3892043 -0.812577E-06  0.245E-03    0.50       6.0  T
   4    -80.3892043 -0.151101E-07  0.155E-03    0.50       9.4  T
   5    -80.3892044 -0.568123E-07  0.202E-04    0.50      72.1  T
   6    -80.3892044 -0.160966E-08  0.662E-05    0.50     220.3  T
   7    -80.3892044 -0.155538E-09  0.181E-05    0.50     806.7  T
     SCC iter.                  ...        0 min,  0.028 sec
     gradient                   ...        0 min,  0.099 sec
 * total energy  :   -79.4920148 Eh     change       -0.7486821E-04 Eh
   gradient norm :     0.0077428 Eh/α   predicted    -0.8377387E-04 (  11.90%)
   displ. norm   :     0.0944312 α      lambda       -0.1124609E-03
   maximum displ.:     0.0503707 α      in ANC's #5, #6, #1, ...

........................................................................
.............................. CYCLE   20 ..............................
........................................................................
   1    -80.3914515 -0.803915E+02  0.769E-03    0.50       0.0  T
   2    -80.3914545 -0.309121E-05  0.500E-03    0.50       2.9  T
   3    -80.3914554 -0.882751E-06  0.184E-03    0.50       7.9  T
   4    -80.3914554 -0.763198E-08  0.119E-03    0.50      12.2  T
   5    -80.3914555 -0.271539E-07  0.282E-04    0.50      51.7  T
   6    -80.3914555 -0.124577E-08  0.549E-05    0.50     265.8  T
   7    -80.3914555 -0.100982E-09  0.188E-05    0.50     776.1  T
     SCC iter.                  ...        0 min,  0.027 sec
     gradient                   ...        0 min,  0.100 sec
 * total energy  :   -79.4920864 Eh     change       -0.7160589E-04 Eh
   gradient norm :     0.0055267 Eh/α   predicted    -0.5673183E-04 ( -20.77%)
   displ. norm   :     0.1673403 α      lambda       -0.1111612E-03
   maximum displ.:     0.0893878 α      in ANC's #5, #1, #3, ...
 * RMSD in coord.:     0.7346570 α      energy gain  -0.2847565E-01 Eh

generating ANC from model Hessian ...
Using Lindh-Hessian (1995)
 Shifting diagonal of input Hessian by   9.784131067843918E-003
 Lowest  eigenvalues of input Hessian
    0.000000    0.000000    0.000000    0.000000    0.000000    0.000000
    0.010000    0.010069    0.010399    0.010748    0.011154    0.011612
    0.012678    0.013691    0.013952    0.015343    0.017533    0.018234
 Highest eigenvalues
    2.008938    2.023959    2.104456    2.177363    2.393800    2.465094
 

........................................................................
.............................. CYCLE   21 ..............................
........................................................................
   1    -80.3938756 -0.803939E+02  0.920E-03    0.51       0.0  T
   2    -80.3938795 -0.391011E-05  0.501E-03    0.51       2.9  T
   3    -80.3938807 -0.120405E-05  0.192E-03    0.51       7.6  T
   4    -80.3938808 -0.701859E-07  0.110E-03    0.51      13.2  T
   5    -80.3938808 -0.114689E-07  0.260E-04    0.51      56.2  T
   6    -80.3938808 -0.124732E-08  0.633E-05    0.51     230.4  T
   7    -80.3938808 -0.114895E-09  0.267E-05    0.51     547.2  T
     SCC iter.                  ...        0 min,  0.028 sec
     gradient                   ...        0 min,  0.100 sec
 * total energy  :   -79.4921458 Eh     change       -0.5942549E-04 Eh
   gradient norm :     0.0040539 Eh/α   predicted     0.0000000E+00 (-100.00%)
   displ. norm   :     0.0330663 α      lambda       -0.3441100E-04
   maximum displ.:     0.0153420 α      in ANC's #4, #17, #14, ...

........................................................................
.............................. CYCLE   22 ..............................
........................................................................
   1    -80.3932972 -0.803933E+02  0.246E-03    0.51       0.0  T
   2    -80.3932973 -0.147026E-06  0.138E-03    0.51      10.6  T
   3    -80.3932973 -0.169044E-07  0.704E-04    0.51      20.7  T
   4    -80.3932973 -0.356026E-08  0.344E-04    0.51      42.4  T
   5    -80.3932973 -0.357689E-08  0.685E-05    0.51     213.0  T
   6    -80.3932973 -0.128935E-09  0.185E-05    0.51     790.2  T
     SCC iter.                  ...        0 min,  0.023 sec
     gradient                   ...        0 min,  0.100 sec
 * total energy  :   -79.4921776 Eh     change       -0.3175837E-04 Eh
   gradient norm :     0.0017610 Eh/α   predicted    -0.1982224E-04 ( -37.58%)
   displ. norm   :     0.1471366 α      lambda       -0.6416819E-04
   maximum displ.:     0.0723954 α      in ANC's #4, #17, #14, ...

........................................................................
.............................. CYCLE   23 ..............................
........................................................................
   1    -80.3917059 -0.803917E+02  0.720E-03    0.53       0.0  T
   2    -80.3917073 -0.139685E-05  0.352E-03    0.52       4.1  T
   3    -80.3917074 -0.171702E-06  0.179E-03    0.52       8.1  T
   4    -80.3917074 -0.158585E-07  0.821E-04    0.52      17.8  T
   5    -80.3917075 -0.155435E-07  0.203E-04    0.52      71.8  T
   6    -80.3917075 -0.155939E-08  0.615E-05    0.52     237.2  T
   7    -80.3917075 -0.164121E-09  0.185E-05    0.52     787.9  T
     SCC iter.                  ...        0 min,  0.027 sec
     gradient                   ...        0 min,  0.100 sec
 * total energy  :   -79.4922282 Eh     change       -0.5059859E-04 Eh
   gradient norm :     0.0042908 Eh/α   predicted    -0.3239328E-04 ( -35.98%)
   displ. norm   :     0.0641623 α      lambda       -0.2960091E-04
   maximum displ.:     0.0318128 α      in ANC's #4, #17, #14, ...

........................................................................
.............................. CYCLE   24 ..............................
........................................................................
   1    -80.3918714 -0.803919E+02  0.231E-03    0.53       0.0  T
   2    -80.3918716 -0.182652E-06  0.100E-03    0.53      14.6  T
   3    -80.3918716 -0.551370E-07  0.449E-04    0.53      32.5  T
   4    -80.3918717 -0.642626E-08  0.189E-04    0.53      77.0  T
   5    -80.3918717 -0.266397E-09  0.605E-05    0.53     241.0  T
     SCC iter.                  ...        0 min,  0.020 sec
     gradient                   ...        0 min,  0.109 sec
 * total energy  :   -79.4922563 Eh     change       -0.2806680E-04 Eh
   gradient norm :     0.0039106 Eh/α   predicted    -0.1508575E-04 ( -46.25%)
   displ. norm   :     0.3457706 α      lambda       -0.1521660E-03
   maximum displ.:     0.1663994 α      in ANC's #4, #17, #14, ...

........................................................................
.............................. CYCLE   25 ..............................
........................................................................
   1    -80.3919436 -0.803919E+02  0.139E-02    0.54       0.0  T
   2    -80.3919506 -0.696297E-05  0.567E-03    0.55       2.6  T
   3    -80.3919524 -0.183394E-05  0.250E-03    0.55       5.8  T
   4    -80.3919527 -0.219764E-06  0.102E-03    0.55      14.3  T
   5    -80.3919527 -0.528100E-08  0.326E-04    0.55      44.7  T
   6    -80.3919527 -0.180545E-08  0.862E-05    0.55     169.2  T
   7    -80.3919527 -0.157954E-09  0.302E-05    0.55     482.9  T
     SCC iter.                  ...        0 min,  0.026 sec
     gradient                   ...        0 min,  0.100 sec
 * total energy  :   -79.4923553 Eh     change       -0.9904648E-04 Eh
   gradient norm :     0.0043497 Eh/α   predicted    -0.8521183E-04 ( -13.97%)
   displ. norm   :     0.1710179 α      lambda       -0.4474943E-04
   maximum displ.:     0.0857805 α      in ANC's #4, #5, #1, ...

........................................................................
.............................. CYCLE   26 ..............................
........................................................................
   1    -80.3926440 -0.803926E+02  0.786E-03    0.55       0.0  T
   2    -80.3926465 -0.242840E-05  0.414E-03    0.56       3.5  T
   3    -80.3926476 -0.117820E-05  0.130E-03    0.56      11.2  T
   4    -80.3926477 -0.539476E-07  0.530E-04    0.56      27.5  T
   5    -80.3926477 -0.596756E-09  0.154E-04    0.56      95.0  T
   6    -80.3926477 -0.269708E-09  0.361E-05    0.56     404.2  T
     SCC iter.                  ...        0 min,  0.023 sec
     gradient                   ...        0 min,  0.100 sec
 * total energy  :   -79.4923903 Eh     change       -0.3500323E-04 Eh
   gradient norm :     0.0039848 Eh/α   predicted    -0.2303701E-04 ( -34.19%)
   displ. norm   :     0.2289414 α      lambda       -0.6524511E-04
   maximum displ.:     0.1175546 α      in ANC's #4, #5, #1, ...

........................................................................
.............................. CYCLE   27 ..............................
........................................................................
   1    -80.3940473 -0.803940E+02  0.123E-02    0.57       0.0  T
   2    -80.3940535 -0.625147E-05  0.681E-03    0.58       2.1  T
   3    -80.3940566 -0.306920E-05  0.225E-03    0.57       6.5  T
   4    -80.3940567 -0.112935E-06  0.954E-04    0.57      15.3  T
   5    -80.3940567 -0.129296E-08  0.270E-04    0.57      54.1  T
   6    -80.3940567 -0.930285E-09  0.562E-05    0.57     259.4  T
   7    -80.3940567 -0.306812E-10  0.181E-05    0.57     804.8  T
     SCC iter.                  ...        0 min,  0.027 sec
     gradient                   ...        0 min,  0.100 sec
 * total energy  :   -79.4924397 Eh     change       -0.4937604E-04 Eh
   gradient norm :     0.0027376 Eh/α   predicted    -0.3437553E-04 ( -30.38%)
   displ. norm   :     0.2952863 α      lambda       -0.5858331E-04
   maximum displ.:     0.1535440 α      in ANC's #4, #5, #1, ...

........................................................................
.............................. CYCLE   28 ..............................
........................................................................
   1    -80.3936345 -0.803936E+02  0.142E-02    0.58       0.0  T
   2    -80.3936418 -0.735421E-05  0.630E-03    0.59       2.3  T
   3    -80.3936445 -0.266497E-05  0.284E-03    0.59       5.1  T
   4    -80.3936447 -0.259523E-06  0.107E-03    0.59      13.7  T
   5    -80.3936447 -0.213694E-08  0.324E-04    0.59      45.0  T
   6    -80.3936448 -0.199817E-08  0.710E-05    0.59     205.4  T
   7    -80.3936448 -0.784723E-10  0.280E-05    0.59     521.2  T
     SCC iter.                  ...        0 min,  0.027 sec
     gradient                   ...        0 min,  0.100 sec
 * total energy  :   -79.4924803 Eh     change       -0.4056817E-04 Eh
   gradient norm :     0.0040071 Eh/α   predicted    -0.3184756E-04 ( -21.50%)
   displ. norm   :     0.2067191 α      lambda       -0.5887599E-04
   maximum displ.:     0.1104520 α      in ANC's #4, #5, #2, ...

........................................................................
.............................. CYCLE   29 ..............................
........................................................................
   1    -80.3952227 -0.803952E+02  0.133E-02    0.60       0.0  T
   2    -80.3952319 -0.911723E-05  0.801E-03    0.61       1.8  T
   3    -80.3952364 -0.457967E-05  0.202E-03    0.61       7.2  T
   4    -80.3952365 -0.585870E-07  0.985E-04    0.61      14.8  T
   5    -80.3952365 -0.125168E-08  0.349E-04    0.61      41.8  T
   6    -80.3952365 -0.133572E-08  0.605E-05    0.61     240.9  T
   7    -80.3952365 -0.462137E-10  0.208E-05    0.61     702.6  T
     SCC iter.                  ...        0 min,  0.027 sec
     gradient                   ...        0 min,  0.112 sec
 * total energy  :   -79.4925154 Eh     change       -0.3511000E-04 Eh
   gradient norm :     0.0036165 Eh/α   predicted    -0.3071112E-04 ( -12.53%)
   displ. norm   :     0.2534820 α      lambda       -0.4148062E-04
   maximum displ.:     0.1357184 α      in ANC's #4, #5, #2, ...

........................................................................
.............................. CYCLE   30 ..............................
........................................................................
   1    -80.3939045 -0.803939E+02  0.118E-02    0.62       0.0  T
   2    -80.3939093 -0.486096E-05  0.475E-03    0.63       3.1  T
   3    -80.3939108 -0.144973E-05  0.241E-03    0.63       6.1  T
   4    -80.3939109 -0.166692E-06  0.925E-04    0.63      15.8  T
   5    -80.3939109 -0.813699E-09  0.299E-04    0.63      48.8  T
   6    -80.3939109 -0.199134E-08  0.656E-05    0.63     222.4  T
   7    -80.3939109 -0.835740E-10  0.254E-05    0.63     573.6  T
     SCC iter.                  ...        0 min,  0.027 sec
     gradient                   ...        0 min,  0.100 sec
 * total energy  :   -79.4925435 Eh     change       -0.2811633E-04 Eh
   gradient norm :     0.0034713 Eh/α   predicted    -0.2207946E-04 ( -21.47%)
   displ. norm   :     0.1571936 α      lambda       -0.4799109E-04
   maximum displ.:     0.0809951 α      in ANC's #4, #5, #2, ...

........................................................................
.............................. CYCLE   31 ..............................
........................................................................
   1    -80.3941900 -0.803942E+02  0.698E-03    0.64       0.0  T
   2    -80.3941917 -0.171093E-05  0.402E-03    0.64       3.6  T
   3    -80.3941927 -0.980219E-06  0.157E-03    0.64       9.3  T
   4    -80.3941927 -0.289362E-07  0.549E-04    0.64      26.6  T
   5    -80.3941927 -0.497337E-09  0.129E-04    0.64     112.9  T
   6    -80.3941927 -0.344585E-09  0.387E-05    0.64     376.5  T
     SCC iter.                  ...        0 min,  0.023 sec
     gradient                   ...        0 min,  0.100 sec
 * total energy  :   -79.4925798 Eh     change       -0.3629952E-04 Eh
   gradient norm :     0.0024837 Eh/α   predicted    -0.2460835E-04 ( -32.21%)
   displ. norm   :     0.1887335 α      lambda       -0.5132875E-04
   maximum displ.:     0.0877698 α      in ANC's #4, #5, #2, ...

........................................................................
.............................. CYCLE   32 ..............................
........................................................................
   1    -80.3944638 -0.803945E+02  0.680E-03    0.66       0.0  T
   2    -80.3944654 -0.156082E-05  0.414E-03    0.66       3.5  T
   3    -80.3944663 -0.914926E-06  0.164E-03    0.66       8.9  T
   4    -80.3944663 -0.233246E-07  0.519E-04    0.66      28.1  T
   5    -80.3944663 -0.526811E-09  0.111E-04    0.66     130.8  T
   6    -80.3944663 -0.185182E-09  0.369E-05    0.66     395.6  T
     SCC iter.                  ...        0 min,  0.023 sec
     gradient                   ...        0 min,  0.099 sec
 * total energy  :   -79.4926158 Eh     change       -0.3599524E-04 Eh
   gradient norm :     0.0027804 Eh/α   predicted    -0.2658926E-04 ( -26.13%)
   displ. norm   :     0.1329519 α      lambda       -0.3409445E-04
   maximum displ.:     0.0592367 α      in ANC's #2, #5, #6, ...

........................................................................
.............................. CYCLE   33 ..............................
........................................................................
   1    -80.3948012 -0.803948E+02  0.267E-03    0.67       0.0  T
   2    -80.3948014 -0.150211E-06  0.131E-03    0.67      11.2  T
   3    -80.3948014 -0.130748E-07  0.707E-04    0.67      20.6  T
   4    -80.3948014 -0.883738E-08  0.285E-04    0.67      51.2  T
   5    -80.3948014 -0.196401E-08  0.548E-05    0.67     266.0  T
   6    -80.3948014 -0.375309E-10  0.159E-05    0.67     915.5  T
     SCC iter.                  ...        0 min,  0.024 sec
     gradient                   ...        0 min,  0.101 sec
 * total energy  :   -79.4926421 Eh     change       -0.2629349E-04 Eh
   gradient norm :     0.0029669 Eh/α   predicted    -0.1735902E-04 ( -33.98%)
   displ. norm   :     0.1732220 α      lambda       -0.3912563E-04
   maximum displ.:     0.0773747 α      in ANC's #5, #2, #3, ...

........................................................................
.............................. CYCLE   34 ..............................
........................................................................
   1    -80.3944362 -0.803944E+02  0.341E-03    0.68       0.0  T
   2    -80.3944367 -0.540190E-06  0.123E-03    0.68      11.8  T
   3    -80.3944368 -0.697589E-07  0.527E-04    0.68      27.7  T
   4    -80.3944368 -0.786335E-08  0.268E-04    0.68      54.3  T
   5    -80.3944368 -0.853973E-09  0.832E-05    0.68     175.4  T
   6    -80.3944368 -0.565450E-10  0.185E-05    0.68     787.5  T
     SCC iter.                  ...        0 min,  0.024 sec
     gradient                   ...        0 min,  0.095 sec
 * total energy  :   -79.4926707 Eh     change       -0.2864884E-04 Eh
   gradient norm :     0.0021449 Eh/α   predicted    -0.2015146E-04 ( -29.66%)
   displ. norm   :     0.1498659 α      lambda       -0.3831537E-04
   maximum displ.:     0.0816851 α      in ANC's #6, #3, #2, ...

........................................................................
.............................. CYCLE   35 ..............................
........................................................................
   1    -80.3956092 -0.803956E+02  0.793E-03    0.68       0.0  T
   2    -80.3956114 -0.218323E-05  0.385E-03    0.67       3.8  T
   3    -80.3956123 -0.943723E-06  0.169E-03    0.67       8.6  T
   4    -80.3956124 -0.588274E-07  0.632E-04    0.67      23.1  T
   5    -80.3956124 -0.588088E-09  0.166E-04    0.67      87.8  T
   6    -80.3956124 -0.730068E-09  0.324E-05    0.67     449.8  T
     SCC iter.                  ...        0 min,  0.024 sec
     gradient                   ...        0 min,  0.095 sec
 * total energy  :   -79.4926902 Eh     change       -0.1951519E-04 Eh
   gradient norm :     0.0033199 Eh/α   predicted    -0.1959129E-04 (   0.39%)
   displ. norm   :     0.1348493 α      lambda       -0.2887241E-04
   maximum displ.:     0.0657034 α      in ANC's #5, #2, #3, ...

........................................................................
.............................. CYCLE   36 ..............................
........................................................................
   1    -80.3944546 -0.803945E+02  0.492E-03    0.67       0.0  T
   2    -80.3944557 -0.108228E-05  0.264E-03    0.67       5.5  T
   3    -80.3944559 -0.234836E-06  0.107E-03    0.67      13.6  T
   4    -80.3944559 -0.209535E-08  0.638E-04    0.67      22.9  T
   5    -80.3944559 -0.760272E-08  0.798E-05    0.67     182.8  T
   6    -80.3944559 -0.160583E-09  0.280E-05    0.67     520.6  T
     SCC iter.                  ...        0 min,  0.024 sec
     gradient                   ...        0 min,  0.095 sec
 * total energy  :   -79.4927087 Eh     change       -0.1844672E-04 Eh
   gradient norm :     0.0018558 Eh/α   predicted    -0.1470020E-04 ( -20.31%)
   displ. norm   :     0.1053165 α      lambda       -0.2020782E-04
   maximum displ.:     0.0629137 α      in ANC's #3, #2, #5, ...

........................................................................
.............................. CYCLE   37 ..............................
........................................................................
   1    -80.3944330 -0.803944E+02  0.398E-03    0.66       0.0  T
   2    -80.3944336 -0.580509E-06  0.239E-03    0.66       6.1  T
   3    -80.3944339 -0.280680E-06  0.901E-04    0.66      16.2  T
   4    -80.3944339 -0.643495E-08  0.366E-04    0.66      39.9  T
   5    -80.3944339 -0.524480E-09  0.650E-05    0.66     224.3  T
   6    -80.3944339 -0.112536E-09  0.187E-05    0.66     780.8  T
     SCC iter.                  ...        0 min,  0.024 sec
     gradient                   ...        0 min,  0.095 sec
 * total energy  :   -79.4927320 Eh     change       -0.2330094E-04 Eh
   gradient norm :     0.0018612 Eh/α   predicted    -0.1015624E-04 ( -56.41%)
   displ. norm   :     0.1430272 α      lambda       -0.2582548E-04
   maximum displ.:     0.0820610 α      in ANC's #3, #2, #7, ...

........................................................................
.............................. CYCLE   38 ..............................
........................................................................
   1    -80.3946872 -0.803947E+02  0.475E-03    0.65       0.0  T
   2    -80.3946882 -0.924529E-06  0.205E-03    0.64       7.1  T
   3    -80.3946884 -0.268953E-06  0.771E-04    0.64      18.9  T
   4    -80.3946884 -0.179643E-07  0.341E-04    0.64      42.8  T
   5    -80.3946884 -0.657110E-10  0.993E-05    0.64     146.8  T
   6    -80.3946884 -0.223977E-09  0.175E-05    0.64     832.3  T
     SCC iter.                  ...        0 min,  0.024 sec
     gradient                   ...        0 min,  0.095 sec
 * total energy  :   -79.4927580 Eh     change       -0.2603889E-04 Eh
   gradient norm :     0.0014886 Eh/α   predicted    -0.1303440E-04 ( -49.94%)
   displ. norm   :     0.1429757 α      lambda       -0.1828181E-04
   maximum displ.:     0.0858197 α      in ANC's #3, #2, #5, ...

........................................................................
.............................. CYCLE   39 ..............................
........................................................................
   1    -80.3942038 -0.803942E+02  0.353E-03    0.64       0.0  T
   2    -80.3942043 -0.436660E-06  0.128E-03    0.64      11.4  T
   3    -80.3942043 -0.232865E-07  0.638E-04    0.64      22.9  T
   4    -80.3942043  0.365660E-09  0.290E-04    0.64      50.4  T
   5    -80.3942043 -0.247358E-08  0.691E-05    0.64     211.0  T
   6    -80.3942043 -0.132090E-09  0.193E-05    0.64     754.4  T
     SCC iter.                  ...        0 min,  0.024 sec
     gradient                   ...        0 min,  0.095 sec
 * total energy  :   -79.4927752 Eh     change       -0.1714759E-04 Eh
   gradient norm :     0.0021810 Eh/α   predicted    -0.9227581E-05 ( -46.19%)
   displ. norm   :     0.0900835 α      lambda       -0.1542429E-04
   maximum displ.:     0.0534909 α      in ANC's #3, #2, #5, ...

........................................................................
.............................. CYCLE   40 ..............................
........................................................................
   1    -80.3944313 -0.803944E+02  0.183E-03    0.64       0.0  T
   2    -80.3944315 -0.160505E-06  0.113E-03    0.64      12.9  T
   3    -80.3944315 -0.671773E-07  0.461E-04    0.64      31.7  T
   4    -80.3944315 -0.664073E-09  0.206E-04    0.64      70.9  T
   5    -80.3944315 -0.327944E-09  0.355E-05    0.64     410.9  T
   6    -80.3944315 -0.286065E-10  0.928E-06    0.64    1571.9  T
     SCC iter.                  ...        0 min,  0.024 sec
     gradient                   ...        0 min,  0.095 sec
 * total energy  :   -79.4927870 Eh     change       -0.1184387E-04 Eh
   gradient norm :     0.0012199 Eh/α   predicted    -0.7777075E-05 ( -34.34%)
   displ. norm   :     0.1696308 α      lambda       -0.1581184E-04
   maximum displ.:     0.0964971 α      in ANC's #3, #2, #5, ...

........................................................................
.............................. CYCLE   41 ..............................
........................................................................
   1    -80.3946613 -0.803947E+02  0.254E-03    0.64       0.0  T
   2    -80.3946615 -0.147357E-06  0.127E-03    0.64      11.5  T
   3    -80.3946615 -0.976597E-08  0.667E-04    0.64      21.9  T
   4    -80.3946615 -0.952625E-09  0.137E-04    0.64     106.8  T
   5    -80.3946615 -0.376005E-09  0.391E-05    0.64     372.7  T
     SCC iter.                  ...        0 min,  0.021 sec
     gradient                   ...        0 min,  0.097 sec
 * total energy  :   -79.4928020 Eh     change       -0.1492856E-04 Eh
   gradient norm :     0.0013121 Eh/α   predicted    -0.8007357E-05 ( -46.36%)
   displ. norm   :     0.1740064 α      lambda        0.5638794E-05
   maximum displ.:     0.0988954 α      in ANC's #3, #2, #5, ...

........................................................................
.............................. CYCLE   42 ..............................
........................................................................
   1    -80.3945174 -0.803945E+02  0.261E-03    0.65       0.0  T
   2    -80.3945175 -0.154417E-06  0.131E-03    0.65      11.2  T
   3    -80.3945176 -0.105247E-07  0.686E-04    0.65      21.3  T
   4    -80.3945176 -0.109054E-08  0.138E-04    0.65     105.6  T
   5    -80.3945176 -0.338176E-09  0.372E-05    0.65     392.0  T
     SCC iter.                  ...        0 min,  0.027 sec
     gradient                   ...        0 min,  0.094 sec
 * total energy  :   -79.4927997 Eh     change        0.2283715E-05 Eh
   gradient norm :     0.0028052 Eh/α   predicted     0.2852448E-05 (  24.90%)
   displ. norm   :     0.0422209 α      lambda       -0.1146101E-04
   maximum displ.:     0.0243770 α      in ANC's #3, #2, #4, ...
 * RMSD in coord.:     0.3798435 α      energy gain  -0.7132446E-03 Eh

generating ANC from model Hessian ...
Using Lindh-Hessian (1995)
 Shifting diagonal of input Hessian by   9.782193903307149E-003
 Lowest  eigenvalues of input Hessian
    0.000000    0.000000    0.000000    0.000000    0.000000    0.000000
    0.010000    0.010098    0.010408    0.010784    0.011173    0.011632
    0.012846    0.013669    0.014017    0.015376    0.017213    0.018338
 Highest eigenvalues
    2.010409    2.022187    2.105095    2.172505    2.393260    2.475782
 

........................................................................
.............................. CYCLE   43 ..............................
........................................................................
   1    -80.3947894 -0.803948E+02  0.144E-03    0.65       0.0  T
   2    -80.3947895 -0.780790E-07  0.874E-04    0.65      16.7  T
   3    -80.3947895 -0.364266E-07  0.415E-04    0.65      35.1  T
   4    -80.3947895 -0.851088E-09  0.142E-04    0.65     102.4  T
   5    -80.3947895 -0.156263E-09  0.272E-05    0.65     536.4  T
     SCC iter.                  ...        0 min,  0.020 sec
     gradient                   ...        0 min,  0.094 sec
 * total energy  :   -79.4928088 Eh     change       -0.9093445E-05 Eh
   gradient norm :     0.0017091 Eh/α   predicted     0.0000000E+00 (-100.00%)
   displ. norm   :     0.0231991 α      lambda       -0.6563523E-05
   maximum displ.:     0.0109230 α      in ANC's #2, #6, #25, ...

........................................................................
.............................. CYCLE   44 ..............................
........................................................................
   1    -80.3948548 -0.803949E+02  0.186E-03    0.65       0.0  T
   2    -80.3948550 -0.113506E-06  0.945E-04    0.65      15.4  T
   3    -80.3948550 -0.122658E-07  0.521E-04    0.65      28.0  T
   4    -80.3948550  0.606875E-09  0.223E-04    0.65      65.4  T
   5    -80.3948550 -0.221969E-08  0.364E-05    0.65     400.5  T
   6    -80.3948550 -0.278106E-10  0.105E-05    0.65    1389.4  T
     SCC iter.                  ...        0 min,  0.023 sec
     gradient                   ...        0 min,  0.094 sec
 * total energy  :   -79.4928167 Eh     change       -0.7955999E-05 Eh
   gradient norm :     0.0006104 Eh/α   predicted    -0.3864299E-05 ( -51.43%)
   displ. norm   :     0.0384168 α      lambda       -0.5462064E-05
   maximum displ.:     0.0206041 α      in ANC's #2, #6, #4, ...

........................................................................
.............................. CYCLE   45 ..............................
........................................................................
   1    -80.3948122 -0.803948E+02  0.154E-03    0.64       0.0  T
   2    -80.3948122 -0.548980E-07  0.855E-04    0.64      17.1  T
   3    -80.3948122 -0.552575E-08  0.454E-04    0.64      32.1  T
   4    -80.3948122 -0.972804E-09  0.143E-04    0.64     102.0  T
   5    -80.3948122 -0.487631E-09  0.365E-05    0.64     399.8  T
     SCC iter.                  ...        0 min,  0.020 sec
     gradient                   ...        0 min,  0.094 sec
 * total energy  :   -79.4928223 Eh     change       -0.5613608E-05 Eh
   gradient norm :     0.0006217 Eh/α   predicted    -0.2733998E-05 ( -51.30%)
   displ. norm   :     0.0412817 α      lambda       -0.3254235E-05
   maximum displ.:     0.0249475 α      in ANC's #2, #6, #4, ...

........................................................................
.............................. CYCLE   46 ..............................
........................................................................
   1    -80.3948512 -0.803949E+02  0.113E-03    0.64       0.0  T
   2    -80.3948513 -0.461504E-07  0.474E-04    0.64      30.8  T
   3    -80.3948513 -0.263684E-08  0.255E-04    0.64      57.2  T
   4    -80.3948513 -0.121602E-09  0.671E-05    0.64     217.5  T
   5    -80.3948513 -0.473932E-10  0.186E-05    0.64     782.1  T
     SCC iter.                  ...        0 min,  0.020 sec
     gradient                   ...        0 min,  0.094 sec
 * total energy  :   -79.4928261 Eh     change       -0.3772682E-05 Eh
   gradient norm :     0.0006429 Eh/α   predicted    -0.1655742E-05 ( -56.11%)
   displ. norm   :     0.0513845 α      lambda       -0.3338331E-05
   maximum displ.:     0.0322572 α      in ANC's #2, #6, #4, ...

   *** GEOMETRY OPTIMIZATION CONVERGED AFTER 46 ITERATIONS ***

------------------------------------------------------------------------
 total energy gain   :        -0.0292153 Eh      -18.3329 kcal/mol
 total RMSD          :         0.7549187 a0        0.3995 Å
 total power (kW/mol):        -1.6674964 (step)   -9.5111 (real)
------------------------------------------------------------------------

 ANCopt (total)                0 d,  0 h,  0 min,  8.065 sec
 optimizer setup                ...        0 min,  0.001 sec (  0.010%)
 model hessian                  ...        0 min,  0.125 sec (  1.550%)
 ANC generation                 ...        0 min,  0.009 sec (  0.114%)
 coordinate transformation      ...        0 min,  0.002 sec (  0.023%)
 single point calculation       ...        0 min,  7.900 sec ( 97.954%)
 optimization log               ...        0 min,  0.014 sec (  0.176%)
 hessian update                 ...        0 min,  0.002 sec (  0.019%)
 rational function              ...        0 min,  0.008 sec (  0.094%)

================
 final structure:
================
47
 xtb: 6.5.1 (579679a)
C           -4.02256754273357        0.67802293415383       -1.46230784344088
N           -2.74305209127954        0.83439195047313       -0.76091282222156
C           -1.93765512509694        1.79535841620083       -1.30074660933802
O           -2.24053214257431        2.49778708411703       -2.25054771216887
C           -0.62985003954199        1.97068535742807       -0.64127881220948
O            0.15288481230207        2.88967815397643       -1.10819840156387
C           -0.20452804618682        1.04974625215609        0.36389998175840
C            0.84215691773189        1.46303284397760        1.38813932480744
C            0.52760079922325        0.00675842854233       -0.76527819244591
O           -0.05356666975080       -0.99361666712732       -1.05460699386919
N            1.69731924196346        0.46206923325286       -1.14510068641568
C            2.61956040336620       -0.38073515458913       -1.92263441453461
C            3.83762770082341       -0.71840251996936       -1.09617323999403
C            5.11249502418007       -0.49199403186659       -1.60837234438231
C            6.23760508874123       -0.81034883613107       -0.86080189828600
C            6.05755980567869       -1.34991907045277        0.40017376549004
F            7.13759131732602       -1.65422119853707        1.12984633269656
C            4.80431864851499       -1.58208497076965        0.94011077758654
C            3.69045115005055       -1.26317927430941        0.17829112540263
N           -1.22899168906457        0.28227452254124        0.93964638224034
C           -2.38437894157828        0.14646559951487        0.39362741685839
C           -3.37994880816533       -0.73298632871811        1.14158477793568
C           -4.47416424659210        0.15989615629545        1.74361387867344
C           -2.64716134443306       -1.47726288170279        2.26863914836737
N           -3.98493759150689       -1.69482845423448        0.22720467328735
H           -4.68629720950007        1.49329900209311       -1.17481837944628
H           -3.82520432871349        0.73875715358841       -2.53244053718368
H           -4.46111938767496       -0.28372508602978       -1.20902293604841
H           -0.24985038151692        3.35962505066199       -1.87293729824252
H            1.38820032452267        0.58982801563068        1.73919186105327
H            1.53464214854008        2.18718871025653        0.96693661249810
H            0.32492409122046        1.91581832521769        2.23335540790100
H            2.02381983591948        1.38136259393128       -0.89644305450110
H            2.07319338158901       -1.28234113526600       -2.21286357534370
H            2.89618414262270        0.17760759887412       -2.81966920681736
H            5.22917033184317       -0.06414515370842       -2.59676629801873
H            7.23393662570496       -0.63748525462899       -1.24650230843965
H            4.70366534821039       -1.99835724699105        1.93393868904163
H            2.69882977876085       -1.42990449654130        0.58140333868577
H           -4.02370409221055        0.93228797106165        2.36538462156825
H           -5.06555269900195        0.63420931774008        0.96369255790027
H           -5.13506047680565       -0.44746969126761        2.36031442180766
H           -3.34544622758591       -2.14720576233792        2.76722179533270
H           -1.82479092118607       -2.06122641319908        1.85866734585819
H           -2.24847241499893       -0.77143832076036        2.99552698340932
H           -3.29350514005465       -2.38064908147398       -0.04791242442299
H           -4.73339936106922       -2.17691964105874        0.70592676917504
 
 Bond Distances (Angstroems)
 ---------------------------
C1-N2=1.4675         C1-H26=1.0899        C1-H27=1.0899        C1-H28=1.0869        N2-C1=1.4675         N2-C3=1.3651         
N2-C21=1.3910        C3-N2=1.3651         C3-O4=1.2195         C3-C5=1.4751         O4-C3=1.2195         C5-C3=1.4751         
C5-O6=1.2943         C5-C7=1.4281         O6-C5=1.2943         O6-H29=0.9838        C7-C5=1.4281         C7-C8=1.5217         
C7-C9=1.7026         C7-N20=1.4036        C8-C7=1.5217         C8-H30=1.0881        C8-H31=1.0869        C8-H32=1.0895        
C9-C7=1.7026         C9-O10=1.1926        C9-N11=1.3114        O10-C9=1.1926        N11-C9=1.3114        N11-C12=1.4715       
N11-H33=1.0067       C12-N11=1.4715       C12-C13=1.5102       C12-H34=1.0935       C12-H35=1.0922       C13-C12=1.5102       
C13-C14=1.3924       C13-C19=1.3938       C14-C13=1.3924       C14-C15=1.3878       C14-H36=1.0833       C15-C14=1.3878       
C15-C16=1.3833       C15-H37=1.0823       C16-C15=1.3833       C16-F17=1.3385       C16-C18=1.3842       F17-C16=1.3385       
C18-C16=1.3842       C18-C19=1.3866       C18-H38=1.0822       C19-C13=1.3938       C19-C18=1.3866       C19-H39=1.0833       
N20-C7=1.4036        N20-C21=1.2851       C21-N2=1.3910        C21-N20=1.2851       C21-C22=1.5245       C22-C21=1.5245       
C22-C23=1.5352       C22-C24=1.5366       C22-N25=1.4585       C23-C22=1.5352       C23-H40=1.0891       C23-H41=1.0877       
C23-H42=1.0890       C24-C22=1.5366       C24-H43=1.0886       C24-H44=1.0888       C24-H45=1.0888       N25-C22=1.4585       
N25-H46=1.0120       N25-H47=1.0108       H26-C1=1.0899        H27-C1=1.0899        H28-C1=1.0869        H29-O6=0.9838        
H30-C8=1.0881        H31-C8=1.0869        H32-C8=1.0895        H33-N11=1.0067       H34-C12=1.0935       H35-C12=1.0922       
H36-C14=1.0833       H37-C15=1.0823       H38-C18=1.0822       H39-C19=1.0833       H40-C23=1.0891       H41-C23=1.0877       
H42-C23=1.0890       H43-C24=1.0886       H44-C24=1.0888       H45-C24=1.0888       H46-N25=1.0120       H47-N25=1.0108       
 C  H  Rav=1.0878 sigma=0.0031  Rmin=1.0822  Rmax=1.0935    18
 C  C  Rav=1.4687 sigma=0.0895  Rmin=1.3833  Rmax=1.7026    14
 N  H  Rav=1.0099 sigma=0.0022  Rmin=1.0067  Rmax=1.0120     3
 N  C  Rav=1.3942 sigma=0.0663  Rmin=1.2851  Rmax=1.4715     8
 O  H  Rav=0.9838 sigma=0.0000  Rmin=0.9838  Rmax=0.9838     1
 O  C  Rav=1.2355 sigma=0.0430  Rmin=1.1926  Rmax=1.2943     3
 F  C  Rav=1.3385 sigma=0.0000  Rmin=1.3385  Rmax=1.3385     1
 
 selected bond angles (degree)
 --------------------
H26-C1-N2=108.98               H27-C1-N2=107.79               H27-C1-H26=109.12              H28-C1-N2=109.55               
H28-C1-H26=110.78              H28-C1-H27=110.56              C3-N2-C1=113.60                C21-N2-C1=124.67               
C21-N2-C3=121.62               O4-C3-N2=124.54                C5-C3-N2=115.46                C5-C3-O4=119.99                
O6-C5-C3=117.34                C7-C5-C3=120.14                C7-C5-O6=122.12                H29-O6-C5=111.84               
C8-C7-C5=120.23                C9-C7-C5= 93.23                C9-C7-C8=108.48                N20-C7-C5=115.08               
N20-C7-C8=111.99               N20-C7-C9=104.53               H30-C8-C7=110.15               H31-C8-C7=111.00               
H31-C8-H30=109.88              H32-C8-C7=107.97               H32-C8-H30=108.75              H32-C8-H31=109.04              
O10-C9-C7=117.72               N11-C9-C7=111.28               N11-C9-O10=130.97              
 
 selected dihedral angles (degree)
 ---------------------------------
C3-N2-C1-H26=282.88           C3-N2-C1-H27= 41.18           C3-N2-C1-H28=161.54           C21-N2-C1-H26= 99.10          
C21-N2-C1-H27=217.41          C21-N2-C1-H28=337.76          O4-C3-N2-C1=  1.97            O4-C3-N2-C21=185.62           
C5-C3-N2-C1=181.03            C5-C3-N2-C21=  4.68           O6-C5-C3-N2=181.26            O6-C5-C3-O4=  0.36            
C7-C5-C3-N2=  8.39            C7-C5-C3-O4=187.50            H29-O6-C5-C3=359.72           H29-O6-C5-C7=172.43           
C8-C7-C5-C3=202.52            C8-C7-C5-O6= 30.00            C9-C7-C5-C3= 88.92            C9-C7-C5-O6=276.40            
N20-C7-C5-C3=341.22           N20-C7-C5-O6=168.71           H30-C8-C7-C5=207.32           H30-C8-C7-C9=312.59           
H30-C8-C7-N20= 67.45          H31-C8-C7-C5=329.24           H31-C8-C7-C9= 74.51           H31-C8-C7-N20=189.37          
H32-C8-C7-C5= 88.70           H32-C8-C7-C9=193.97           H32-C8-C7-N20=308.83          O10-C9-C7-C5=257.00           
O10-C9-C7-C8=133.59           O10-C9-C7-N20= 13.95          N11-C9-C7-C5= 78.68           N11-C9-C7-C8=315.28           
N11-C9-C7-N20=195.64          
           -------------------------------------------------
          |                Final Singlepoint                |
           -------------------------------------------------

          ...................................................
          :                      SETUP                      :
          :.................................................:
          :  # basis functions                 144          :
          :  # atomic orbitals                 144          :
          :  # shells                           94          :
          :  # electrons                       134          :
          :  # halogen bonds                     0          :
          :  max. iterations                   250          :
          :  Hamiltonian                  GFN1-xTB          :
          :  restarted?                      false          :
          :  GBSA solvation                   true          :
          :  PC potential                    false          :
          :  electronic temp.          300.0000000     K    :
          :  accuracy                    1.0000000          :
          :  -> integral cutoff          0.2500000E+02      :
          :  -> integral neglect         0.1000000E-07      :
          :  -> SCF convergence          0.1000000E-05 Eh   :
          :  -> wf. convergence          0.2000000E-04 e    :
          :  Broyden damping             0.4000000          :
          ...................................................

 iter      E             dE          RMSdq      gap      omega  full diag
   1    -80.3948513 -0.803949E+02  0.507E-06    0.64       0.0  T
   2    -80.3948513 -0.440536E-12  0.232E-06    0.64    6295.0  T
   3    -80.3948513  0.426326E-13  0.114E-06    0.64   12826.7  T

   *** convergence criteria satisfied after 3 iterations ***

         #    Occupation            Energy/Eh            Energy/eV
      -------------------------------------------------------------
         1        2.0000           -0.8957882             -24.3756
       ...           ...                  ...                  ...
        61        2.0000           -0.4927061             -13.4072
        62        2.0000           -0.4865773             -13.2404
        63        2.0000           -0.4799550             -13.0602
        64        2.0000           -0.4724361             -12.8556
        65        2.0000           -0.4651473             -12.6573
        66        2.0000           -0.4514565             -12.2848
        67        2.0000           -0.4267259             -11.6118 (HOMO)
        68        0.0000           -0.4030505             -10.9676 (LUMO)
        69                         -0.3200632              -8.7094
        70                         -0.2920630              -7.9474
        71                         -0.2870077              -7.8099
        72                         -0.2808418              -7.6421
       ...                                ...                  ...
       144                          0.7485166              20.3682
      -------------------------------------------------------------
                  HL-Gap            0.0236754 Eh            0.6442 eV
             Fermi-level           -0.4148882 Eh          -11.2897 eV

 SCC (total)                   0 d,  0 h,  0 min,  0.150 sec
 SCC setup                      ...        0 min,  0.002 sec (  1.523%)
 Dispersion                     ...        0 min,  0.000 sec (  0.270%)
 classical contributions        ...        0 min,  0.000 sec (  0.091%)
 integral evaluation            ...        0 min,  0.040 sec ( 26.374%)
 iterations                     ...        0 min,  0.012 sec (  8.263%)
 molecular gradient             ...        0 min,  0.094 sec ( 62.794%)
 printout                       ...        0 min,  0.001 sec (  0.650%)

         :::::::::::::::::::::::::::::::::::::::::::::::::::::
         ::                     SUMMARY                     ::
         :::::::::::::::::::::::::::::::::::::::::::::::::::::
         :: total energy             -79.492826102755 Eh    ::
         :: total w/o Gsasa/hb       -79.464408013653 Eh    ::
         :: gradient norm              0.000644638193 Eh/a0 ::
         :: HOMO-LUMO gap              0.644241647961 eV    ::
         ::.................................................::
         :: SCC energy               -80.394851261729 Eh    ::
         :: -> electrostatic           0.297805371641 Eh    ::
         :: -> Gsolv                  -0.102204561701 Eh    ::
         ::    -> Gelec               -0.073786472599 Eh    ::
         ::    -> Gsasa               -0.024253314388 Eh    ::
         ::    -> Ghb                 -0.011789053719 Eh    ::
         ::    -> Gshift               0.007624279005 Eh    ::
         :: repulsion energy           0.933791894334 Eh    ::
         :: dispersion energy         -0.031766735359 Eh    ::
         :: halogen bond corr.         0.000000000000 Eh    ::
         :: add. restraining           0.000000000000 Eh    ::
         :: total charge               1.000000000000 e     ::
         :::::::::::::::::::::::::::::::::::::::::::::::::::::

           -------------------------------------------------
          |                Property Printout                |
           -------------------------------------------------

    * Orbital Energies and Occupations

         #    Occupation            Energy/Eh            Energy/eV
      -------------------------------------------------------------
         1        2.0000           -0.8957882             -24.3756
       ...           ...                  ...                  ...
        55        2.0000           -0.5191564             -14.1270
        56        2.0000           -0.5156566             -14.0317
        57        2.0000           -0.5143449             -13.9960
        58        2.0000           -0.5090260             -13.8513
        59        2.0000           -0.4973282             -13.5330
        60        2.0000           -0.4942775             -13.4500
        61        2.0000           -0.4927061             -13.4072
        62        2.0000           -0.4865773             -13.2404
        63        2.0000           -0.4799550             -13.0602
        64        2.0000           -0.4724361             -12.8556
        65        2.0000           -0.4651473             -12.6573
        66        2.0000           -0.4514565             -12.2848
        67        2.0000           -0.4267259             -11.6118 (HOMO)
        68        0.0000           -0.4030505             -10.9676 (LUMO)
        69                         -0.3200632              -8.7094
        70                         -0.2920630              -7.9474
        71                         -0.2870077              -7.8099
        72                         -0.2808418              -7.6421
        73                         -0.2534585              -6.8970
        74                         -0.1612233              -4.3871
        75                         -0.1590155              -4.3270
        76                         -0.1501659              -4.0862
        77                         -0.1453350              -3.9548
        78                         -0.1415708              -3.8523
       ...                                ...                  ...
       144                          0.7485166              20.3682
      -------------------------------------------------------------
                  HL-Gap            0.0236754 Eh            0.6442 eV
             Fermi-level           -0.4148882 Eh          -11.2897 eV

  Mulliken/CM5 charges         n(s)   n(p)   n(d)
     1C     0.04252 -0.04522   1.001  2.957  0.000
     2N    -0.18677 -0.43602   1.456  3.730  0.000
     3C     0.44571  0.55155   0.978  2.576  0.000
     4O    -0.54193 -0.59211   1.723  4.819  0.000
     5C     0.30457  0.34087   1.074  2.621  0.000
     6O    -0.43933 -0.63873   1.693  4.746  0.000
     7C     0.13387  0.19565   1.070  2.796  0.000
     8C    -0.09602 -0.23392   1.022  3.074  0.000
     9C     0.51370  0.62931   0.990  2.497  0.000
    10O    -0.48149 -0.52469   1.717  4.764  0.000
    11N    -0.29850 -0.67041   1.429  3.869  0.000
    12C     0.09018  0.04445   1.021  2.889  0.000
    13C    -0.02221 -0.03209   1.082  2.940  0.000
    14C    -0.02634 -0.07961   1.064  2.963  0.000
    15C    -0.05805 -0.10896   1.060  2.998  0.000
    16C     0.25279  0.26426   1.046  2.701  0.000
    17F    -0.26326 -0.28764   1.827  5.436  0.000
    18C    -0.05901 -0.10992   1.059  3.000  0.000
    19C    -0.02781 -0.07962   1.061  2.967  0.000
    20N    -0.36748 -0.56244   1.524  3.844  0.000
    21C     0.29835  0.44925   1.037  2.665  0.000
    22C     0.14876  0.18338   1.065  2.786  0.000
    23C    -0.11004 -0.25144   1.022  3.088  0.000
    24C    -0.11041 -0.25002   1.023  3.088  0.000
    25N    -0.50908 -0.97321   1.474  4.035  0.000
    26H     0.07544  0.13927   0.925  0.000  0.000
    27H     0.08188  0.14981   0.918  0.000  0.000
    28H     0.07241  0.14945   0.928  0.000  0.000
    29H     0.46003  0.63489   0.540  0.000  0.000
    30H     0.07141  0.12880   0.929  0.000  0.000
    31H     0.06855  0.12772   0.931  0.000  0.000
    32H     0.08794  0.14420   0.912  0.000  0.000
    33H     0.28096  0.48411   0.719  0.000  0.000
    34H     0.08289  0.15342   0.917  0.000  0.000
    35H     0.07567  0.14153   0.924  0.000  0.000
    36H     0.05803  0.11504   0.942  0.000  0.000
    37H     0.07023  0.12733   0.930  0.000  0.000
    38H     0.06899  0.12612   0.931  0.000  0.000
    39H     0.04782  0.10848   0.952  0.000  0.000
    40H     0.04719  0.10203   0.953  0.000  0.000
    41H     0.04708  0.10521   0.953  0.000  0.000
    42H     0.06132  0.11649   0.939  0.000  0.000
    43H     0.05111  0.10677   0.949  0.000  0.000
    44H     0.04681  0.10586   0.953  0.000  0.000
    45H     0.04412  0.10197   0.956  0.000  0.000
    46H     0.23070  0.42158   0.769  0.000  0.000
    47H     0.23671  0.42721   0.763  0.000  0.000

Wiberg/Mayer (AO) data.
largest (>0.10) Wiberg bond orders for each atom

 ---------------------------------------------------------------------------
     #   Z sym  total        # sym  WBO       # sym  WBO       # sym  WBO
 ---------------------------------------------------------------------------
     1   6 C    3.897 --    27 H    0.973    26 H    0.968    28 H    0.961
                             2 N    0.914
     2   7 N    3.533 --     3 C    1.193    21 C    1.106     1 C    0.914
                             4 O    0.164
     3   6 C    3.928 --     4 O    1.589     2 N    1.193     5 C    1.011
     4   8 O    1.943 --     3 C    1.589     2 N    0.164
     5   6 C    3.846 --     6 O    1.267     7 C    1.152     3 C    1.011
                             9 C    0.112
     6   8 O    2.220 --     5 C    1.267    29 H    0.755
     7   6 C    3.959 --     5 C    1.152    20 N    1.063     8 C    0.976
                             9 C    0.594
     8   6 C    3.976 --    31 H    0.980    30 H    0.980     7 C    0.976
                            32 H    0.968
     9   6 C    3.905 --    10 O    1.701    11 N    1.373     7 C    0.594
                             5 C    0.112
    10   8 O    2.083 --     9 C    1.701    11 N    0.183
    11   7 N    3.405 --     9 C    1.373    12 C    0.893    33 H    0.882
                            10 O    0.183
    12   6 C    3.907 --    13 C    0.997    35 H    0.967    34 H    0.964
                            11 N    0.893
    13   6 C    3.986 --    14 C    1.419    19 C    1.413    12 C    0.997
    14   6 C    3.992 --    15 C    1.442    13 C    1.419    36 H    0.969
                            18 C    0.109
    15   6 C    3.991 --    14 C    1.442    16 C    1.400    37 H    0.968
                            19 C    0.110
    16   6 C    3.863 --    15 C    1.400    18 C    1.395    17 F    0.935
    17   9 F    1.066 --    16 C    0.935
    18   6 C    3.991 --    19 C    1.449    16 C    1.395    38 H    0.968
                            14 C    0.109
    19   6 C    3.994 --    18 C    1.449    13 C    1.413    39 H    0.971
                            15 C    0.110
    20   7 N    3.032 --    21 C    1.656     7 C    1.063
    21   6 C    3.902 --    20 N    1.656     2 N    1.106    22 C    0.972
    22   6 C    3.961 --    24 C    0.991    25 N    0.983    23 C    0.979
                            21 C    0.972
    23   6 C    3.991 --    40 H    0.985    41 H    0.982    42 H    0.981
                            22 C    0.979
    24   6 C    3.993 --    22 C    0.991    43 H    0.984    44 H    0.984
                            45 H    0.983
    25   7 N    3.001 --    22 C    0.983    46 H    0.937    47 H    0.934
    26   1 H    0.998 --     1 C    0.968
    27   1 H    1.001 --     1 C    0.973
    28   1 H    1.025 --     1 C    0.961
    29   1 H    0.801 --     6 O    0.755
    30   1 H    1.000 --     8 C    0.980
    31   1 H    0.996 --     8 C    0.980
    32   1 H    0.996 --     8 C    0.968
    33   1 H    0.930 --    11 N    0.882
    34   1 H    1.000 --    12 C    0.964
    35   1 H    0.997 --    12 C    0.967
    36   1 H    0.997 --    14 C    0.969
    37   1 H    0.996 --    15 C    0.968
    38   1 H    0.996 --    18 C    0.968
    39   1 H    0.999 --    19 C    0.971
    40   1 H    1.001 --    23 C    0.985
    41   1 H    1.001 --    23 C    0.982
    42   1 H    0.998 --    23 C    0.981
    43   1 H    1.002 --    24 C    0.984
    44   1 H    1.007 --    24 C    0.984
    45   1 H    1.008 --    24 C    0.983
    46   1 H    0.952 --    25 N    0.937
    47   1 H    0.948 --    25 N    0.934
 ---------------------------------------------------------------------------

Topologies differ in total number of bonds
Writing topology from bond orders to xtbtopo.mol

 dipole moment from electron density (au)
     X       Y       Z   
  -0.9030   2.1267  -0.6257  total (Debye):    6.084

           -------------------------------------------------
          |                Geometry Summary                 |
           -------------------------------------------------

      molecular mass/u    :      349.3806376
   center of mass at/Å    :        0.4852026       0.0472165      -0.1851315
  moments of inertia/u·Å² :        0.1116878E+04   0.4771248E+04   0.5308957E+04
rotational constants/cm⁻¹ :        0.1509353E-01   0.3533170E-02   0.3175319E-02

 * 44 selected distances

     #   Z          #   Z                                           value/Å
     1   6 C        2   7 N                                       1.4675035
     2   7 N        3   6 C                                       1.3651160
     3   6 C        4   8 O                                       1.2195339
     5   6 C        6   8 O                                       1.2943090
     5   6 C        7   6 C                                       1.4280800
     7   6 C        8   6 C                                       1.5216510
     9   6 C       10   8 O                                       1.1925676
     9   6 C       11   7 N                                       1.3114170
    11   7 N       12   6 C                                       1.4715322
    13   6 C       14   6 C                                       1.3924424
    14   6 C       15   6 C                                       1.3878344
    15   6 C       16   6 C                                       1.3833338
    16   6 C       17   9 F                                       1.3384656
    16   6 C       18   6 C                                       1.3842134
    13   6 C       19   6 C                                       1.3938086
    18   6 C       19   6 C                                       1.3866403
     7   6 C       20   7 N                                       1.4035750
     2   7 N       21   6 C                                       1.3909898
    20   7 N       21   6 C                                       1.2851073
    22   6 C       23   6 C                                       1.5352479
    22   6 C       24   6 C                                       1.5366122 (max)
    22   6 C       25   7 N                                       1.4585071
     1   6 C       26   1 H                                       1.0898911
     1   6 C       27   1 H                                       1.0898739
     1   6 C       28   1 H                                       1.0869409
     6   8 O       29   1 H                                       0.9838046 (min)
     8   6 C       30   1 H                                       1.0880663
     8   6 C       31   1 H                                       1.0868990
     8   6 C       32   1 H                                       1.0894654
    11   7 N       33   1 H                                       1.0067441
    12   6 C       34   1 H                                       1.0934548
    12   6 C       35   1 H                                       1.0922175
    14   6 C       36   1 H                                       1.0833239
    15   6 C       37   1 H                                       1.0822769
    18   6 C       38   1 H                                       1.0821774
    19   6 C       39   1 H                                       1.0833328
    23   6 C       40   1 H                                       1.0890833
    23   6 C       41   1 H                                       1.0876538
    23   6 C       42   1 H                                       1.0890348
    24   6 C       43   1 H                                       1.0885817
    24   6 C       44   1 H                                       1.0887532
    24   6 C       45   1 H                                       1.0888100
    25   7 N       46   1 H                                       1.0119873
    25   7 N       47   1 H                                       1.0108323

 * 7 distinct bonds (by element types)

   Z      Z             #   av. dist./Å        max./Å        min./Å
   1 H    6 C          18     1.0877687     1.0934548     1.0821774
   6 C    6 C          10     1.4349864     1.5366122     1.3833338
   1 H    7 N           3     1.0098546     1.0119873     1.0067441
   6 C    7 N           8     1.3942185     1.4715322     1.2851073
   1 H    8 O           1     0.9838046     0.9838046     0.9838046
   6 C    8 O           3     1.2354702     1.2943090     1.1925676
   6 C    9 F           1     1.3384656     1.3384656     1.3384656


optimized geometry written to: xtbopt.xyz


           -------------------------------------------------
          | TOTAL ENERGY              -79.492826102755 Eh   |
          | GRADIENT NORM               0.000644638193 Eh/α |
          | HOMO-LUMO GAP               0.644241647961 eV   |
           -------------------------------------------------

------------------------------------------------------------------------
 * finished run on 2023/06/20 at 15:23:31.059     
------------------------------------------------------------------------
 total:
 * wall-time:     0 d,  0 h,  0 min,  8.540 sec
 *  cpu-time:     0 d,  0 h,  0 min,  8.422 sec
 * ratio c/w:     0.986 speedup
 SCF:
 * wall-time:     0 d,  0 h,  0 min,  0.227 sec
 *  cpu-time:     0 d,  0 h,  0 min,  0.226 sec
 * ratio c/w:     0.997 speedup
 ANC optimizer:
 * wall-time:     0 d,  0 h,  0 min,  8.222 sec
 *  cpu-time:     0 d,  0 h,  0 min,  8.140 sec
 * ratio c/w:     0.990 speedup

