      -----------------------------------------------------------      
     |                   =====================                   |     
     |                           x T B                           |     
     |                   =====================                   |     
     |                         S. Grimme                         |     
     |          Mulliken Center for Theoretical Chemistry        |     
     |                    University of Bonn                     |     
      -----------------------------------------------------------      

   * xtb version 6.5.1 (579679a) compiled by 'ehlert@majestix' on 2022-07-11

   xtb is free software: you can redistribute it and/or modify it under
   the terms of the GNU Lesser General Public License as published by
   the Free Software Foundation, either version 3 of the License, or
   (at your option) any later version.
   
   xtb is distributed in the hope that it will be useful,
   but WITHOUT ANY WARRANTY; without even the implied warranty of
   MERCHANTABILITY or FITNESS FOR A PARTICULAR PURPOSE.  See the
   GNU Lesser General Public License for more details.
   
   Cite this work as:
   * C. Bannwarth, E. Caldeweyher, S. Ehlert, A. Hansen, P. Pracht,
     J. Seibert, S. Spicher, S. Grimme, WIREs Comput. Mol. Sci., 2020, 11,
     e01493. DOI: 10.1002/wcms.1493
   
   for GFN2-xTB:
   * C. Bannwarth, S. Ehlert and S. Grimme., J. Chem. Theory Comput., 2019,
     15, 1652-1671. DOI: 10.1021/acs.jctc.8b01176
   for GFN1-xTB:
   * S. Grimme, C. Bannwarth, P. Shushkov, J. Chem. Theory Comput., 2017,
     13, 1989-2009. DOI: 10.1021/acs.jctc.7b00118
   for GFN0-xTB:
   * P. Pracht, E. Caldeweyher, S. Ehlert, S. Grimme, ChemRxiv, 2019, preprint.
     DOI: 10.26434/chemrxiv.8326202.v1
   for GFN-FF:
   * S. Spicher and S. Grimme, Angew. Chem. Int. Ed., 2020, 59, 15665-15673.
     DOI: 10.1002/anie.202004239
   
   for ALPB and GBSA implicit solvation:
   * S. Ehlert, M. Stahn, S. Spicher, S. Grimme, J. Chem. Theory Comput.,
     2021, 17, 4250-4261. DOI: 10.1021/acs.jctc.1c00471
   
   for DFT-D4:
   * E. Caldeweyher, C. Bannwarth and S. Grimme, J. Chem. Phys., 2017,
     147, 034112. DOI: 10.1063/1.4993215
   * E. Caldeweyher, S. Ehlert, A. Hansen, H. Neugebauer, S. Spicher,
     C. Bannwarth and S. Grimme, J. Chem. Phys., 2019, 150, 154122.
     DOI: 10.1063/1.5090222
   * E. Caldeweyher, J.-M. Mewes, S. Ehlert and S. Grimme, Phys. Chem. Chem. Phys.
     2020, 22, 8499-8512. DOI: 10.1039/D0CP00502A
   
   for sTDA-xTB:
   * S. Grimme and C. Bannwarth, J. Chem. Phys., 2016, 145, 054103.
     DOI: 10.1063/1.4959605
   
   in the mass-spec context:
   * V. Asgeirsson, C. Bauer and S. Grimme, Chem. Sci., 2017, 8, 4879.
     DOI: 10.1039/c7sc00601b
   * J. Koopman and S. Grimme, ACS Omega 2019, 4, 12, 15120-15133.
     DOI: 10.1021/acsomega.9b02011
   
   for metadynamics refer to:
   * S. Grimme, J. Chem. Theory Comput., 2019, 155, 2847-2862
     DOI: 10.1021/acs.jctc.9b00143
   
   for SPH calculations refer to:
   * S. Spicher and S. Grimme, J. Chem. Theory Comput., 2021, 17, 1701-1714
     DOI: 10.1021/acs.jctc.0c01306
   
   with help from (in alphabetical order)
   P. Atkinson, C. Bannwarth, F. Bohle, G. Brandenburg, E. Caldeweyher
   M. Checinski, S. Dohm, S. Ehlert, S. Ehrlich, I. Gerasimov, C. Hölzer
   A. Katbashev, J. Koopman, C. Lavigne, S. Lehtola, F. März, M. Müller,
   F. Musil, H. Neugebauer, J. Pisarek, C. Plett, P. Pracht, F. Pultar,
   J. Seibert, P. Shushkov, S. Spicher, M. Stahn, M. Steiner, T. Strunk,
   J. Stückrath, T. Rose, and J. Unsleber
   
 * started run on 2023/06/20 at 18:20:55.640     

           -------------------------------------------------
          |                Calculation Setup                |
           -------------------------------------------------

          program call               : /lustre/hpc/kemi/ree/PhD/git/ReactivityQM/dep/xtb-6.5.1/bin/xtb --gfn 1 /lustre/hpc/kemi/ree/PhD/git/ReactivityQM/calculations/R02deprot/reac01prodN13/conf12/R02deprot_reac01prodN13_conf12_gfn1.xyz --opt --vfukui --chrg 0 --uhf 0 --alpb DMSO
          hostname                   : node308
          coordinate file            : /lustre/hpc/kemi/ree/PhD/git/ReactivityQM/calculations/R02deprot/reac01prodN13/conf12/R02deprot_reac01prodN13_conf12_gfn1.xyz
          omp threads                :                     1

   ID    Z sym.   atoms
    1    6 C      1, 3, 5, 7-10, 12, 14, 15, 18, 19, 22, 24
    2    8 O      2, 4, 13, 20, 23, 25
    3    7 N      6, 11, 16, 17, 21
    4    1 H      26-42

           -------------------------------------------------
          |                 G F N 1 - x T B                 |
           -------------------------------------------------

        Reference                      10.1021/acs.jctc.7b00118
      * Hamiltonian:
        H0-scaling (s, p, d)           1.850000    2.250000    2.000000
        zeta-weighting                 0.000000
      * Dispersion:
        s8                             2.400000
        a1                             0.630000
        a2                             5.000000
        s9                             0.000000
      * Repulsion:
        kExp                           1.500000
        rExp                           1.000000
      * Coulomb:
        alpha                          2.000000
        third order                    atomic
        anisotropic                    false
      * Halogen bond correction:
        rad-scale                      1.300000
        damping                        0.440000

      * Solvation model:               ALPB
        Solvent                        DMSO
        Parameter file                 internal GFN1-xTB/ALPB
        Dielectric constant                4.6680E+01
        Reference state                gsolv [1 M gas/solution]
        Free energy shift                  7.6243E-03 Eh       4.7843E+00 kcal/mol
        Temperature                        2.9815E+02 K
        Density                            1.1000E+00 kg/L
        Solvent mass                       7.8130E+01 g/mol
        Interaction kernel             P16
        Born radius scaling (c1)           1.7672E+00
        Born radii integrator          GBOBC
        Born offset                        0.0000E+00 a0       0.0000E+00 AA
        H-bond correction              true
        Ion screening                  false
        Surface tension                    1.0000E-05 Eh       1.5569E+01 dyn/cm
        Grid points                               230 per atom

          ...................................................
          :                      SETUP                      :
          :.................................................:
          :  # basis functions                 134          :
          :  # atomic orbitals                 134          :
          :  # shells                           84          :
          :  # electrons                       134          :
          :  # halogen bonds                     0          :
          :  max. iterations                   250          :
          :  Hamiltonian                  GFN1-xTB          :
          :  restarted?                      false          :
          :  GBSA solvation                   true          :
          :  PC potential                    false          :
          :  electronic temp.          300.0000000     K    :
          :  accuracy                    1.0000000          :
          :  -> integral cutoff          0.2500000E+02      :
          :  -> integral neglect         0.1000000E-07      :
          :  -> SCF convergence          0.1000000E-05 Eh   :
          :  -> wf. convergence          0.2000000E-04 e    :
          :  Broyden damping             0.4000000          :
          ...................................................

 iter      E             dE          RMSdq      gap      omega  full diag
   1    -83.3369116 -0.833369E+02  0.844E+00    1.61       0.0  T
   2    -83.3480380 -0.111264E-01  0.527E+00    0.18       1.0  T
   3    -82.1231641  0.122487E+01  0.445E+00    0.22       1.0  T
   4    -83.5838200 -0.146066E+01  0.132E+00    0.33       1.0  T
   5    -83.6533504 -0.695304E-01  0.456E-01    0.03       1.0  T
   6    -83.6414093  0.119412E-01  0.666E-01    0.65       1.0  T
   7    -83.6485068 -0.709755E-02  0.506E-01    0.31       1.0  T
   8    -83.4368459  0.211661E+00  0.142E+00    0.13       1.0  T
   9    -83.6518502 -0.215004E+00  0.467E-01    0.23       1.0  T
  10    -83.6696966 -0.178464E-01  0.215E-01    0.10       1.0  T
  11    -83.6747998 -0.510318E-02  0.350E-02    0.07       1.0  T
  12    -83.6748349 -0.351212E-04  0.284E-02    0.07       1.0  T
  13    -83.6749308 -0.959451E-04  0.154E-03    0.07      10.0  T
  14    -83.6749275  0.335451E-05  0.544E-03    0.07       2.8  T
  15    -83.6749303 -0.283120E-05  0.232E-03    0.07       6.6  T
  16    -83.6749305 -0.135395E-06  0.205E-03    0.07       7.5  T
  17    -83.6749309 -0.467893E-06  0.523E-04    0.07      29.5  T
  18    -83.6749310 -0.304010E-07  0.115E-04    0.07     134.7  T
  19    -83.6749310 -0.155246E-08  0.211E-05    0.07     731.1  T

   *** convergence criteria satisfied after 19 iterations ***

         #    Occupation            Energy/Eh            Energy/eV
      -------------------------------------------------------------
         1        2.0000           -0.8821963             -24.0058
       ...           ...                  ...                  ...
        61        2.0000           -0.4734321             -12.8827
        62        2.0000           -0.4718281             -12.8391
        63        2.0000           -0.4644950             -12.6396
        64        2.0000           -0.4569567             -12.4344
        65        2.0000           -0.4439975             -12.0818
        66        1.9984           -0.4139695             -11.2647
        67        1.5689           -0.4084058             -11.1133 (HOMO)
        68        0.4326           -0.4059555             -11.0466 (LUMO)
        69                         -0.3120307              -8.4908
        70                         -0.2993116              -8.1447
        71                         -0.2865632              -7.7978
        72                         -0.2680140              -7.2930
       ...                                ...                  ...
       134                          0.7210071              19.6196
      -------------------------------------------------------------
                  HL-Gap            0.0024503 Eh            0.0667 eV
             Fermi-level           -0.4071785 Eh          -11.0799 eV

 SCC (total)                   0 d,  0 h,  0 min,  0.129 sec
 SCC setup                      ...        0 min,  0.002 sec (  1.836%)
 Dispersion                     ...        0 min,  0.000 sec (  0.339%)
 classical contributions        ...        0 min,  0.000 sec (  0.115%)
 integral evaluation            ...        0 min,  0.032 sec ( 25.171%)
 iterations                     ...        0 min,  0.049 sec ( 38.016%)
 molecular gradient             ...        0 min,  0.044 sec ( 33.985%)
 printout                       ...        0 min,  0.001 sec (  0.493%)

         :::::::::::::::::::::::::::::::::::::::::::::::::::::
         ::                     SUMMARY                     ::
         :::::::::::::::::::::::::::::::::::::::::::::::::::::
         :: total energy             -82.920139037728 Eh    ::
         :: total w/o Gsasa/hb       -82.896349671982 Eh    ::
         :: gradient norm              0.109963181428 Eh/a0 ::
         :: HOMO-LUMO gap              0.066676396466 eV    ::
         ::.................................................::
         :: SCC energy               -83.674930958073 Eh    ::
         :: -> electrostatic           0.358941806156 Eh    ::
         :: -> Gsolv                  -0.055886384099 Eh    ::
         ::    -> Gelec               -0.032097018353 Eh    ::
         ::    -> Gsasa               -0.024159869493 Eh    ::
         ::    -> Ghb                 -0.007253775257 Eh    ::
         ::    -> Gshift               0.007624279005 Eh    ::
         :: repulsion energy           0.780877123285 Eh    ::
         :: dispersion energy         -0.026085202939 Eh    ::
         :: halogen bond corr.         0.000000000000 Eh    ::
         :: add. restraining           0.000000000000 Eh    ::
         :: total charge              -0.000000000000 e     ::
         :::::::::::::::::::::::::::::::::::::::::::::::::::::

      ----------------------------------------------------------- 
     |                   =====================                   |
     |                        A N C O P T                        |
     |                   =====================                   |
     |               Approximate Normal Coordinate               |
     |                Rational Function Optimizer                |
      ----------------------------------------------------------- 

          ...................................................
          :                      SETUP                      :
          :.................................................:
          :   optimization level            normal          :
          :   max. optcycles                   200          :
          :   ANC micro-cycles                  20          :
          :   degrees of freedom               120          :
          :.................................................:
          :   RF solver                   davidson          :
          :   write xtbopt.log                true          :
          :   linear?                        false          :
          :   energy convergence         0.5000000E-05 Eh   :
          :   grad. convergence          0.1000000E-02 Eh/α :
          :   maximium RF displ.         1.0000000          :
          :   Hlow (freq-cutoff)         0.1000000E-01      :
          :   Hmax (freq-cutoff)         5.0000000          :
          :   S6 in model hess.         20.0000000          :
          ...................................................

generating ANC from model Hessian ...
Using Lindh-Hessian (1995)
 Shifting diagonal of input Hessian by   9.806478334778226E-003
 Lowest  eigenvalues of input Hessian
    0.000000    0.000000    0.000000    0.000000    0.000000    0.000000
    0.010000    0.010086    0.010462    0.010619    0.011656    0.012520
    0.012726    0.014081    0.014420    0.015885    0.016320    0.017257
 Highest eigenvalues
    2.019923    2.024406    2.192272    2.293264    2.295260    2.391269
 

........................................................................
.............................. CYCLE    1 ..............................
........................................................................
   1    -83.6749310 -0.836749E+02  0.543E-06    0.07       0.0  T
   2    -83.6749310  0.928850E-09  0.887E-05    0.07     174.0  T
   3    -83.6749310 -0.932545E-09  0.196E-07    0.07   78858.8  T
     SCC iter.                  ...        0 min,  0.008 sec
     gradient                   ...        0 min,  0.044 sec
 * total energy  :   -82.9201390 Eh     change       -0.5459810E-10 Eh
   gradient norm :     0.1099623 Eh/α   predicted     0.0000000E+00 (-100.00%)
   displ. norm   :     0.3213658 α      lambda       -0.1614503E-01
   maximum displ.:     0.1201253 α      in ANC's #23, #20, #26, ...

........................................................................
.............................. CYCLE    2 ..............................
........................................................................
   1    -83.6756388 -0.836756E+02  0.298E-01    0.14       0.0  T
   2    -83.3793052  0.296334E+00  0.169E+00    0.17       1.0  T
   3    -83.6295656 -0.250260E+00  0.697E-01    0.02       1.0  T
   4    -83.6683463 -0.387808E-01  0.406E-01    0.20       1.0  T
   5    -83.6834149 -0.150686E-01  0.173E-01    0.10       1.0  T
   6    -83.6809329  0.248201E-02  0.230E-01    0.04       1.0  T
   7    -83.6869891 -0.605623E-02  0.344E-02    0.08       1.0  T
   8    -83.6871314 -0.142240E-03  0.297E-03    0.07       5.2  T
   9    -83.6871113  0.200614E-04  0.132E-02    0.07       1.2  T
  10    -83.6871319 -0.205590E-04  0.222E-03    0.07       7.0  T
  11    -83.6871324 -0.508914E-06  0.788E-04    0.07      19.6  T
  12    -83.6871324 -0.449509E-07  0.498E-04    0.07      31.0  T
  13    -83.6871324 -0.292928E-07  0.217E-05    0.07     709.5  T
  14    -83.6871324  0.300872E-09  0.545E-05    0.07     283.3  T
     SCC iter.                  ...        0 min,  0.035 sec
     gradient                   ...        0 min,  0.044 sec
 * total energy  :   -82.9318437 Eh     change       -0.1170471E-01 Eh
   gradient norm :     0.0561086 Eh/α   predicted    -0.8913533E-02 ( -23.85%)
   displ. norm   :     0.3402281 α      lambda       -0.7144778E-02
   maximum displ.:     0.1449662 α      in ANC's #20, #26, #23, ...

........................................................................
.............................. CYCLE    3 ..............................
........................................................................
   1    -83.6846790 -0.836847E+02  0.307E-01    0.16       0.0  T
   2    -83.3814595  0.303219E+00  0.170E+00    0.14       1.0  T
   3    -83.6692399 -0.287780E+00  0.478E-01    0.03       1.0  T
   4    -83.6843209 -0.150810E-01  0.322E-01    0.16       1.0  T
   5    -83.6952955 -0.109746E-01  0.936E-02    0.09       1.0  T
   6    -83.6888643  0.643119E-02  0.251E-01    0.04       1.0  T
   7    -83.6961021 -0.723784E-02  0.489E-02    0.08       1.0  T
   8    -83.6963887 -0.286620E-03  0.106E-03    0.08      14.6  T
   9    -83.6963885  0.221262E-06  0.167E-03    0.08       9.2  T
  10    -83.6963888 -0.297235E-06  0.577E-04    0.08      26.7  T
  11    -83.6963888  0.344750E-07  0.783E-04    0.08      19.7  T
  12    -83.6963888 -0.725109E-07  0.860E-05    0.08     179.4  T
  13    -83.6963888 -0.572186E-09  0.505E-05    0.08     305.6  T
     SCC iter.                  ...        0 min,  0.032 sec
     gradient                   ...        0 min,  0.044 sec
 * total energy  :   -82.9360620 Eh     change       -0.4218226E-02 Eh
   gradient norm :     0.0178322 Eh/α   predicted    -0.3987355E-02 (  -5.47%)
   displ. norm   :     0.2135704 α      lambda       -0.1049495E-02
   maximum displ.:     0.0828290 α      in ANC's #6, #20, #1, ...

........................................................................
.............................. CYCLE    4 ..............................
........................................................................
   1    -83.6952565 -0.836953E+02  0.148E-01    0.11       0.0  T
   2    -83.3950596  0.300197E+00  0.161E+00    0.12       1.0  T
   3    -83.6977799 -0.302720E+00  0.381E-02    0.07       1.0  T
   4    -83.6979330 -0.153049E-03  0.494E-03    0.08       3.1  T
   5    -83.6979342 -0.126203E-05  0.235E-03    0.08       6.6  T
   6    -83.6979339  0.340850E-06  0.187E-03    0.08       8.3  T
   7    -83.6979342 -0.355830E-06  0.152E-04    0.08     101.6  T
   8    -83.6979342  0.641421E-09  0.114E-04    0.08     135.6  T
     SCC iter.                  ...        0 min,  0.021 sec
     gradient                   ...        0 min,  0.044 sec
 * total energy  :   -82.9368351 Eh     change       -0.7730778E-03 Eh
   gradient norm :     0.0117825 Eh/α   predicted    -0.5487054E-03 ( -29.02%)
   displ. norm   :     0.2795347 α      lambda       -0.7798789E-03
   maximum displ.:     0.1343805 α      in ANC's #6, #1, #5, ...

........................................................................
.............................. CYCLE    5 ..............................
........................................................................
   1    -83.6977493 -0.836977E+02  0.120E-01    0.10       0.0  T
   2    -83.4012357  0.296514E+00  0.158E+00    0.12       1.0  T
   3    -83.6994764 -0.298241E+00  0.126E-02    0.08       1.2  T
   4    -83.6994799 -0.350113E-05  0.611E-03    0.08       2.5  T
   5    -83.6994821 -0.213426E-05  0.298E-03    0.08       5.2  T
   6    -83.6994825 -0.390249E-06  0.112E-03    0.08      13.8  T
   7    -83.6994826 -0.111578E-06  0.382E-04    0.08      40.4  T
   8    -83.6994826 -0.157854E-07  0.707E-05    0.08     218.4  T
   9    -83.6994826 -0.331269E-09  0.373E-05    0.08     413.7  T
     SCC iter.                  ...        0 min,  0.023 sec
     gradient                   ...        0 min,  0.044 sec
 * total energy  :   -82.9373599 Eh     change       -0.5248045E-03 Eh
   gradient norm :     0.0073044 Eh/α   predicted    -0.4204573E-03 ( -19.88%)
   displ. norm   :     0.2350991 α      lambda       -0.3275801E-03
   maximum displ.:     0.1353255 α      in ANC's #6, #1, #5, ...

........................................................................
.............................. CYCLE    6 ..............................
........................................................................
   1    -83.7003575 -0.837004E+02  0.460E-02    0.09       0.0  T
   2    -83.6019484  0.984091E-01  0.901E-01    0.04       1.0  T
   3    -83.7006149 -0.986665E-01  0.625E-03    0.08       2.5  T
   4    -83.7006149  0.535232E-07  0.543E-03    0.08       2.8  T
   5    -83.7006136  0.130530E-05  0.599E-03    0.08       2.6  T
   6    -83.7006171 -0.354344E-05  0.198E-03    0.08       7.8  T
   7    -83.7006176 -0.470921E-06  0.156E-04    0.08      99.2  T
   8    -83.7006176 -0.160291E-08  0.873E-05    0.08     176.8  T
     SCC iter.                  ...        0 min,  0.021 sec
     gradient                   ...        0 min,  0.044 sec
 * total energy  :   -82.9376031 Eh     change       -0.2432583E-03 Eh
   gradient norm :     0.0066436 Eh/α   predicted    -0.1728712E-03 ( -28.94%)
   displ. norm   :     0.2721905 α      lambda       -0.2839999E-03
   maximum displ.:     0.1656244 α      in ANC's #6, #1, #5, ...

........................................................................
.............................. CYCLE    7 ..............................
........................................................................
   1    -83.7012617 -0.837013E+02  0.882E-03    0.08       0.0  T
   2    -83.7012573  0.439784E-05  0.895E-03    0.08       1.7  T
   3    -83.7009142  0.343102E-03  0.546E-02    0.07       1.0  T
   4    -83.7012623 -0.348167E-03  0.613E-03    0.08       2.5  T
   5    -83.7012648 -0.250266E-05  0.322E-03    0.08       4.8  T
   6    -83.7012659 -0.109285E-05  0.207E-04    0.08      74.5  T
   7    -83.7012659 -0.306402E-08  0.619E-05    0.08     249.4  T
   8    -83.7012659 -0.229420E-09  0.403E-05    0.08     382.4  T
     SCC iter.                  ...        0 min,  0.021 sec
     gradient                   ...        0 min,  0.044 sec
 * total energy  :   -82.9378125 Eh     change       -0.2093447E-03 Eh
   gradient norm :     0.0067076 Eh/α   predicted    -0.1525235E-03 ( -27.14%)
   displ. norm   :     0.2451470 α      lambda       -0.2190273E-03
   maximum displ.:     0.1459094 α      in ANC's #6, #1, #3, ...

........................................................................
.............................. CYCLE    8 ..............................
........................................................................
   1    -83.7014345 -0.837014E+02  0.460E-02    0.08       0.0  T
   2    -83.6890624  0.123721E-01  0.333E-01    0.19       1.0  T
   3    -83.7015371 -0.124747E-01  0.346E-02    0.09       1.0  T
   4    -83.7015832 -0.460288E-04  0.288E-02    0.08       1.0  T
   5    -83.7016799 -0.966917E-04  0.471E-03    0.08       3.3  T
   6    -83.7016824 -0.253897E-05  0.113E-03    0.08      13.7  T
   7    -83.7016825 -0.108321E-06  0.450E-04    0.08      34.3  T
   8    -83.7016825 -0.239133E-07  0.338E-05    0.08     456.3  T
   9    -83.7016825 -0.114255E-10  0.269E-05    0.08     572.6  T
     SCC iter.                  ...        0 min,  0.023 sec
     gradient                   ...        0 min,  0.044 sec
 * total energy  :   -82.9379871 Eh     change       -0.1746477E-03 Eh
   gradient norm :     0.0060833 Eh/α   predicted    -0.1160962E-03 ( -33.53%)
   displ. norm   :     0.3054178 α      lambda       -0.2375494E-03
   maximum displ.:     0.1824764 α      in ANC's #1, #6, #3, ...

........................................................................
.............................. CYCLE    9 ..............................
........................................................................
   1    -83.7007734 -0.837008E+02  0.655E-02    0.07       0.0  T
   2    -83.6849590  0.158144E-01  0.385E-01    0.23       1.0  T
   3    -83.7004564 -0.154974E-01  0.834E-02    0.10       1.0  T
   4    -83.7010115 -0.555090E-03  0.481E-02    0.07       1.0  T
   5    -83.7012921 -0.280594E-03  0.214E-03    0.08       7.2  T
   6    -83.7012912  0.900139E-06  0.329E-03    0.08       4.7  T
   7    -83.7012924 -0.117316E-05  0.996E-04    0.08      15.5  T
   8    -83.7012925 -0.118154E-06  0.115E-04    0.08     134.6  T
   9    -83.7012925 -0.116130E-08  0.567E-05    0.08     272.1  T
     SCC iter.                  ...        0 min,  0.023 sec
     gradient                   ...        0 min,  0.044 sec
 * total energy  :   -82.9381669 Eh     change       -0.1797524E-03 Eh
   gradient norm :     0.0064845 Eh/α   predicted    -0.1298577E-03 ( -27.76%)
   displ. norm   :     0.2954903 α      lambda       -0.1950928E-03
   maximum displ.:     0.1841494 α      in ANC's #1, #6, #3, ...

........................................................................
.............................. CYCLE   10 ..............................
........................................................................
   1    -83.7010946 -0.837011E+02  0.429E-02    0.07       0.0  T
   2    -83.6888185  0.122761E-01  0.331E-01    0.18       1.0  T
   3    -83.7011115 -0.122929E-01  0.420E-02    0.09       1.0  T
   4    -83.7012858 -0.174386E-03  0.167E-02    0.08       1.0  T
   5    -83.7013099 -0.240840E-04  0.944E-03    0.08       1.6  T
   6    -83.7013198 -0.983607E-05  0.210E-03    0.08       7.3  T
   7    -83.7013203 -0.541843E-06  0.235E-04    0.08      65.7  T
   8    -83.7013203 -0.481357E-08  0.121E-04    0.08     127.7  T
   9    -83.7013203 -0.140757E-08  0.522E-05    0.08     295.3  T
     SCC iter.                  ...        0 min,  0.023 sec
     gradient                   ...        0 min,  0.044 sec
 * total energy  :   -82.9383163 Eh     change       -0.1494580E-03 Eh
   gradient norm :     0.0057185 Eh/α   predicted    -0.1060645E-03 ( -29.03%)
   displ. norm   :     0.3113932 α      lambda       -0.1796057E-03
   maximum displ.:     0.2022921 α      in ANC's #1, #6, #3, ...

........................................................................
.............................. CYCLE   11 ..............................
........................................................................
   1    -83.7009088 -0.837009E+02  0.815E-03    0.08       0.0  T
   2    -83.7003004  0.608431E-03  0.714E-02    0.07       1.0  T
   3    -83.7008943 -0.593950E-03  0.132E-02    0.08       1.2  T
   4    -83.7009114 -0.171092E-04  0.460E-03    0.08       3.4  T
   5    -83.7009132 -0.182178E-05  0.177E-03    0.08       8.7  T
   6    -83.7009136 -0.300411E-06  0.256E-04    0.08      60.2  T
   7    -83.7009136 -0.693773E-08  0.260E-05    0.08     592.7  T
   8    -83.7009136  0.111257E-09  0.349E-05    0.08     442.5  T
     SCC iter.                  ...        0 min,  0.021 sec
     gradient                   ...        0 min,  0.044 sec
 * total energy  :   -82.9384521 Eh     change       -0.1357694E-03 Eh
   gradient norm :     0.0064708 Eh/α   predicted    -0.9851355E-04 ( -27.44%)
   displ. norm   :     0.2856498 α      lambda       -0.1730626E-03
   maximum displ.:     0.1952538 α      in ANC's #1, #8, #6, ...

........................................................................
.............................. CYCLE   12 ..............................
........................................................................
   1    -83.7021353 -0.837021E+02  0.477E-02    0.09       0.0  T
   2    -83.5992621  0.102873E+00  0.922E-01    0.04       1.0  T
   3    -83.7023729 -0.103111E+00  0.168E-02    0.08       1.0  T
   4    -83.7024000 -0.270256E-04  0.691E-03    0.08       2.2  T
   5    -83.7024046 -0.468628E-05  0.257E-03    0.08       6.0  T
   6    -83.7024051 -0.445682E-06  0.135E-03    0.08      11.4  T
   7    -83.7024053 -0.196827E-06  0.451E-04    0.08      34.2  T
   8    -83.7024053 -0.245782E-07  0.240E-05    0.08     643.1  T
   9    -83.7024053  0.888321E-10  0.351E-05    0.08     439.9  T
     SCC iter.                  ...        0 min,  0.023 sec
     gradient                   ...        0 min,  0.044 sec
 * total energy  :   -82.9385694 Eh     change       -0.1173477E-03 Eh
   gradient norm :     0.0050486 Eh/α   predicted    -0.9359366E-04 ( -20.24%)
   displ. norm   :     0.2957621 α      lambda       -0.1273234E-03
   maximum displ.:     0.2067540 α      in ANC's #1, #6, #5, ...

........................................................................
.............................. CYCLE   13 ..............................
........................................................................
   1    -83.7005982 -0.837006E+02  0.672E-02    0.09       0.0  T
   2    -83.5112944  0.189304E+00  0.125E+00    0.08       1.0  T
   3    -83.7010925 -0.189798E+00  0.196E-02    0.08       1.0  T
   4    -83.7011393 -0.468590E-04  0.183E-03    0.08       8.4  T
   5    -83.7011389  0.409936E-06  0.217E-03    0.08       7.1  T
   6    -83.7011392 -0.274813E-06  0.114E-03    0.08      13.5  T
   7    -83.7011393 -0.147451E-06  0.311E-04    0.08      49.6  T
   8    -83.7011393 -0.924229E-08  0.137E-04    0.08     112.7  T
   9    -83.7011394 -0.223535E-08  0.713E-06    0.08    2162.7  T
     SCC iter.                  ...        0 min,  0.023 sec
     gradient                   ...        0 min,  0.044 sec
 * total energy  :   -82.9386520 Eh     change       -0.8254275E-04 Eh
   gradient norm :     0.0065425 Eh/α   predicted    -0.6923137E-04 ( -16.13%)
   displ. norm   :     0.1558864 α      lambda       -0.1022096E-03
   maximum displ.:     0.1201063 α      in ANC's #1, #8, #5, ...

........................................................................
.............................. CYCLE   14 ..............................
........................................................................
   1    -83.7024468 -0.837024E+02  0.597E-02    0.09       0.0  T
   2    -83.5440430  0.158404E+00  0.114E+00    0.07       1.0  T
   3    -83.7028510 -0.158808E+00  0.151E-02    0.08       1.0  T
   4    -83.7028787 -0.276944E-04  0.176E-03    0.08       8.8  T
   5    -83.7028780  0.689891E-06  0.278E-03    0.08       5.6  T
   6    -83.7028784 -0.383356E-06  0.183E-03    0.08       8.4  T
   7    -83.7028788 -0.395591E-06  0.284E-04    0.08      54.3  T
   8    -83.7028788 -0.900593E-08  0.706E-05    0.08     218.6  T
   9    -83.7028788 -0.553058E-09  0.152E-05    0.08    1016.9  T
     SCC iter.                  ...        0 min,  0.023 sec
     gradient                   ...        0 min,  0.044 sec
 * total energy  :   -82.9387299 Eh     change       -0.7789958E-04 Eh
   gradient norm :     0.0044834 Eh/α   predicted    -0.5234731E-04 ( -32.80%)
   displ. norm   :     0.2233112 α      lambda       -0.1173528E-03
   maximum displ.:     0.1734228 α      in ANC's #1, #5, #8, ...

........................................................................
.............................. CYCLE   15 ..............................
........................................................................
   1    -83.7030859 -0.837031E+02  0.546E-02    0.09       0.0  T
   2    -83.5669041  0.136182E+00  0.106E+00    0.06       1.0  T
   3    -83.7034402 -0.136536E+00  0.101E-02    0.08       1.5  T
   4    -83.7034524 -0.121450E-04  0.254E-03    0.08       6.1  T
   5    -83.7034516  0.788750E-06  0.350E-03    0.08       4.4  T
   6    -83.7034524 -0.793607E-06  0.213E-03    0.08       7.2  T
   7    -83.7034529 -0.542611E-06  0.188E-04    0.08      81.9  T
   8    -83.7034529 -0.391871E-08  0.352E-05    0.08     438.9  T
     SCC iter.                  ...        0 min,  0.020 sec
     gradient                   ...        0 min,  0.044 sec
 * total energy  :   -82.9388230 Eh     change       -0.9315381E-04 Eh
   gradient norm :     0.0039424 Eh/α   predicted    -0.6160295E-04 ( -33.87%)
   displ. norm   :     0.2594842 α      lambda       -0.1210300E-03
   maximum displ.:     0.2033118 α      in ANC's #1, #5, #2, ...

........................................................................
.............................. CYCLE   16 ..............................
........................................................................
   1    -83.7034365 -0.837034E+02  0.305E-02    0.09       0.0  T
   2    -83.6669105  0.365261E-01  0.550E-01    0.03       1.0  T
   3    -83.7035435 -0.366331E-01  0.657E-03    0.08       2.3  T
   4    -83.7035484 -0.491726E-05  0.121E-03    0.08      12.8  T
   5    -83.7035483  0.882114E-07  0.124E-03    0.08      12.5  T
   6    -83.7035485 -0.126878E-06  0.325E-04    0.08      47.5  T
   7    -83.7035485 -0.120778E-07  0.234E-05    0.08     659.7  T
   8    -83.7035485  0.353992E-10  0.248E-05    0.08     622.3  T
     SCC iter.                  ...        0 min,  0.021 sec
     gradient                   ...        0 min,  0.045 sec
 * total energy  :   -82.9389231 Eh     change       -0.1000561E-03 Eh
   gradient norm :     0.0044343 Eh/α   predicted    -0.6459271E-04 ( -35.44%)
   displ. norm   :     0.2702288 α      lambda       -0.1232753E-03
   maximum displ.:     0.2097431 α      in ANC's #1, #2, #5, ...

........................................................................
.............................. CYCLE   17 ..............................
........................................................................
   1    -83.7031348 -0.837031E+02  0.756E-03    0.08       0.0  T
   2    -83.7023322  0.802600E-03  0.827E-02    0.10       1.0  T
   3    -83.7031371 -0.804890E-03  0.636E-03    0.08       2.4  T
   4    -83.7031400 -0.296476E-05  0.347E-03    0.08       4.4  T
   5    -83.7031411 -0.103153E-05  0.130E-03    0.08      11.9  T
   6    -83.7031412 -0.158161E-06  0.296E-04    0.08      52.2  T
   7    -83.7031412 -0.988287E-08  0.216E-05    0.08     715.3  T
   8    -83.7031412  0.992202E-10  0.343E-05    0.08     449.9  T
     SCC iter.                  ...        0 min,  0.021 sec
     gradient                   ...        0 min,  0.044 sec
 * total energy  :   -82.9390273 Eh     change       -0.1042092E-03 Eh
   gradient norm :     0.0047695 Eh/α   predicted    -0.6614011E-04 ( -36.53%)
   displ. norm   :     0.3078677 α      lambda       -0.1369390E-03
   maximum displ.:     0.2365190 α      in ANC's #1, #2, #3, ...

........................................................................
.............................. CYCLE   18 ..............................
........................................................................
   1    -83.7024542 -0.837025E+02  0.179E-02    0.08       0.0  T
   2    -83.6982486  0.420559E-02  0.190E-01    0.13       1.0  T
   3    -83.7024458 -0.419722E-02  0.210E-02    0.09       1.0  T
   4    -83.7024964 -0.505398E-04  0.173E-03    0.08       8.9  T
   5    -83.7024950  0.139632E-05  0.372E-03    0.08       4.1  T
   6    -83.7024965 -0.152239E-05  0.135E-04    0.08     114.5  T
   7    -83.7024965 -0.176814E-08  0.559E-05    0.08     276.0  T
   8    -83.7024965 -0.443379E-10  0.428E-05    0.08     360.3  T
     SCC iter.                  ...        0 min,  0.021 sec
     gradient                   ...        0 min,  0.044 sec
 * total energy  :   -82.9391408 Eh     change       -0.1134842E-03 Eh
   gradient norm :     0.0055856 Eh/α   predicted    -0.7496053E-04 ( -33.95%)
   displ. norm   :     0.3059545 α      lambda       -0.1393974E-03
   maximum displ.:     0.2328968 α      in ANC's #1, #2, #3, ...

........................................................................
.............................. CYCLE   19 ..............................
........................................................................
   1    -83.7022628 -0.837023E+02  0.240E-02    0.08       0.0  T
   2    -83.6957717  0.649104E-02  0.238E-01    0.14       1.0  T
   3    -83.7022099 -0.643817E-02  0.338E-02    0.09       1.0  T
   4    -83.7023404 -0.130563E-03  0.211E-03    0.08       7.3  T
   5    -83.7023370  0.339236E-05  0.608E-03    0.08       2.5  T
   6    -83.7023411 -0.405750E-05  0.291E-04    0.08      53.0  T
   7    -83.7023411 -0.642213E-08  0.496E-05    0.08     311.3  T
   8    -83.7023411  0.306187E-09  0.635E-05    0.08     242.9  T
     SCC iter.                  ...        0 min,  0.021 sec
     gradient                   ...        0 min,  0.045 sec
 * total energy  :   -82.9392548 Eh     change       -0.1140365E-03 Eh
   gradient norm :     0.0057589 Eh/α   predicted    -0.7622701E-04 ( -33.16%)
   displ. norm   :     0.3577752 α      lambda       -0.1565631E-03
   maximum displ.:     0.2765287 α      in ANC's #1, #2, #3, ...

........................................................................
.............................. CYCLE   20 ..............................
........................................................................
   1    -83.7012569 -0.837013E+02  0.104E-02    0.08       0.0  T
   2    -83.7001501  0.110677E-02  0.962E-02    0.07       1.0  T
   3    -83.7012015 -0.105142E-02  0.234E-02    0.09       1.0  T
   4    -83.7012582 -0.566839E-04  0.736E-03    0.08       2.1  T
   5    -83.7012638 -0.562309E-05  0.143E-03    0.08      10.8  T
   6    -83.7012640 -0.162617E-06  0.211E-04    0.08      73.2  T
   7    -83.7012640 -0.373872E-08  0.757E-05    0.08     204.0  T
   8    -83.7012640 -0.556085E-09  0.129E-05    0.08    1197.0  T
     SCC iter.                  ...        0 min,  0.020 sec
     gradient                   ...        0 min,  0.044 sec
 * total energy  :   -82.9393782 Eh     change       -0.1233891E-03 Eh
   gradient norm :     0.0070101 Eh/α   predicted    -0.8830559E-04 ( -28.43%)
   displ. norm   :     0.3822692 α      lambda       -0.1818868E-03
   maximum displ.:     0.2895842 α      in ANC's #1, #3, #2, ...
 * RMSD in coord.:     0.6470609 α      energy gain  -0.1923917E-01 Eh

generating ANC from model Hessian ...
Using Lindh-Hessian (1995)
 Shifting diagonal of input Hessian by   9.768501740749310E-003
 Lowest  eigenvalues of input Hessian
    0.000000    0.000000    0.000000    0.000000    0.000000    0.000000
    0.010000    0.010085    0.010485    0.010534    0.011310    0.012728
    0.013044    0.013916    0.014143    0.015920    0.016218    0.017508
 Highest eigenvalues
    2.013639    2.031487    2.157985    2.314639    2.396604    2.416004
 

........................................................................
.............................. CYCLE   21 ..............................
........................................................................
   1    -83.7022859 -0.837023E+02  0.231E-02    0.09       0.0  T
   2    -83.6877056  0.145804E-01  0.349E-01    0.04       1.0  T
   3    -83.7022653 -0.145597E-01  0.254E-02    0.09       1.0  T
   4    -83.7023244 -0.591207E-04  0.115E-02    0.08       1.3  T
   5    -83.7023371 -0.127511E-04  0.431E-03    0.08       3.6  T
   6    -83.7023391 -0.198634E-05  0.572E-04    0.08      27.0  T
   7    -83.7023392 -0.362527E-07  0.144E-04    0.08     107.3  T
   8    -83.7023392 -0.184026E-08  0.700E-05    0.08     220.5  T
     SCC iter.                  ...        0 min,  0.021 sec
     gradient                   ...        0 min,  0.045 sec
 * total energy  :   -82.9395104 Eh     change       -0.1321888E-03 Eh
   gradient norm :     0.0061491 Eh/α   predicted     0.0000000E+00 (-100.00%)
   displ. norm   :     0.0516304 α      lambda       -0.3543377E-04
   maximum displ.:     0.0311661 α      in ANC's #1, #5, #2, ...

........................................................................
.............................. CYCLE   22 ..............................
........................................................................
   1    -83.7030902 -0.837031E+02  0.404E-02    0.09       0.0  T
   2    -83.6280354  0.750549E-01  0.789E-01    0.03       1.0  T
   3    -83.7032933 -0.752579E-01  0.244E-03    0.08       6.3  T
   4    -83.7032898  0.344243E-05  0.611E-03    0.08       2.5  T
   5    -83.7032900 -0.197744E-06  0.577E-03    0.08       2.7  T
   6    -83.7032933 -0.329587E-05  0.205E-03    0.08       7.5  T
   7    -83.7032938 -0.500914E-06  0.209E-04    0.08      74.0  T
   8    -83.7032938 -0.431082E-08  0.759E-05    0.08     203.3  T
   9    -83.7032938 -0.300929E-09  0.570E-05    0.08     270.7  T
     SCC iter.                  ...        0 min,  0.023 sec
     gradient                   ...        0 min,  0.044 sec
 * total energy  :   -82.9395684 Eh     change       -0.5804686E-04 Eh
   gradient norm :     0.0030313 Eh/α   predicted    -0.3546920E-04 ( -38.90%)
   displ. norm   :     0.1445513 α      lambda       -0.1157297E-03
   maximum displ.:     0.0855749 α      in ANC's #1, #5, #2, ...

........................................................................
.............................. CYCLE   23 ..............................
........................................................................
   1    -83.7035180 -0.837035E+02  0.800E-02    0.10       0.0  T
   2    -83.4625998  0.240918E+00  0.141E+00    0.11       1.0  T
   3    -83.7043168 -0.241717E+00  0.444E-03    0.08       3.5  T
   4    -83.7042915  0.253239E-04  0.157E-02    0.08       1.0  T
   5    -83.7043039 -0.123349E-04  0.115E-02    0.08       1.3  T
   6    -83.7043170 -0.131780E-04  0.398E-03    0.08       3.9  T
   7    -83.7043189 -0.184128E-05  0.908E-05    0.08     170.0  T
   8    -83.7043189  0.933539E-09  0.109E-04    0.08     142.2  T
   9    -83.7043189 -0.986745E-09  0.542E-05    0.08     284.5  T
     SCC iter.                  ...        0 min,  0.023 sec
     gradient                   ...        0 min,  0.045 sec
 * total energy  :   -82.9396472 Eh     change       -0.7879817E-04 Eh
   gradient norm :     0.0029321 Eh/α   predicted    -0.5907459E-04 ( -25.03%)
   displ. norm   :     0.1371196 α      lambda       -0.5900091E-04
   maximum displ.:     0.0822438 α      in ANC's #1, #2, #5, ...

........................................................................
.............................. CYCLE   24 ..............................
........................................................................
   1    -83.7041188 -0.837041E+02  0.469E-02    0.09       0.0  T
   2    -83.6015269  0.102592E+00  0.921E-01    0.04       1.0  T
   3    -83.7043901 -0.102863E+00  0.456E-03    0.08       3.4  T
   4    -83.7043866  0.358525E-05  0.774E-03    0.08       2.0  T
   5    -83.7043889 -0.239340E-05  0.603E-03    0.08       2.6  T
   6    -83.7043923 -0.331969E-05  0.273E-03    0.08       5.7  T
   7    -83.7043931 -0.874327E-06  0.310E-04    0.08      49.7  T
   8    -83.7043931 -0.106681E-07  0.557E-05    0.08     277.1  T
   9    -83.7043931  0.311047E-09  0.726E-05    0.08     212.5  T
     SCC iter.                  ...        0 min,  0.023 sec
     gradient                   ...        0 min,  0.044 sec
 * total energy  :   -82.9396956 Eh     change       -0.4834501E-04 Eh
   gradient norm :     0.0043366 Eh/α   predicted    -0.3005551E-04 ( -37.83%)
   displ. norm   :     0.2082975 α      lambda       -0.8484242E-04
   maximum displ.:     0.1216668 α      in ANC's #1, #2, #5, ...

........................................................................
.............................. CYCLE   25 ..............................
........................................................................
   1    -83.7038246 -0.837038E+02  0.356E-02    0.09       0.0  T
   2    -83.6485853  0.552394E-01  0.676E-01    0.02       1.0  T
   3    -83.7039803 -0.553950E-01  0.373E-03    0.08       4.1  T
   4    -83.7039797  0.555072E-06  0.473E-03    0.08       3.3  T
   5    -83.7039808 -0.111162E-05  0.345E-03    0.08       4.5  T
   6    -83.7039819 -0.107628E-05  0.154E-03    0.08      10.0  T
   7    -83.7039822 -0.276704E-06  0.153E-04    0.08     100.9  T
   8    -83.7039822 -0.246547E-08  0.461E-05    0.08     334.7  T
     SCC iter.                  ...        0 min,  0.020 sec
     gradient                   ...        0 min,  0.044 sec
 * total energy  :   -82.9397688 Eh     change       -0.7320841E-04 Eh
   gradient norm :     0.0045682 Eh/α   predicted    -0.4426300E-04 ( -39.54%)
   displ. norm   :     0.3340039 α      lambda       -0.1307791E-03
   maximum displ.:     0.1941922 α      in ANC's #1, #2, #5, ...

........................................................................
.............................. CYCLE   26 ..............................
........................................................................
   1    -83.7029201 -0.837029E+02  0.167E-02    0.09       0.0  T
   2    -83.6945939  0.832620E-02  0.263E-01    0.05       1.0  T
   3    -83.7029522 -0.835830E-02  0.279E-03    0.08       5.5  T
   4    -83.7029529 -0.684005E-06  0.827E-04    0.08      18.7  T
   5    -83.7029529  0.156523E-07  0.606E-04    0.08      25.5  T
   6    -83.7029529 -0.275496E-07  0.234E-04    0.08      65.8  T
   7    -83.7029529 -0.554132E-08  0.675E-05    0.08     228.7  T
   8    -83.7029529 -0.458101E-09  0.163E-05    0.08     944.9  T
     SCC iter.                  ...        0 min,  0.020 sec
     gradient                   ...        0 min,  0.045 sec
 * total energy  :   -82.9398795 Eh     change       -0.1106919E-03 Eh
   gradient norm :     0.0043539 Eh/α   predicted    -0.7269184E-04 ( -34.33%)
   displ. norm   :     0.3871356 α      lambda       -0.1421677E-03
   maximum displ.:     0.2281543 α      in ANC's #1, #2, #5, ...

........................................................................
.............................. CYCLE   27 ..............................
........................................................................
   1    -83.7019274 -0.837019E+02  0.136E-02    0.08       0.0  T
   2    -83.6993468  0.258063E-02  0.149E-01    0.12       1.0  T
   3    -83.7019389 -0.259207E-02  0.104E-02    0.09       1.5  T
   4    -83.7019497 -0.108065E-04  0.279E-03    0.08       5.5  T
   5    -83.7019501 -0.378428E-06  0.173E-03    0.08       8.9  T
   6    -83.7019504 -0.299449E-06  0.382E-04    0.08      40.4  T
   7    -83.7019504 -0.159191E-07  0.339E-05    0.08     455.3  T
   8    -83.7019504  0.645599E-10  0.331E-05    0.08     466.4  T
     SCC iter.                  ...        0 min,  0.020 sec
     gradient                   ...        0 min,  0.045 sec
 * total energy  :   -82.9399940 Eh     change       -0.1145609E-03 Eh
   gradient norm :     0.0043268 Eh/α   predicted    -0.8173910E-04 ( -28.65%)
   displ. norm   :     0.3444512 α      lambda       -0.1402159E-03
   maximum displ.:     0.2076476 α      in ANC's #1, #2, #5, ...

........................................................................
.............................. CYCLE   28 ..............................
........................................................................
   1    -83.7019933 -0.837020E+02  0.375E-02    0.08       0.0  T
   2    -83.6921852  0.980803E-02  0.296E-01    0.17       1.0  T
   3    -83.7019913 -0.980610E-02  0.392E-02    0.09       1.0  T
   4    -83.7021441 -0.152725E-03  0.141E-02    0.08       1.1  T
   5    -83.7021659 -0.218297E-04  0.567E-03    0.08       2.7  T
   6    -83.7021693 -0.346079E-05  0.292E-04    0.08      52.8  T
   7    -83.7021693  0.766173E-08  0.310E-04    0.08      49.8  T
   8    -83.7021693 -0.120281E-07  0.306E-05    0.08     503.8  T
   9    -83.7021693 -0.674447E-10  0.102E-05    0.08    1518.4  T
     SCC iter.                  ...        0 min,  0.028 sec
     gradient                   ...        0 min,  0.085 sec
 * total energy  :   -82.9401117 Eh     change       -0.1176785E-03 Eh
   gradient norm :     0.0040289 Eh/α   predicted    -0.7842994E-04 ( -33.35%)
   displ. norm   :     0.4140590 α      lambda       -0.1816178E-03
   maximum displ.:     0.2516569 α      in ANC's #1, #2, #3, ...

........................................................................
.............................. CYCLE   29 ..............................
........................................................................
   1    -83.7025786 -0.837026E+02  0.397E-02    0.08       0.0  T
   2    -83.6922281  0.103505E-01  0.305E-01    0.18       1.0  T
   3    -83.7025644 -0.103363E-01  0.427E-02    0.09       1.0  T
   4    -83.7027313 -0.166840E-03  0.185E-02    0.08       1.0  T
   5    -83.7027717 -0.404400E-04  0.524E-03    0.08       2.9  T
   6    -83.7027746 -0.285377E-05  0.242E-04    0.08      63.8  T
   7    -83.7027745  0.230369E-07  0.459E-04    0.08      33.6  T
   8    -83.7027746 -0.264388E-07  0.174E-05    0.08     885.9  T
   9    -83.7027746  0.598419E-10  0.236E-05    0.08     653.4  T
     SCC iter.                  ...        0 min,  0.032 sec
     gradient                   ...        0 min,  0.082 sec
 * total energy  :   -82.9402750 Eh     change       -0.1633161E-03 Eh
   gradient norm :     0.0048870 Eh/α   predicted    -0.1063794E-03 ( -34.86%)
   displ. norm   :     0.5967155 α      lambda       -0.2873197E-03
   maximum displ.:     0.3620989 α      in ANC's #1, #2, #3, ...

........................................................................
.............................. CYCLE   30 ..............................
........................................................................
   1    -83.7025692 -0.837026E+02  0.252E-02    0.08       0.0  T
   2    -83.6964733  0.609586E-02  0.231E-01    0.14       1.0  T
   3    -83.7026097 -0.613632E-02  0.178E-02    0.09       1.0  T
   4    -83.7026442 -0.345920E-04  0.193E-03    0.08       8.0  T
   5    -83.7026430  0.127548E-05  0.360E-03    0.08       4.3  T
   6    -83.7026442 -0.127470E-05  0.101E-03    0.08      15.3  T
   7    -83.7026444 -0.115478E-06  0.315E-04    0.08      49.0  T
   8    -83.7026444 -0.106600E-07  0.829E-05    0.08     186.0  T
   9    -83.7026444 -0.832983E-09  0.708E-06    0.08    2179.5  T
     SCC iter.                  ...        0 min,  0.032 sec
     gradient                   ...        0 min,  0.084 sec
 * total energy  :   -82.9405299 Eh     change       -0.2548956E-03 Eh
   gradient norm :     0.0075995 Eh/α   predicted    -0.1948130E-03 ( -23.57%)
   displ. norm   :     0.6402784 α      lambda       -0.3286875E-03
   maximum displ.:     0.3868144 α      in ANC's #1, #2, #3, ...

........................................................................
.............................. CYCLE   31 ..............................
........................................................................
   1    -83.7016535 -0.837017E+02  0.296E-02    0.09       0.0  T
   2    -83.6690960  0.325575E-01  0.521E-01    0.02       1.0  T
   3    -83.7017473 -0.326514E-01  0.872E-03    0.08       1.8  T
   4    -83.7017541 -0.677601E-05  0.380E-03    0.08       4.1  T
   5    -83.7017557 -0.154422E-05  0.868E-04    0.08      17.8  T
   6    -83.7017557 -0.305501E-07  0.425E-04    0.08      36.3  T
   7    -83.7017557 -0.210589E-07  0.673E-05    0.08     229.4  T
   8    -83.7017557 -0.211216E-09  0.466E-05    0.08     330.8  T
     SCC iter.                  ...        0 min,  0.031 sec
     gradient                   ...        0 min,  0.084 sec
 * total energy  :   -82.9408153 Eh     change       -0.2853562E-03 Eh
   gradient norm :     0.0100131 Eh/α   predicted    -0.2317244E-03 ( -18.79%)
   displ. norm   :     0.5868413 α      lambda       -0.3642091E-03
   maximum displ.:     0.3546502 α      in ANC's #2, #1, #3, ...

........................................................................
.............................. CYCLE   32 ..............................
........................................................................
   1    -83.7024266 -0.837024E+02  0.878E-02    0.10       0.0  T
   2    -83.4429059  0.259521E+00  0.147E+00    0.12       1.0  T
   3    -83.7032447 -0.260339E+00  0.284E-02    0.09       1.0  T
   4    -83.7033450 -0.100345E-03  0.295E-03    0.08       5.2  T
   5    -83.7033431  0.192878E-05  0.471E-03    0.08       3.3  T
   6    -83.7033450 -0.184997E-05  0.237E-03    0.08       6.5  T
   7    -83.7033456 -0.655064E-06  0.121E-04    0.08     128.0  T
   8    -83.7033456 -0.489678E-09  0.798E-05    0.08     193.4  T
     SCC iter.                  ...        0 min,  0.031 sec
     gradient                   ...        0 min,  0.085 sec
 * total energy  :   -82.9411196 Eh     change       -0.3042735E-03 Eh
   gradient norm :     0.0097602 Eh/α   predicted    -0.2448186E-03 ( -19.54%)
   displ. norm   :     0.6545590 α      lambda       -0.4293748E-03
   maximum displ.:     0.4017922 α      in ANC's #2, #1, #3, ...

........................................................................
.............................. CYCLE   33 ..............................
........................................................................
   1    -83.6997957 -0.836998E+02  0.123E-01    0.11       0.0  T
   2    -83.3924768  0.307319E+00  0.161E+00    0.14       1.0  T
   3    -83.7014529 -0.308976E+00  0.305E-02    0.09       1.0  T
   4    -83.7015578 -0.104854E-03  0.997E-03    0.08       1.5  T
   5    -83.7015681 -0.103490E-04  0.162E-03    0.08       9.5  T
   6    -83.7015680  0.865834E-07  0.136E-03    0.08      11.3  T
   7    -83.7015682 -0.150981E-06  0.446E-04    0.08      34.6  T
   8    -83.7015682 -0.230553E-07  0.470E-05    0.08     328.0  T
   9    -83.7015682 -0.156575E-09  0.198E-05    0.08     780.9  T
     SCC iter.                  ...        0 min,  0.034 sec
     gradient                   ...        0 min,  0.085 sec
 * total energy  :   -82.9414497 Eh     change       -0.3301378E-03 Eh
   gradient norm :     0.0080001 Eh/α   predicted    -0.3066713E-03 (  -7.11%)
   displ. norm   :     0.5097742 α      lambda       -0.5077187E-03
   maximum displ.:     0.3384643 α      in ANC's #2, #1, #3, ...

........................................................................
.............................. CYCLE   34 ..............................
........................................................................
   1    -83.7061716 -0.837062E+02  0.181E-01    0.13       0.0  T
   2    -83.3872483  0.318923E+00  0.166E+00    0.13       1.0  T
   3    -83.7099503 -0.322702E+00  0.168E-02    0.09       1.0  T
   4    -83.7099020  0.483531E-04  0.259E-02    0.08       1.0  T
   5    -83.7099712 -0.691770E-04  0.704E-03    0.09       2.2  T
   6    -83.7099730 -0.187181E-05  0.573E-03    0.09       2.7  T
   7    -83.7099765 -0.349903E-05  0.812E-04    0.09      19.0  T
   8    -83.7099766 -0.771360E-07  0.124E-04    0.09     124.7  T
   9    -83.7099766 -0.138347E-08  0.533E-05    0.09     289.3  T
     SCC iter.                  ...        0 min,  0.033 sec
     gradient                   ...        0 min,  0.085 sec
 * total energy  :   -82.9416886 Eh     change       -0.2389278E-03 Eh
   gradient norm :     0.0096426 Eh/α   predicted    -0.3198338E-03 (  33.86%)
   displ. norm   :     0.6537667 α      lambda       -0.3961331E-03
   maximum displ.:     0.4037480 α      in ANC's #2, #1, #3, ...

........................................................................
.............................. CYCLE   35 ..............................
........................................................................
   1    -83.7001259 -0.837001E+02  0.518E-02    0.10       0.0  T
   2    -83.5831689  0.116957E+00  0.983E-01    0.04       1.0  T
   3    -83.7004440 -0.117275E+00  0.123E-02    0.08       1.3  T
   4    -83.7004372  0.675744E-05  0.130E-02    0.08       1.2  T
   5    -83.7004424 -0.518547E-05  0.101E-02    0.08       1.5  T
   6    -83.7004524 -0.100044E-04  0.366E-03    0.09       4.2  T
   7    -83.7004539 -0.151313E-05  0.911E-04    0.09      16.9  T
   8    -83.7004540 -0.100321E-06  0.336E-05    0.09     459.1  T
   9    -83.7004540  0.442697E-09  0.619E-05    0.09     249.5  T
     SCC iter.                  ...        0 min,  0.033 sec
     gradient                   ...        0 min,  0.085 sec
 * total energy  :   -82.9419482 Eh     change       -0.2595197E-03 Eh
   gradient norm :     0.0108297 Eh/α   predicted    -0.2827231E-03 (   8.94%)
   displ. norm   :     0.3242555 α      lambda       -0.2755194E-03
   maximum displ.:     0.2233232 α      in ANC's #2, #1, #3, ...

........................................................................
.............................. CYCLE   36 ..............................
........................................................................
   1    -83.7001156 -0.837001E+02  0.317E-02    0.08       0.0  T
   2    -83.6932552  0.686044E-02  0.247E-01    0.16       1.0  T
   3    -83.7001434 -0.688819E-02  0.293E-02    0.09       1.0  T
   4    -83.7002376 -0.942308E-04  0.342E-03    0.09       4.5  T
   5    -83.7002164  0.212152E-04  0.137E-02    0.09       1.1  T
   6    -83.7002367 -0.203407E-04  0.371E-03    0.09       4.2  T
   7    -83.7002384 -0.168989E-05  0.105E-04    0.09     146.3  T
   8    -83.7002384 -0.403816E-09  0.658E-05    0.09     234.4  T
   9    -83.7002384 -0.422133E-09  0.214E-05    0.09     721.9  T
     SCC iter.                  ...        0 min,  0.033 sec
     gradient                   ...        0 min,  0.085 sec
 * total energy  :   -82.9421495 Eh     change       -0.2013657E-03 Eh
   gradient norm :     0.0078995 Eh/α   predicted    -0.1522444E-03 ( -24.39%)
   displ. norm   :     0.4246396 α      lambda       -0.3431389E-03
   maximum displ.:     0.3127575 α      in ANC's #2, #1, #3, ...

........................................................................
.............................. CYCLE   37 ..............................
........................................................................
   1    -83.7029163 -0.837029E+02  0.836E-03    0.08       0.0  T
   2    -83.7023748  0.541498E-03  0.690E-02    0.10       1.0  T
   3    -83.7029053 -0.530511E-03  0.131E-02    0.09       1.2  T
   4    -83.7029100 -0.468610E-05  0.108E-02    0.09       1.4  T
   5    -83.7029219 -0.119212E-04  0.128E-03    0.09      12.0  T
   6    -83.7029220 -0.122201E-06  0.402E-04    0.09      38.4  T
   7    -83.7029220 -0.141498E-07  0.145E-04    0.09     106.7  T
   8    -83.7029220 -0.218284E-08  0.184E-05    0.09     838.1  T
     SCC iter.                  ...        0 min,  0.029 sec
     gradient                   ...        0 min,  0.085 sec
 * total energy  :   -82.9424486 Eh     change       -0.2990347E-03 Eh
   gradient norm :     0.0065298 Eh/α   predicted    -0.2025099E-03 ( -32.28%)
   displ. norm   :     0.7323031 α      lambda       -0.5276649E-03
   maximum displ.:     0.5509830 α      in ANC's #2, #1, #3, ...

........................................................................
.............................. CYCLE   38 ..............................
........................................................................
   1    -83.7047525 -0.837048E+02  0.251E-02    0.08       0.0  T
   2    -83.6990228  0.572963E-02  0.226E-01    0.15       1.0  T
   3    -83.7045777 -0.555482E-02  0.486E-02    0.09       1.0  T
   4    -83.7048301 -0.252449E-03  0.817E-03    0.08       1.9  T
   5    -83.7048173  0.127857E-04  0.142E-02    0.09       1.1  T
   6    -83.7048397 -0.223481E-04  0.268E-04    0.09      57.5  T
   7    -83.7048397  0.506485E-08  0.290E-04    0.09      53.2  T
   8    -83.7048397 -0.737549E-08  0.480E-05    0.09     321.2  T
   9    -83.7048397 -0.142691E-09  0.631E-06    0.09    2444.5  T
     SCC iter.                  ...        0 min,  0.033 sec
     gradient                   ...        0 min,  0.085 sec
 * total energy  :   -82.9429133 Eh     change       -0.4647859E-03 Eh
   gradient norm :     0.0064396 Eh/α   predicted    -0.4053228E-03 ( -12.79%)
   displ. norm   :     0.7329885 α      lambda       -0.5248472E-03
   maximum displ.:     0.5763803 α      in ANC's #2, #1, #3, ...

........................................................................
.............................. CYCLE   39 ..............................
........................................................................
   1    -83.7056702 -0.837057E+02  0.457E-02    0.09       0.0  T
   2    -83.6282376  0.774325E-01  0.802E-01    0.02       1.0  T
   3    -83.7057439 -0.775063E-01  0.367E-02    0.09       1.0  T
   4    -83.7058224 -0.784865E-04  0.251E-02    0.09       1.0  T
   5    -83.7058816 -0.591813E-04  0.102E-02    0.09       1.5  T
   6    -83.7058931 -0.115504E-04  0.147E-03    0.09      10.5  T
   7    -83.7058934 -0.231965E-06  0.377E-04    0.09      40.9  T
   8    -83.7058934 -0.150853E-07  0.517E-05    0.09     298.3  T
   9    -83.7058934 -0.126107E-09  0.288E-05    0.09     535.5  T
     SCC iter.                  ...        0 min,  0.033 sec
     gradient                   ...        0 min,  0.085 sec
 * total energy  :   -82.9433863 Eh     change       -0.4729615E-03 Eh
   gradient norm :     0.0092352 Eh/α   predicted    -0.4034211E-03 ( -14.70%)
   displ. norm   :     0.6693916 α      lambda       -0.5584788E-03
   maximum displ.:     0.5468312 α      in ANC's #2, #1, #5, ...

........................................................................
.............................. CYCLE   40 ..............................
........................................................................
   1    -83.7078714 -0.837079E+02  0.145E-02    0.08       0.0  T
   2    -83.7063959  0.147551E-02  0.114E-01    0.11       1.0  T
   3    -83.7078156 -0.141978E-02  0.265E-02    0.09       1.0  T
   4    -83.7078876 -0.719288E-04  0.677E-03    0.09       2.3  T
   5    -83.7078888 -0.123418E-05  0.459E-03    0.09       3.4  T
   6    -83.7078910 -0.220588E-05  0.695E-04    0.09      22.2  T
   7    -83.7078911 -0.499061E-07  0.101E-04    0.09     152.7  T
   8    -83.7078911  0.306588E-08  0.189E-04    0.09      81.5  T
     SCC iter.                  ...        0 min,  0.029 sec
     gradient                   ...        0 min,  0.086 sec
 * total energy  :   -82.9438722 Eh     change       -0.4859177E-03 Eh
   gradient norm :     0.0101766 Eh/α   predicted    -0.4043642E-03 ( -16.78%)
   displ. norm   :     0.6743917 α      lambda       -0.5758176E-03
   maximum displ.:     0.5487931 α      in ANC's #2, #1, #5, ...

........................................................................
.............................. CYCLE   41 ..............................
........................................................................
   1    -83.7061317 -0.837061E+02  0.887E-02    0.11       0.0  T
   2    -83.4417018  0.264430E+00  0.149E+00    0.11       1.0  T
   3    -83.7068710 -0.265169E+00  0.390E-02    0.10       1.0  T
   4    -83.7070272 -0.156118E-03  0.137E-02    0.09       1.1  T
   5    -83.7070486 -0.213833E-04  0.189E-03    0.09       8.1  T
   6    -83.7070477  0.858233E-06  0.308E-03    0.09       5.0  T
   7    -83.7070488 -0.111961E-05  0.362E-04    0.09      42.6  T
   8    -83.7070488 -0.124239E-07  0.155E-04    0.09      99.2  T
   9    -83.7070488 -0.272588E-08  0.260E-05    0.09     594.0  T
     SCC iter.                  ...        0 min,  0.033 sec
     gradient                   ...        0 min,  0.086 sec
 * total energy  :   -82.9443613 Eh     change       -0.4890338E-03 Eh
   gradient norm :     0.0094689 Eh/α   predicted    -0.4188545E-03 ( -14.35%)
   displ. norm   :     0.6416694 α      lambda       -0.5725447E-03
   maximum displ.:     0.5285705 α      in ANC's #2, #5, #1, ...

........................................................................
.............................. CYCLE   42 ..............................
........................................................................
   1    -83.7060074 -0.837060E+02  0.111E-01    0.12       0.0  T
   2    -83.3957801  0.310227E+00  0.161E+00    0.12       1.0  T
   3    -83.7072964 -0.311516E+00  0.359E-02    0.10       1.0  T
   4    -83.7074504 -0.153977E-03  0.673E-03    0.09       2.3  T
   5    -83.7074469  0.353280E-05  0.762E-03    0.09       2.0  T
   6    -83.7074512 -0.434167E-05  0.415E-03    0.09       3.7  T
   7    -83.7074532 -0.196190E-05  0.540E-04    0.09      28.6  T
   8    -83.7074532 -0.313424E-07  0.818E-05    0.09     188.5  T
   9    -83.7074532 -0.507399E-09  0.318E-05    0.09     484.8  T
     SCC iter.                  ...        0 min,  0.033 sec
     gradient                   ...        0 min,  0.086 sec
 * total energy  :   -82.9446805 Eh     change       -0.3192922E-03 Eh
   gradient norm :     0.0108080 Eh/α   predicted    -0.4041444E-03 (  26.58%)
   displ. norm   :     0.1605071 α      lambda       -0.2834135E-03
   maximum displ.:     0.1104173 α      in ANC's #2, #4, #3, ...
 * RMSD in coord.:     1.4574829 α      energy gain  -0.5302337E-02 Eh

generating ANC from model Hessian ...
Using Lindh-Hessian (1995)
 Shifting diagonal of input Hessian by   9.843841676612376E-003
 Lowest  eigenvalues of input Hessian
    0.000000    0.000000    0.000000    0.000000    0.000000    0.000000
    0.010000    0.010258    0.010495    0.010709    0.011515    0.012243
    0.012911    0.014207    0.014460    0.016001    0.016759    0.018497
 Highest eigenvalues
    2.018531    2.031467    2.167253    2.313383    2.394107    2.476620
 

........................................................................
.............................. CYCLE   43 ..............................
........................................................................
   1    -83.7097339 -0.837097E+02  0.139E-01    0.13       0.0  T
   2    -83.3810194  0.328714E+00  0.167E+00    0.12       1.0  T
   3    -83.7121380 -0.331119E+00  0.122E-02    0.09       1.3  T
   4    -83.7120693  0.687544E-04  0.266E-02    0.09       1.0  T
   5    -83.7120982 -0.289446E-04  0.198E-02    0.09       1.0  T
   6    -83.7121393 -0.410732E-04  0.470E-03    0.09       3.3  T
   7    -83.7121417 -0.234295E-05  0.269E-04    0.09      57.3  T
   8    -83.7121417 -0.389289E-08  0.988E-05    0.09     156.1  T
   9    -83.7121417 -0.508265E-09  0.551E-05    0.09     279.9  T
     SCC iter.                  ...        0 min,  0.039 sec
     gradient                   ...        0 min,  0.086 sec
 * total energy  :   -82.9447538 Eh     change       -0.7322366E-04 Eh
   gradient norm :     0.0102774 Eh/α   predicted     0.0000000E+00 (-100.00%)
   displ. norm   :     0.0720907 α      lambda       -0.1862179E-03
   maximum displ.:     0.0370884 α      in ANC's #3, #10, #21, ...

........................................................................
.............................. CYCLE   44 ..............................
........................................................................
   1    -83.7096651 -0.837097E+02  0.178E-02    0.09       0.0  T
   2    -83.7073278  0.233735E-02  0.143E-01    0.13       1.0  T
   3    -83.7096967 -0.236890E-02  0.598E-03    0.09       2.6  T
   4    -83.7096984 -0.177354E-05  0.326E-03    0.09       4.7  T
   5    -83.7096991 -0.615928E-06  0.584E-04    0.09      26.4  T
   6    -83.7096991 -0.143042E-07  0.960E-05    0.09     160.8  T
   7    -83.7096991 -0.537909E-09  0.403E-05    0.09     382.4  T
     SCC iter.                  ...        0 min,  0.026 sec
     gradient                   ...        0 min,  0.086 sec
 * total energy  :   -82.9449031 Eh     change       -0.1493484E-03 Eh
   gradient norm :     0.0033588 Eh/α   predicted    -0.1017521E-03 ( -31.87%)
   displ. norm   :     0.1390129 α      lambda       -0.1663407E-03
   maximum displ.:     0.0781460 α      in ANC's #3, #10, #21, ...

........................................................................
.............................. CYCLE   45 ..............................
........................................................................
   1    -83.7076468 -0.837076E+02  0.113E-02    0.09       0.0  T
   2    -83.7067574  0.889415E-03  0.879E-02    0.11       1.0  T
   3    -83.7076567 -0.899298E-03  0.411E-03    0.09       3.8  T
   4    -83.7076565  0.192324E-06  0.391E-03    0.09       3.9  T
   5    -83.7076578 -0.131103E-05  0.605E-04    0.09      25.5  T
   6    -83.7076578 -0.322980E-07  0.131E-04    0.09     117.9  T
   7    -83.7076578  0.106078E-08  0.165E-04    0.09      93.8  T
     SCC iter.                  ...        0 min,  0.028 sec
     gradient                   ...        0 min,  0.086 sec
 * total energy  :   -82.9450180 Eh     change       -0.1149048E-03 Eh
   gradient norm :     0.0039227 Eh/α   predicted    -0.8478210E-04 ( -26.22%)
   displ. norm   :     0.1530912 α      lambda       -0.1043115E-03
   maximum displ.:     0.0881988 α      in ANC's #3, #10, #1, ...

........................................................................
.............................. CYCLE   46 ..............................
........................................................................
   1    -83.7070601 -0.837071E+02  0.481E-03    0.09       0.0  T
   2    -83.7070144  0.457054E-04  0.199E-02    0.09       1.0  T
   3    -83.7070567 -0.423251E-04  0.677E-03    0.09       2.3  T
   4    -83.7070616 -0.489031E-05  0.119E-03    0.09      13.0  T
   5    -83.7070616 -0.394958E-07  0.569E-04    0.09      27.1  T
   6    -83.7070616 -0.159317E-07  0.161E-04    0.09      95.6  T
   7    -83.7070617 -0.159537E-08  0.942E-05    0.09     163.8  T
     SCC iter.                  ...        0 min,  0.031 sec
     gradient                   ...        0 min,  0.086 sec
 * total energy  :   -82.9451005 Eh     change       -0.8244426E-04 Eh
   gradient norm :     0.0050049 Eh/α   predicted    -0.5363321E-04 ( -34.95%)
   displ. norm   :     0.2262227 α      lambda       -0.1363066E-03
   maximum displ.:     0.1308615 α      in ANC's #3, #1, #5, ...

........................................................................
.............................. CYCLE   47 ..............................
........................................................................
   1    -83.7072776 -0.837073E+02  0.958E-03    0.09       0.0  T
   2    -83.7060699  0.120768E-02  0.101E-01    0.07       1.0  T
   3    -83.7072874 -0.121753E-02  0.250E-03    0.09       6.2  T
   4    -83.7072875 -0.118037E-06  0.142E-03    0.09      10.9  T
   5    -83.7072876 -0.785471E-07  0.715E-04    0.09      21.6  T
   6    -83.7072876 -0.253018E-07  0.281E-04    0.09      55.0  T
   7    -83.7072876 -0.682977E-08  0.720E-05    0.09     214.4  T
   8    -83.7072876 -0.541590E-09  0.145E-05    0.09    1066.7  T
     SCC iter.                  ...        0 min,  0.034 sec
     gradient                   ...        0 min,  0.086 sec
 * total energy  :   -82.9452076 Eh     change       -0.1070969E-03 Eh
   gradient norm :     0.0043887 Eh/α   predicted    -0.7164163E-04 ( -33.11%)
   displ. norm   :     0.2720679 α      lambda       -0.1468155E-03
   maximum displ.:     0.1600193 α      in ANC's #3, #1, #5, ...

........................................................................
.............................. CYCLE   48 ..............................
........................................................................
   1    -83.7081778 -0.837082E+02  0.101E-02    0.10       0.0  T
   2    -83.7068880  0.128985E-02  0.104E-01    0.07       1.0  T
   3    -83.7081876 -0.129967E-02  0.314E-03    0.09       4.9  T
   4    -83.7081882 -0.508687E-06  0.142E-03    0.09      10.8  T
   5    -83.7081881  0.173117E-07  0.107E-03    0.09      14.4  T
   6    -83.7081882 -0.942726E-07  0.361E-04    0.09      42.8  T
   7    -83.7081882 -0.132948E-07  0.365E-05    0.09     422.4  T
   8    -83.7081882  0.110262E-09  0.360E-05    0.09     429.1  T
     SCC iter.                  ...        0 min,  0.030 sec
     gradient                   ...        0 min,  0.086 sec
 * total energy  :   -82.9453232 Eh     change       -0.1156426E-03 Eh
   gradient norm :     0.0035674 Eh/α   predicted    -0.7884288E-04 ( -31.82%)
   displ. norm   :     0.3024006 α      lambda       -0.1531187E-03
   maximum displ.:     0.1814305 α      in ANC's #3, #1, #5, ...

........................................................................
.............................. CYCLE   49 ..............................
........................................................................
   1    -83.7092055 -0.837092E+02  0.683E-03    0.09       0.0  T
   2    -83.7089684  0.237147E-03  0.450E-02    0.08       1.0  T
   3    -83.7092015 -0.233175E-03  0.775E-03    0.10       2.0  T
   4    -83.7092082 -0.664195E-05  0.139E-03    0.09      11.1  T
   5    -83.7092082  0.130696E-07  0.102E-03    0.09      15.1  T
   6    -83.7092083 -0.107828E-06  0.136E-04    0.09     113.1  T
   7    -83.7092083 -0.810175E-09  0.509E-05    0.09     303.2  T
     SCC iter.                  ...        0 min,  0.028 sec
     gradient                   ...        0 min,  0.086 sec
 * total energy  :   -82.9454461 Eh     change       -0.1228739E-03 Eh
   gradient norm :     0.0038835 Eh/α   predicted    -0.8356988E-04 ( -31.99%)
   displ. norm   :     0.3449593 α      lambda       -0.1671390E-03
   maximum displ.:     0.2095509 α      in ANC's #3, #1, #5, ...

........................................................................
.............................. CYCLE   50 ..............................
........................................................................
   1    -83.7098194 -0.837098E+02  0.660E-03    0.09       0.0  T
   2    -83.7096491  0.170322E-03  0.382E-02    0.10       1.0  T
   3    -83.7098211 -0.172003E-03  0.339E-03    0.09       4.5  T
   4    -83.7098208  0.264893E-06  0.293E-03    0.09       5.3  T
   5    -83.7098218 -0.933298E-06  0.291E-04    0.09      53.1  T
   6    -83.7098218  0.446448E-09  0.162E-04    0.09      95.2  T
   7    -83.7098218 -0.180320E-08  0.681E-05    0.09     226.7  T
     SCC iter.                  ...        0 min,  0.026 sec
     gradient                   ...        0 min,  0.086 sec
 * total energy  :   -82.9455800 Eh     change       -0.1339476E-03 Eh
   gradient norm :     0.0043654 Eh/α   predicted    -0.9351453E-04 ( -30.19%)
   displ. norm   :     0.3787194 α      lambda       -0.1670107E-03
   maximum displ.:     0.2348847 α      in ANC's #3, #1, #17, ...

........................................................................
.............................. CYCLE   51 ..............................
........................................................................
   1    -83.7095162 -0.837095E+02  0.116E-02    0.09       0.0  T
   2    -83.7083916  0.112460E-02  0.983E-02    0.12       1.0  T
   3    -83.7095174 -0.112578E-02  0.109E-02    0.10       1.4  T
   4    -83.7095297 -0.122807E-04  0.330E-03    0.09       4.7  T
   5    -83.7095308 -0.112456E-05  0.583E-04    0.09      26.5  T
   6    -83.7095308 -0.244242E-07  0.247E-04    0.09      62.4  T
   7    -83.7095308 -0.257887E-08  0.145E-04    0.09     106.1  T
   8    -83.7095308 -0.137854E-08  0.912E-05    0.09     169.2  T
     SCC iter.                  ...        0 min,  0.034 sec
     gradient                   ...        0 min,  0.086 sec
 * total energy  :   -82.9457075 Eh     change       -0.1274309E-03 Eh
   gradient norm :     0.0044110 Eh/α   predicted    -0.9548340E-04 ( -25.07%)
   displ. norm   :     0.3255930 α      lambda       -0.1377553E-03
   maximum displ.:     0.2066540 α      in ANC's #3, #1, #8, ...

........................................................................
.............................. CYCLE   52 ..............................
........................................................................
   1    -83.7097122 -0.837097E+02  0.123E-02    0.09       0.0  T
   2    -83.7084744  0.123775E-02  0.103E-01    0.12       1.0  T
   3    -83.7097215 -0.124706E-02  0.821E-03    0.10       1.9  T
   4    -83.7097285 -0.702672E-05  0.248E-03    0.09       6.2  T
   5    -83.7097289 -0.391607E-06  0.112E-03    0.09      13.7  T
   6    -83.7097290 -0.117028E-06  0.264E-04    0.09      58.4  T
   7    -83.7097290 -0.153348E-08  0.200E-04    0.09      77.0  T
   8    -83.7097290 -0.377881E-08  0.755E-05    0.09     204.3  T
   9    -83.7097290 -0.674177E-09  0.844E-06    0.09    1827.8  T
     SCC iter.                  ...        0 min,  0.031 sec
     gradient                   ...        0 min,  0.086 sec
 * total energy  :   -82.9458105 Eh     change       -0.1030499E-03 Eh
   gradient norm :     0.0036677 Eh/α   predicted    -0.7618351E-04 ( -26.07%)
   displ. norm   :     0.3617408 α      lambda       -0.1156219E-03
   maximum displ.:     0.2344544 α      in ANC's #3, #1, #8, ...

........................................................................
.............................. CYCLE   53 ..............................
........................................................................
   1    -83.7074242 -0.837074E+02  0.133E-02    0.09       0.0  T
   2    -83.7059124  0.151177E-02  0.114E-01    0.12       1.0  T
   3    -83.7074254 -0.151294E-02  0.130E-02    0.10       1.2  T
   4    -83.7074437 -0.182965E-04  0.289E-03    0.09       5.3  T
   5    -83.7074445 -0.786730E-06  0.506E-04    0.09      30.5  T
   6    -83.7074444  0.380514E-07  0.606E-04    0.09      25.5  T
   7    -83.7074445 -0.330877E-07  0.260E-04    0.09      59.3  T
   8    -83.7074445 -0.622877E-08  0.121E-04    0.09     127.1  T
   9    -83.7074445 -0.174225E-08  0.303E-06    0.09    5088.1  T
     SCC iter.                  ...        0 min,  0.030 sec
     gradient                   ...        0 min,  0.085 sec
 * total energy  :   -82.9458877 Eh     change       -0.7719894E-04 Eh
   gradient norm :     0.0049891 Eh/α   predicted    -0.6537619E-04 ( -15.31%)
   displ. norm   :     0.2713600 α      lambda       -0.1472947E-03
   maximum displ.:     0.1726118 α      in ANC's #3, #1, #8, ...

........................................................................
.............................. CYCLE   54 ..............................
........................................................................
   1    -83.7097917 -0.837098E+02  0.110E-02    0.09       0.0  T
   2    -83.7093248  0.466953E-03  0.630E-02    0.11       1.0  T
   3    -83.7097856 -0.460880E-03  0.119E-02    0.09       1.3  T
   4    -83.7097983 -0.126381E-04  0.446E-03    0.09       3.5  T
   5    -83.7097983 -0.273275E-07  0.382E-03    0.09       4.0  T
   6    -83.7097999 -0.157602E-05  0.147E-04    0.09     104.8  T
   7    -83.7097999 -0.494794E-09  0.649E-05    0.09     237.7  T
   8    -83.7097999 -0.157257E-09  0.393E-05    0.09     392.8  T
     SCC iter.                  ...        0 min,  0.027 sec
     gradient                   ...        0 min,  0.073 sec
 * total energy  :   -82.9459542 Eh     change       -0.6649874E-04 Eh
   gradient norm :     0.0044741 Eh/α   predicted    -0.7907844E-04 (  18.92%)
   displ. norm   :     0.2665601 α      lambda       -0.8698363E-04
   maximum displ.:     0.1775177 α      in ANC's #3, #1, #8, ...

........................................................................
.............................. CYCLE   55 ..............................
........................................................................
   1    -83.7078786 -0.837079E+02  0.176E-02    0.09       0.0  T
[...]
N11-C8-C7=106.51               N11-C8-C9=109.45               N11-C8-C10=110.28              H29-C9-C8=110.41               
H30-C9-C8=108.93               H30-C9-H29=109.35              H31-C9-C8=109.90               H31-C9-H29=109.10              
H31-C9-H30=109.12              H32-C10-C8=110.72              H33-C10-C8=110.07              H33-C10-H32=109.22             
H34-C10-C8=108.59              H34-C10-H32=109.18             H34-C10-H33=109.03             
 
 selected dihedral angles (degree)
 ---------------------------------
C3-O2-C1-H26= 57.59           C3-O2-C1-H27=297.15           C3-O2-C1-H28=177.44           O4-C3-O2-C1=359.64            
C5-C3-O2-C1=180.07            N6-C5-C3-O2=177.49            N6-C5-C3-O4=357.92            C24-C5-C3-O2=358.05           
C24-C5-C3-O4=178.48           C7-N6-C5-C3=181.09            C7-N6-C5-C24=  0.57           C8-C7-N6-C5=179.21            
N21-C7-N6-C5=359.82           C9-C8-C7-N6=117.62            C9-C8-C7-N21=297.08           C10-C8-C7-N6=240.07           
C10-C8-C7-N21= 59.53          N11-C8-C7-N6=359.23           N11-C8-C7-N21=178.70          H29-C9-C8-C7=177.13           
H29-C9-C8-C10= 55.87          H29-C9-C8-N11=293.68          H30-C9-C8-C7= 57.04           H30-C9-C8-C10=295.78          
H30-C9-C8-N11=173.59          H31-C9-C8-C7=297.54           H31-C9-C8-C10=176.28          H31-C9-C8-N11= 54.08          
H32-C10-C8-C7=184.00          H32-C10-C8-C9=305.48          H32-C10-C8-N11= 67.20         H33-C10-C8-C7= 63.14          
H33-C10-C8-C9=184.62          H33-C10-C8-N11=306.34         H34-C10-C8-C7=303.86          H34-C10-C8-C9= 65.33          
H34-C10-C8-N11=187.05         
           -------------------------------------------------
          |                Final Singlepoint                |
           -------------------------------------------------

          ...................................................
          :                      SETUP                      :
          :.................................................:
          :  # basis functions                 134          :
          :  # atomic orbitals                 134          :
          :  # shells                           84          :
          :  # electrons                       134          :
          :  # halogen bonds                     0          :
          :  max. iterations                   250          :
          :  Hamiltonian                  GFN1-xTB          :
          :  restarted?                      false          :
          :  GBSA solvation                   true          :
          :  PC potential                    false          :
          :  electronic temp.          300.0000000     K    :
          :  accuracy                    1.0000000          :
          :  -> integral cutoff          0.2500000E+02      :
          :  -> integral neglect         0.1000000E-07      :
          :  -> SCF convergence          0.1000000E-05 Eh   :
          :  -> wf. convergence          0.2000000E-04 e    :
          :  Broyden damping             0.4000000          :
          ...................................................

 iter      E             dE          RMSdq      gap      omega  full diag
   1    -83.7106065 -0.837106E+02  0.637E-06    0.09       0.0  T
   2    -83.7106065  0.559979E-09  0.689E-05    0.09     224.1  T
   3    -83.7106065 -0.564256E-09  0.125E-06    0.09   12317.1  T

   *** convergence criteria satisfied after 3 iterations ***

         #    Occupation            Energy/Eh            Energy/eV
      -------------------------------------------------------------
         1        2.0000           -0.8981761             -24.4406
       ...           ...                  ...                  ...
        61        2.0000           -0.4751341             -12.9291
        62        2.0000           -0.4692905             -12.7700
        63        2.0000           -0.4681540             -12.7391
        64        2.0000           -0.4495869             -12.2339
        65        2.0000           -0.4377757             -11.9125
        66        1.9944           -0.4056411             -11.0381
        67        1.7185           -0.4017752             -10.9329 (HOMO)
        68        0.2871           -0.3983593             -10.8399 (LUMO)
        69                         -0.3033983              -8.2559
        70                         -0.2985785              -8.1247
        71                         -0.2740042              -7.4560
        72                         -0.2607276              -7.0948
       ...                                ...                  ...
       134                          0.7242410              19.7076
      -------------------------------------------------------------
                  HL-Gap            0.0034159 Eh            0.0930 eV
             Fermi-level           -0.4000564 Eh          -10.8861 eV

 SCC (total)                   0 d,  0 h,  0 min,  0.134 sec
 SCC setup                      ...        0 min,  0.002 sec (  1.342%)
 Dispersion                     ...        0 min,  0.000 sec (  0.242%)
 classical contributions        ...        0 min,  0.000 sec (  0.077%)
 integral evaluation            ...        0 min,  0.036 sec ( 26.705%)
 iterations                     ...        0 min,  0.011 sec (  7.990%)
 molecular gradient             ...        0 min,  0.085 sec ( 63.028%)
 printout                       ...        0 min,  0.001 sec (  0.589%)

         :::::::::::::::::::::::::::::::::::::::::::::::::::::
         ::                     SUMMARY                     ::
         :::::::::::::::::::::::::::::::::::::::::::::::::::::
         :: total energy             -82.946716910318 Eh    ::
         :: total w/o Gsasa/hb       -82.924496260680 Eh    ::
         :: gradient norm              0.000641366753 Eh/a0 ::
         :: HOMO-LUMO gap              0.092951419795 eV    ::
         ::.................................................::
         :: SCC energy               -83.710606549626 Eh    ::
         :: -> electrostatic           0.359885706189 Eh    ::
         :: -> Gsolv                  -0.052589875854 Eh    ::
         ::    -> Gelec               -0.030369226216 Eh    ::
         ::    -> Gsasa               -0.023334059097 Eh    ::
         ::    -> Ghb                 -0.006510869546 Eh    ::
         ::    -> Gshift               0.007624279005 Eh    ::
         :: repulsion energy           0.791609504251 Eh    ::
         :: dispersion energy         -0.027719864944 Eh    ::
         :: halogen bond corr.         0.000000000000 Eh    ::
         :: add. restraining           0.000000000000 Eh    ::
         :: total charge               0.000000000000 e     ::
         :::::::::::::::::::::::::::::::::::::::::::::::::::::

           -------------------------------------------------
          |                Property Printout                |
           -------------------------------------------------

    * Orbital Energies and Occupations

         #    Occupation            Energy/Eh            Energy/eV
      -------------------------------------------------------------
         1        2.0000           -0.8981761             -24.4406
       ...           ...                  ...                  ...
        55        2.0000           -0.5083957             -13.8342
        56        2.0000           -0.5012773             -13.6405
        57        2.0000           -0.4987355             -13.5713
        58        2.0000           -0.4941136             -13.4455
        59        2.0000           -0.4875090             -13.2658
        60        2.0000           -0.4787891             -13.0285
        61        2.0000           -0.4751341             -12.9291
        62        2.0000           -0.4692905             -12.7700
        63        2.0000           -0.4681540             -12.7391
        64        2.0000           -0.4495869             -12.2339
        65        2.0000           -0.4377757             -11.9125
        66        1.9944           -0.4056411             -11.0381
        67        1.7185           -0.4017752             -10.9329 (HOMO)
        68        0.2871           -0.3983593             -10.8399 (LUMO)
        69                         -0.3033983              -8.2559
        70                         -0.2985785              -8.1247
        71                         -0.2740042              -7.4560
        72                         -0.2607276              -7.0948
        73                         -0.2178103              -5.9269
        74                         -0.1493784              -4.0648
        75                         -0.1418306              -3.8594
        76                         -0.1365342              -3.7153
        77                         -0.1360312              -3.7016
        78                         -0.1215255              -3.3069
       ...                                ...                  ...
       134                          0.7242410              19.7076
      -------------------------------------------------------------
                  HL-Gap            0.0034159 Eh            0.0930 eV
             Fermi-level           -0.4000564 Eh          -10.8861 eV

  Mulliken/CM5 charges         n(s)   n(p)   n(d)
     1C     0.16351  0.04286   0.979  2.857  0.000
     2O    -0.40805 -0.49230   1.684  4.724  0.000
     3C     0.57194  0.63835   0.973  2.455  0.000
     4O    -0.57895 -0.63302   1.725  4.854  0.000
     5C     0.08159  0.16061   1.038  2.881  0.000
     6N    -0.40656 -0.59508   1.542  3.865  0.000
     7C     0.28799  0.44433   1.016  2.696  0.000
     8C     0.15133  0.19217   1.069  2.780  0.000
     9C    -0.10231 -0.24115   1.019  3.084  0.000
    10C    -0.10029 -0.23891   1.018  3.083  0.000
    11N    -0.30664 -0.65902   1.430  3.877  0.000
    12C     0.49276  0.60929   0.982  2.525  0.000
    13O    -0.52584 -0.57659   1.725  4.801  0.000
    14C     0.31858  0.40665   1.053  2.628  0.000
    15C    -0.08524 -0.22180   1.022  3.063  0.000
    16N    -0.14878 -0.24440   1.584  3.565  0.000
    17N    -0.17785 -0.27813   1.550  3.628  0.000
    18C     0.44763  0.54787   1.040  2.513  0.000
    19C    -0.10816 -0.24488   1.018  3.090  0.000
    20O    -0.34240 -0.40376   1.690  4.652  0.000
    21N    -0.43714 -0.61491   1.543  3.894  0.000
    22C     0.44141  0.54816   0.989  2.569  0.000
    23O    -0.61065 -0.65473   1.739  4.872  0.000
    24C     0.22635  0.26042   1.041  2.733  0.000
    25O    -0.50467 -0.69440   1.702  4.803  0.000
    26H     0.05035  0.11241   0.950  0.000  0.000
    27H     0.05075  0.11235   0.949  0.000  0.000
    28H     0.05335  0.11369   0.947  0.000  0.000
    29H     0.05251  0.11084   0.947  0.000  0.000
    30H     0.05165  0.10885   0.948  0.000  0.000
    31H     0.04478  0.10177   0.955  0.000  0.000
    32H     0.05292  0.11231   0.947  0.000  0.000
    33H     0.04174  0.09875   0.958  0.000  0.000
    34H     0.05028  0.10810   0.950  0.000  0.000
    35H     0.25778  0.47925   0.742  0.000  0.000
    36H     0.07459  0.13204   0.925  0.000  0.000
    37H     0.08013  0.13791   0.920  0.000  0.000
    38H     0.07847  0.13741   0.922  0.000  0.000
    39H     0.09925  0.15482   0.901  0.000  0.000
    40H     0.12623  0.19062   0.874  0.000  0.000
    41H     0.09144  0.14752   0.909  0.000  0.000
    42H     0.40421  0.58371   0.596  0.000  0.000

Wiberg/Mayer (AO) data.
largest (>0.10) Wiberg bond orders for each atom

 ---------------------------------------------------------------------------
     #   Z sym  total        # sym  WBO       # sym  WBO       # sym  WBO
 ---------------------------------------------------------------------------
     1   6 C    3.874 --    28 H    0.986    26 H    0.980    27 H    0.979
                             2 O    0.899
     2   8 O    2.206 --     3 C    1.119     1 C    0.899     4 O    0.128
     3   6 C    3.839 --     4 O    1.616     2 O    1.119     5 C    1.013
     4   8 O    1.916 --     3 C    1.616     2 O    0.128
     5   6 C    3.931 --    24 C    1.429     6 N    1.241     3 C    1.013
     6   7 N    2.940 --     7 C    1.398     5 C    1.241
     7   6 C    3.934 --    21 N    1.416     6 N    1.398     8 C    0.972
     8   6 C    3.911 --    10 C    0.986     9 C    0.983     7 C    0.972
                            11 N    0.893
     9   6 C    3.989 --    31 H    0.985     8 C    0.983    29 H    0.983
                            30 H    0.982
    10   6 C    3.989 --     8 C    0.986    33 H    0.986    34 H    0.982
                            32 H    0.981
    11   7 N    3.404 --    12 C    1.382     8 C    0.893    35 H    0.863
                            13 O    0.186
    12   6 C    3.883 --    13 O    1.623    11 N    1.382    14 C    0.756
    13   8 O    1.991 --    12 C    1.623    11 N    0.186
    14   6 C    3.836 --    16 N    1.082    15 C    0.946    20 O    0.907
                            12 C    0.756
    15   6 C    3.948 --    36 H    0.980    37 H    0.979    38 H    0.978
                            14 C    0.946
    16   7 N    2.808 --    17 N    1.530    14 C    1.082
    17   7 N    2.975 --    16 N    1.530    18 C    1.286
    18   6 C    3.731 --    17 N    1.286    20 O    1.209    19 C    1.068
    19   6 C    3.966 --    18 C    1.068    41 H    0.975    39 H    0.952
                            40 H    0.902
    20   8 O    2.282 --    18 C    1.209    14 C    0.907
    21   7 N    2.935 --     7 C    1.416    22 C    1.206
    22   6 C    3.894 --    23 O    1.524    21 N    1.206    24 C    1.044
    23   8 O    1.786 --    22 C    1.524
    24   6 C    3.807 --     5 C    1.429    25 O    1.117    22 C    1.044
    25   8 O    2.055 --    24 C    1.117    42 H    0.802
    26   1 H    1.008 --     1 C    0.980
    27   1 H    1.007 --     1 C    0.979
    28   1 H    1.011 --     1 C    0.986
    29   1 H    1.004 --     9 C    0.983
    30   1 H    1.008 --     9 C    0.982
    31   1 H    1.002 --     9 C    0.985
    32   1 H    1.007 --    10 C    0.981
    33   1 H    1.002 --    10 C    0.986
    34   1 H    1.010 --    10 C    0.982
    35   1 H    0.961 --    11 N    0.863
    36   1 H    0.995 --    15 C    0.980
    37   1 H    0.998 --    15 C    0.979
    38   1 H    1.001 --    15 C    0.978
    39   1 H    0.986 --    19 C    0.952
    40   1 H    0.996 --    19 C    0.902
    41   1 H    0.991 --    19 C    0.975
    42   1 H    0.857 --    25 O    0.802
 ---------------------------------------------------------------------------

Topologies differ in total number of bonds
Writing topology from bond orders to xtbtopo.mol

 dipole moment from electron density (au)
     X       Y       Z   
   3.7206   4.0457   0.6793  total (Debye):   14.077

           -------------------------------------------------
          |                Geometry Summary                 |
           -------------------------------------------------

      molecular mass/u    :      351.3152409
   center of mass at/Å    :       -0.2844539      -0.0487151      -0.1142957
  moments of inertia/u·Å² :        0.1579907E+04   0.2942738E+04   0.4253788E+04
rotational constants/cm⁻¹ :        0.1067002E-01   0.5728554E-02   0.3962970E-02

 * 39 selected distances

     #   Z          #   Z                                           value/Å
     1   6 C        2   8 O                                       1.4290857
     2   8 O        3   6 C                                       1.3303820
     3   6 C        4   8 O                                       1.2174313
     5   6 C        6   7 N                                       1.3596984
     6   7 N        7   6 C                                       1.3237576
     8   6 C        9   6 C                                       1.5321663 (max)
     8   6 C       10   6 C                                       1.5316607
     8   6 C       11   7 N                                       1.4713350
    11   7 N       12   6 C                                       1.3116717
    12   6 C       13   8 O                                       1.2082914
    14   6 C       15   6 C                                       1.5209604
    14   6 C       16   7 N                                       1.4149144
    16   7 N       17   7 N                                       1.2852163
    17   7 N       18   6 C                                       1.3487272
    18   6 C       19   6 C                                       1.4618250
    14   6 C       20   8 O                                       1.4087141
    18   6 C       20   8 O                                       1.3033223
     7   6 C       21   7 N                                       1.3211624
    21   7 N       22   6 C                                       1.3616651
    22   6 C       23   8 O                                       1.2365105
     5   6 C       24   6 C                                       1.3767395
    24   6 C       25   8 O                                       1.3359952
     1   6 C       26   1 H                                       1.0926016
     1   6 C       27   1 H                                       1.0921345
     1   6 C       28   1 H                                       1.0881779
     9   6 C       29   1 H                                       1.0886290
     9   6 C       30   1 H                                       1.0892840
     9   6 C       31   1 H                                       1.0888197
    10   6 C       32   1 H                                       1.0883605
    10   6 C       33   1 H                                       1.0893583
    10   6 C       34   1 H                                       1.0894824
    11   7 N       35   1 H                                       1.0177104
    15   6 C       36   1 H                                       1.0869894
    15   6 C       37   1 H                                       1.0873270
    15   6 C       38   1 H                                       1.0873669
    19   6 C       39   1 H                                       1.0886381
    19   6 C       40   1 H                                       1.0952785
    19   6 C       41   1 H                                       1.0863177
    25   8 O       42   1 H                                       0.9808525 (min)

 * 7 distinct bonds (by element types)

   Z      Z             #   av. dist./Å        max./Å        min./Å
   1 H    6 C          15     1.0892510     1.0952785     1.0863177
   6 C    6 C           5     1.4846704     1.5321663     1.3767395
   1 H    7 N           1     1.0177104     1.0177104     1.0177104
   6 C    7 N           8     1.3641165     1.4713350     1.3116717
   7 N    7 N           1     1.2852163     1.2852163     1.2852163
   1 H    8 O           1     0.9808525     0.9808525     0.9808525
   6 C    8 O           8     1.3087166     1.4290857     1.2082914


optimized geometry written to: xtbopt.xyz


           -------------------------------------------------
          | TOTAL ENERGY              -82.946716910318 Eh   |
          | GRADIENT NORM               0.000641366753 Eh/α |
          | HOMO-LUMO GAP               0.092951419795 eV   |
           -------------------------------------------------

------------------------------------------------------------------------
 * finished run on 2023/06/20 at 18:21:05.724     
------------------------------------------------------------------------
 total:
 * wall-time:     0 d,  0 h,  0 min, 10.084 sec
 *  cpu-time:     0 d,  0 h,  0 min,  9.957 sec
 * ratio c/w:     0.987 speedup
 SCF:
 * wall-time:     0 d,  0 h,  0 min,  0.130 sec
 *  cpu-time:     0 d,  0 h,  0 min,  0.130 sec
 * ratio c/w:     1.000 speedup
 ANC optimizer:
 * wall-time:     0 d,  0 h,  0 min,  9.864 sec
 *  cpu-time:     0 d,  0 h,  0 min,  9.774 sec
 * ratio c/w:     0.991 speedup

