42
 energy: -82.914164030260 gnorm: 0.000744517823 xtb: 6.5.1 (579679a)
C            7.02659847377854        1.70113702223618       -0.65652523011601
O            5.90590050890676        1.45240922016031        0.18189450098511
C            4.85083270384794        0.84177509619382       -0.40911790919411
O            4.88643184530948        0.54087086223611       -1.59608788427989
C            3.71985823946809        0.58753840541343        0.47355247683994
N            2.67706485383732       -0.05059432722223       -0.17188109767001
C            1.60677157979686       -0.35355444959685        0.45804388887884
C            0.47547232691945       -1.07649051024815       -0.23831534078537
C            0.34418312045729       -2.49987378050092        0.31814780975130
C            0.70902101683294       -1.08828142796972       -1.75008019962358
N           -0.76332334359048       -0.31947471281353        0.05861895152067
C           -1.97517684313559       -0.69673937002238       -0.34217369504400
O           -2.27373519508509       -1.68522511825959       -0.98838032743825
C           -3.01851394033080        0.27918950613798        0.11044977186976
N           -2.87606314036402        1.38560789485612        0.73584805972007
N           -4.10946174401862        1.94310162875714        0.93372008060541
C           -4.99825212849723        1.17675520738674        0.42959439473126
C           -6.45920005727826        1.34148668129520        0.39292199882281
O           -4.37324301859435        0.05756469710383       -0.13702810178587
C           -4.95898954290186       -1.10117701768532       -0.81237128953592
N            1.44028397400044       -0.07137830886225        1.80188204364441
C            2.38800636767821        0.56784242815243        2.56531132628482
O            2.16205486039712        0.79173111069945        3.75021933184517
C            3.66576570200248        0.94688972230803        1.84651464036898
O            4.55415681043507        1.53073905525333        2.49051332329765
H            6.74297300670299        2.33248436625851       -1.50433693382782
H            7.77354768670099        2.21137221165054       -0.04932607224736
H            7.43840266289878        0.76188359864654       -1.03914907108692
H            1.28942371330433       -3.02451318486499        0.18335476430380
H            0.10353932797918       -2.46641146471442        1.37896493692767
H           -0.43918207364470       -3.04442713860162       -0.20374146767999
H           -0.08842349178344       -1.63088704359387       -2.25209866522640
H            0.74396774522737       -0.06781134648734       -2.12869043431432
H            1.66210129759011       -1.57346344919580       -1.95789380381549
H           -0.68099864305417        0.54738887558784        0.56953183488420
H           -6.71466356033266        2.27801246329917        0.88572753077412
H           -6.94947778714926        0.51478520359382        0.90715134762501
H           -6.81599358219032        1.36334618708537       -0.63707526219044
H           -4.56275478884787       -1.12212007319459       -1.82527822584509
H           -4.66426841052967       -1.98629552225393       -0.25310760030568
H           -6.03432610894074       -0.95813021407617       -0.80155006654089
H            0.58968857618974       -0.33706498414070        2.26554966487092
