38
 energy: -79.621972076675 gnorm: 0.000890313446 xtb: 6.5.1 (579679a)
C           -6.56869401850696        0.79488513508003        1.21003884439386
O           -5.40717238367931       -0.02097211049366        1.15465809053166
C           -4.34878434264614        0.50339956980235        0.48686111418760
O           -4.42081327951742        1.61818023617285       -0.01740378628801
C           -3.17576824913505       -0.35644112167606        0.43223221617040
N           -2.13077774676919        0.21465038198888       -0.27131543470958
C           -1.02658618259173       -0.41189371023944       -0.42697587466592
C            0.10282767294651        0.19242260099753       -1.23458929989243
C            0.24743575502524       -0.57682983301036       -2.55609350286465
C           -0.17701530737178        1.67649963444700       -1.48907128588007
N            1.33652668802178        0.04912639504802       -0.44428330596368
C            2.54745672195872        0.45227878324031       -0.86973850426955
O            2.79749017883635        0.94956326308093       -1.95496578692834
C            3.58392992982486        0.21120986672896        0.17147643650913
N            3.39132313637193       -0.31978697428253        1.34078304648847
N            4.60281414442374       -0.34472950467607        1.96624194025855
C            5.45615342954493        0.17407813873375        1.13788045035021
C            6.90655791177445        0.38181070384266        1.34084338927991
O            4.87430200684399        0.54471495308700       -0.01260675720926
N           -0.82564939569028       -1.67807742024726        0.09048746595844
C           -1.77026151776420       -2.36089804393130        0.81490946928739
O           -1.51353126311265       -3.48296886873434        1.24358879348615
C           -3.08820510686509       -1.64539769766793        1.02048344664806
O           -3.97994054995888       -2.22220416776658        1.66928570035636
H           -6.93606900826665        1.01419335877525        0.20251663342617
H           -7.32409378749520        0.23934863024665        1.76456659671541
H           -6.35531898553424        1.73971336670970        1.71990801159532
H            0.50368799921117       -1.61589888512006       -2.35686426427532
H            1.02605260175471       -0.13329194222106       -3.17326180219930
H           -0.69640965105416       -0.54191789447699       -3.09844570486350
H            0.60402374145857        2.10830945438578       -2.11121417454738
H           -1.13646064016094        1.77832319044620       -1.99481256216944
H           -0.22064415990881        2.21379083946134       -0.54240221248130
H            1.26469817211987       -0.30785247823196        0.49744132326694
H            7.46758017436485       -0.11815667958835        0.55261645476472
H            7.13877414243268        1.44544961105362        1.29634954509536
H            7.20335696998063       -0.01362211934329        2.30880947177621
H            0.04720319913115       -2.15100966162301       -0.07291518133925
