47
 energy: -79.537001133660 gnorm: 0.000325836569 xtb: 6.5.1 (579679a)
C           -0.52038005323866       -4.43279478284089       -1.76767342054571
O           -0.00893515711804       -3.30886868317670       -1.02905272530145
C           -0.76236687537829       -2.25295646269351       -0.69497465592273
C           -0.17809529719187       -1.22232031136977        0.00676831556733
C            1.21329760440799       -1.19022814344225        0.42370805563840
O            2.07175310915765       -2.13495190584468        0.15251918783110
N            1.61868324739619       -0.16118784004225        1.11391921171639
C            2.98790159182008        0.03172129593473        1.59333225339109
C            3.75877581586589        0.87496320383115        0.60099292807268
C            3.85468962538614        2.25254704510686        0.77911541413070
C            4.54790601452702        3.03184432643419       -0.13617792899922
C            5.13049762181826        2.40523614040247       -1.22361801807551
F            5.79926329575622        3.14997199299151       -2.11222596966953
C            5.04809637180639        1.03936026228938       -1.43122946468931
C            4.35311539214441        0.27406401827268       -0.50647659311382
N           -0.88182797385888       -0.10806549409260        0.35670652347622
C           -2.14404328594296        0.00204290023665        0.06415714536661
C           -2.81426607226582        1.29223402417284        0.51337731402980
C           -1.74207335793533        2.38280000999692        0.67926397342140
C           -3.50109959959582        1.04839461555343        1.86590186392645
N           -3.79840513951959        1.72314716313093       -0.47054624792628
N           -2.81060954408012       -1.00333890164541       -0.57440606694421
C           -4.24895825022441       -0.94547823921354       -0.86885036459480
C           -2.17925263858133       -2.15347197349704       -1.04217739344299
O           -2.80239312005265       -2.99074496433630       -1.67722036190308
H           -0.87698101043932       -4.11427632742220       -2.74845781842460
H           -1.32328731206495       -4.92134341216239       -1.21366747027809
H            0.32450676682302       -5.11110499271569       -1.87850501101553
H            1.66979477123846       -2.88494517459484       -0.33449045469040
H            0.93142689645900        0.56530097751020        1.28796408690685
H            3.44326620448875       -0.95323178116549        1.71411778165727
H            2.92105490576246        0.52855796052589        2.56276843741484
H            3.38587743632239        2.72012508825832        1.63628935645963
H            4.63136846669707        4.10341868712133       -0.01067766695833
H            5.51428870937110        0.58740957371775       -2.29712107508781
H            4.27044221333511       -0.79659563974100       -0.64660035839644
H           -2.22309973783465        3.32195776992395        0.94689278501098
H           -1.03618183583378        2.11026285869312        1.46176332947135
H           -1.19737791827256        2.51613850652669       -0.25376608029124
H           -2.76762223043322        0.70364899004354        2.59314978368803
H           -3.93847781959742        1.98027836361735        2.22086190444388
H           -4.28888508963349        0.30199085637987        1.78069745135402
H           -3.31718082074692        2.04755322616921       -1.29926200796305
H           -4.31932496105706        2.50338237306189       -0.09250586710633
H           -4.76669236170301       -0.40159490531237       -0.08758945570754
H           -4.62661572103584       -1.96614287759417       -0.92308162189743
H           -4.40156987694992       -0.44470641699821       -1.82365700402851
