      -----------------------------------------------------------      
     |                   =====================                   |     
     |                           x T B                           |     
     |                   =====================                   |     
     |                         S. Grimme                         |     
     |          Mulliken Center for Theoretical Chemistry        |     
     |                    University of Bonn                     |     
      -----------------------------------------------------------      

   * xtb version 6.5.1 (579679a) compiled by 'ehlert@majestix' on 2022-07-11

   xtb is free software: you can redistribute it and/or modify it under
   the terms of the GNU Lesser General Public License as published by
   the Free Software Foundation, either version 3 of the License, or
   (at your option) any later version.
   
   xtb is distributed in the hope that it will be useful,
   but WITHOUT ANY WARRANTY; without even the implied warranty of
   MERCHANTABILITY or FITNESS FOR A PARTICULAR PURPOSE.  See the
   GNU Lesser General Public License for more details.
   
   Cite this work as:
   * C. Bannwarth, E. Caldeweyher, S. Ehlert, A. Hansen, P. Pracht,
     J. Seibert, S. Spicher, S. Grimme, WIREs Comput. Mol. Sci., 2020, 11,
     e01493. DOI: 10.1002/wcms.1493
   
   for GFN2-xTB:
   * C. Bannwarth, S. Ehlert and S. Grimme., J. Chem. Theory Comput., 2019,
     15, 1652-1671. DOI: 10.1021/acs.jctc.8b01176
   for GFN1-xTB:
   * S. Grimme, C. Bannwarth, P. Shushkov, J. Chem. Theory Comput., 2017,
     13, 1989-2009. DOI: 10.1021/acs.jctc.7b00118
   for GFN0-xTB:
   * P. Pracht, E. Caldeweyher, S. Ehlert, S. Grimme, ChemRxiv, 2019, preprint.
     DOI: 10.26434/chemrxiv.8326202.v1
   for GFN-FF:
   * S. Spicher and S. Grimme, Angew. Chem. Int. Ed., 2020, 59, 15665-15673.
     DOI: 10.1002/anie.202004239
   
   for ALPB and GBSA implicit solvation:
   * S. Ehlert, M. Stahn, S. Spicher, S. Grimme, J. Chem. Theory Comput.,
     2021, 17, 4250-4261. DOI: 10.1021/acs.jctc.1c00471
   
   for DFT-D4:
   * E. Caldeweyher, C. Bannwarth and S. Grimme, J. Chem. Phys., 2017,
     147, 034112. DOI: 10.1063/1.4993215
   * E. Caldeweyher, S. Ehlert, A. Hansen, H. Neugebauer, S. Spicher,
     C. Bannwarth and S. Grimme, J. Chem. Phys., 2019, 150, 154122.
     DOI: 10.1063/1.5090222
   * E. Caldeweyher, J.-M. Mewes, S. Ehlert and S. Grimme, Phys. Chem. Chem. Phys.
     2020, 22, 8499-8512. DOI: 10.1039/D0CP00502A
   
   for sTDA-xTB:
   * S. Grimme and C. Bannwarth, J. Chem. Phys., 2016, 145, 054103.
     DOI: 10.1063/1.4959605
   
   in the mass-spec context:
   * V. Asgeirsson, C. Bauer and S. Grimme, Chem. Sci., 2017, 8, 4879.
     DOI: 10.1039/c7sc00601b
   * J. Koopman and S. Grimme, ACS Omega 2019, 4, 12, 15120-15133.
     DOI: 10.1021/acsomega.9b02011
   
   for metadynamics refer to:
   * S. Grimme, J. Chem. Theory Comput., 2019, 155, 2847-2862
     DOI: 10.1021/acs.jctc.9b00143
   
   for SPH calculations refer to:
   * S. Spicher and S. Grimme, J. Chem. Theory Comput., 2021, 17, 1701-1714
     DOI: 10.1021/acs.jctc.0c01306
   
   with help from (in alphabetical order)
   P. Atkinson, C. Bannwarth, F. Bohle, G. Brandenburg, E. Caldeweyher
   M. Checinski, S. Dohm, S. Ehlert, S. Ehrlich, I. Gerasimov, C. Hölzer
   A. Katbashev, J. Koopman, C. Lavigne, S. Lehtola, F. März, M. Müller,
   F. Musil, H. Neugebauer, J. Pisarek, C. Plett, P. Pracht, F. Pultar,
   J. Seibert, P. Shushkov, S. Spicher, M. Stahn, M. Steiner, T. Strunk,
   J. Stückrath, T. Rose, and J. Unsleber
   
 * started run on 2023/06/20 at 15:12:57.224     

           -------------------------------------------------
          |                Calculation Setup                |
           -------------------------------------------------

          program call               : /lustre/hpc/kemi/ree/PhD/git/ReactivityQM/dep/xtb-6.5.1/bin/xtb --gfn 1 /lustre/hpc/kemi/ree/PhD/git/ReactivityQM/calculations/R03/reac01prodE02/conf03/R03_reac01prodE02_conf03_gfn1.xyz --opt --vfukui --chrg -1 --uhf 0 --alpb DMSO
          hostname                   : node068
          coordinate file            : /lustre/hpc/kemi/ree/PhD/git/ReactivityQM/calculations/R03/reac01prodE02/conf03/R03_reac01prodE02_conf03_gfn1.xyz
          omp threads                :                     1

   ID    Z sym.   atoms
    1    6 C      1-4, 6-9
    2    9 F      5
    3    7 N      10
    4    1 H      11-21

           -------------------------------------------------
          |                 G F N 1 - x T B                 |
           -------------------------------------------------

        Reference                      10.1021/acs.jctc.7b00118
      * Hamiltonian:
        H0-scaling (s, p, d)           1.850000    2.250000    2.000000
        zeta-weighting                 0.000000
      * Dispersion:
        s8                             2.400000
        a1                             0.630000
        a2                             5.000000
        s9                             0.000000
      * Repulsion:
        kExp                           1.500000
        rExp                           1.000000
      * Coulomb:
        alpha                          2.000000
        third order                    atomic
        anisotropic                    false
      * Halogen bond correction:
        rad-scale                      1.300000
        damping                        0.440000

      * Solvation model:               ALPB
        Solvent                        DMSO
        Parameter file                 internal GFN1-xTB/ALPB
        Dielectric constant                4.6680E+01
        Reference state                gsolv [1 M gas/solution]
        Free energy shift                  7.6243E-03 Eh       4.7843E+00 kcal/mol
        Temperature                        2.9815E+02 K
        Density                            1.1000E+00 kg/L
        Solvent mass                       7.8130E+01 g/mol
        Interaction kernel             P16
        Born radius scaling (c1)           1.7672E+00
        Born radii integrator          GBOBC
        Born offset                        0.0000E+00 a0       0.0000E+00 AA
        H-bond correction              true
        Ion screening                  false
        Surface tension                    1.0000E-05 Eh       1.5569E+01 dyn/cm
        Grid points                               230 per atom

          ...................................................
          :                      SETUP                      :
          :.................................................:
          :  # basis functions                  62          :
          :  # atomic orbitals                  62          :
          :  # shells                           42          :
          :  # electrons                        56          :
          :  # halogen bonds                     0          :
          :  max. iterations                   250          :
          :  Hamiltonian                  GFN1-xTB          :
          :  restarted?                      false          :
          :  GBSA solvation                   true          :
          :  PC potential                    false          :
          :  electronic temp.          300.0000000     K    :
          :  accuracy                    1.0000000          :
          :  -> integral cutoff          0.2500000E+02      :
          :  -> integral neglect         0.1000000E-07      :
          :  -> SCF convergence          0.1000000E-05 Eh   :
          :  -> wf. convergence          0.2000000E-04 e    :
          :  Broyden damping             0.4000000          :
          ...................................................

 iter      E             dE          RMSdq      gap      omega  full diag
   1    -31.7919046 -0.317919E+02  0.913E+00    2.93       0.0  T
   2    -31.8341014 -0.421968E-01  0.544E+00    2.60       1.0  T
   3    -31.8349245 -0.823075E-03  0.694E-01    2.56       1.0  T
   4    -31.8361617 -0.123716E-02  0.117E-01    2.56       1.0  T
   5    -31.8362620 -0.100355E-03  0.229E-02    2.57       1.0  T
   6    -31.8362651 -0.311458E-05  0.508E-03    2.57       4.3  T
   7    -31.8362654 -0.288858E-06  0.170E-03    2.57      12.8  T
   8    -31.8362654 -0.112347E-07  0.421E-04    2.57      51.8  T
   9    -31.8362654 -0.853539E-09  0.107E-04    2.57     204.2  T
  10    -31.8362654 -0.593730E-10  0.226E-05    2.57     964.9  T

   *** convergence criteria satisfied after 10 iterations ***

         #    Occupation            Energy/Eh            Energy/eV
      -------------------------------------------------------------
         1        2.0000           -0.7929516             -21.5773
       ...           ...                  ...                  ...
        22        2.0000           -0.4345216             -11.8239
        23        2.0000           -0.4115835             -11.1998
        24        2.0000           -0.4039842             -10.9930
        25        2.0000           -0.3955242             -10.7628
        26        2.0000           -0.3719808             -10.1221
        27        2.0000           -0.3600032              -9.7962
        28        2.0000           -0.2727130              -7.4209 (HOMO)
        29                         -0.1782647              -4.8508 (LUMO)
        30                         -0.1069763              -2.9110
        31                         -0.0858807              -2.3369
        32                         -0.0773672              -2.1053
        33                         -0.0723187              -1.9679
       ...                                ...                  ...
        62                          0.6666940              18.1417
      -------------------------------------------------------------
                  HL-Gap            0.0944484 Eh            2.5701 eV
             Fermi-level           -0.2254889 Eh           -6.1359 eV

 SCC (total)                   0 d,  0 h,  0 min,  0.035 sec
 SCC setup                      ...        0 min,  0.001 sec (  2.045%)
 Dispersion                     ...        0 min,  0.000 sec (  0.257%)
 classical contributions        ...        0 min,  0.000 sec (  0.102%)
 integral evaluation            ...        0 min,  0.008 sec ( 21.359%)
 iterations                     ...        0 min,  0.009 sec ( 25.237%)
 molecular gradient             ...        0 min,  0.018 sec ( 50.244%)
 printout                       ...        0 min,  0.000 sec (  0.697%)

         :::::::::::::::::::::::::::::::::::::::::::::::::::::
         ::                     SUMMARY                     ::
         :::::::::::::::::::::::::::::::::::::::::::::::::::::
         :: total energy             -31.457086793870 Eh    ::
         :: total w/o Gsasa/hb       -31.446703324025 Eh    ::
         :: gradient norm              0.056826954304 Eh/a0 ::
         :: HOMO-LUMO gap              2.570070925071 eV    ::
         ::.................................................::
         :: SCC energy               -31.836265425190 Eh    ::
         :: -> electrostatic           0.133793347404 Eh    ::
         :: -> Gsolv                  -0.082014917116 Eh    ::
         ::    -> Gelec               -0.071631447270 Eh    ::
         ::    -> Gsasa               -0.014075686637 Eh    ::
         ::    -> Ghb                 -0.003932062214 Eh    ::
         ::    -> Gshift               0.007624279005 Eh    ::
         :: repulsion energy           0.389330765485 Eh    ::
         :: dispersion energy         -0.010152134165 Eh    ::
         :: halogen bond corr.         0.000000000000 Eh    ::
         :: add. restraining           0.000000000000 Eh    ::
         :: total charge              -1.000000000000 e     ::
         :::::::::::::::::::::::::::::::::::::::::::::::::::::

      ----------------------------------------------------------- 
     |                   =====================                   |
     |                        A N C O P T                        |
     |                   =====================                   |
     |               Approximate Normal Coordinate               |
     |                Rational Function Optimizer                |
      ----------------------------------------------------------- 

          ...................................................
          :                      SETUP                      :
          :.................................................:
          :   optimization level            normal          :
          :   max. optcycles                   200          :
          :   ANC micro-cycles                  20          :
          :   degrees of freedom                57          :
          :.................................................:
          :   RF solver                   davidson          :
          :   write xtbopt.log                true          :
          :   linear?                        false          :
          :   energy convergence         0.5000000E-05 Eh   :
          :   grad. convergence          0.1000000E-02 Eh/α :
          :   maximium RF displ.         1.0000000          :
          :   Hlow (freq-cutoff)         0.1000000E-01      :
          :   Hmax (freq-cutoff)         5.0000000          :
          :   S6 in model hess.         20.0000000          :
          ...................................................

generating ANC from model Hessian ...
Using Lindh-Hessian (1995)
 Shifting diagonal of input Hessian by   7.560604110699364E-003
 Lowest  eigenvalues of input Hessian
    0.000000    0.000000    0.000000    0.000000    0.000000    0.000000
    0.010000    0.010767    0.012633    0.014007    0.015451    0.018084
    0.021891    0.023985    0.030320    0.031175    0.040437    0.048009
 Highest eigenvalues
    1.370586    1.451841    1.522629    1.812545    1.907009    1.997382
 

........................................................................
.............................. CYCLE    1 ..............................
........................................................................
   1    -31.8362654 -0.318363E+02  0.566E-06    2.57       0.0  T
   2    -31.8362654 -0.110134E-12  0.276E-06    2.57    7899.3  T
   3    -31.8362654  0.355271E-14  0.984E-07    2.57   22179.6  T
     SCC iter.                  ...        0 min,  0.003 sec
     gradient                   ...        0 min,  0.017 sec
 * total energy  :   -31.4570868 Eh     change       -0.4845901E-11 Eh
   gradient norm :     0.0568270 Eh/α   predicted     0.0000000E+00 (-100.00%)
   displ. norm   :     0.2401278 α      lambda       -0.8012021E-02
   maximum displ.:     0.1048880 α      in ANC's #15, #31, #32, ...

........................................................................
.............................. CYCLE    2 ..............................
........................................................................
   1    -31.8329320 -0.318329E+02  0.503E-02    2.61       0.0  T
   2    -31.8329543 -0.222693E-04  0.267E-02    2.61       1.0  T
   3    -31.8329559 -0.161697E-05  0.145E-02    2.61       1.5  T
   4    -31.8329562 -0.282538E-06  0.253E-03    2.61       8.6  T
   5    -31.8329562 -0.139394E-07  0.431E-04    2.61      50.7  T
   6    -31.8329562 -0.132023E-08  0.192E-04    2.61     113.6  T
   7    -31.8329562 -0.985594E-10  0.324E-05    2.61     674.0  T
     SCC iter.                  ...        0 min,  0.006 sec
     gradient                   ...        0 min,  0.017 sec
 * total energy  :   -31.4623492 Eh     change       -0.5262366E-02 Eh
   gradient norm :     0.0282193 Eh/α   predicted    -0.4237351E-02 ( -19.48%)
   displ. norm   :     0.1667612 α      lambda       -0.1915414E-02
   maximum displ.:     0.0874917 α      in ANC's #1, #11, #15, ...

........................................................................
.............................. CYCLE    3 ..............................
........................................................................
   1    -31.8327872 -0.318328E+02  0.368E-02    2.65       0.0  T
   2    -31.8327943 -0.711980E-05  0.156E-02    2.65       1.4  T
   3    -31.8327946 -0.313573E-06  0.810E-03    2.65       2.7  T
   4    -31.8327947 -0.790337E-07  0.190E-03    2.65      11.5  T
   5    -31.8327947 -0.874244E-08  0.403E-04    2.65      54.2  T
   6    -31.8327947 -0.111819E-08  0.158E-04    2.65     138.4  T
   7    -31.8327947 -0.801101E-10  0.264E-05    2.65     827.0  T
     SCC iter.                  ...        0 min,  0.006 sec
     gradient                   ...        0 min,  0.017 sec
 * total energy  :   -31.4634352 Eh     change       -0.1086079E-02 Eh
   gradient norm :     0.0092134 Eh/α   predicted    -0.9847912E-03 (  -9.33%)
   displ. norm   :     0.1073562 α      lambda       -0.2282003E-03
   maximum displ.:     0.0846334 α      in ANC's #1, #3, #7, ...

........................................................................
.............................. CYCLE    4 ..............................
........................................................................
   1    -31.8339917 -0.318340E+02  0.133E-02    2.66       0.0  T
   2    -31.8339940 -0.226883E-05  0.584E-03    2.66       3.7  T
   3    -31.8339942 -0.176801E-06  0.280E-03    2.66       7.8  T
   4    -31.8339942 -0.208324E-07  0.107E-03    2.66      20.5  T
   5    -31.8339942 -0.163466E-08  0.180E-04    2.66     121.1  T
   6    -31.8339942 -0.232628E-09  0.568E-05    2.66     383.9  T
     SCC iter.                  ...        0 min,  0.005 sec
     gradient                   ...        0 min,  0.017 sec
 * total energy  :   -31.4636089 Eh     change       -0.1736862E-03 Eh
   gradient norm :     0.0040812 Eh/α   predicted    -0.1154235E-03 ( -33.54%)
   displ. norm   :     0.1809739 α      lambda       -0.2256686E-03
   maximum displ.:     0.1377803 α      in ANC's #1, #3, #8, ...

........................................................................
.............................. CYCLE    5 ..............................
........................................................................
   1    -31.8353069 -0.318353E+02  0.146E-02    2.67       0.0  T
   2    -31.8353112 -0.426968E-05  0.678E-03    2.67       3.2  T
   3    -31.8353115 -0.358136E-06  0.318E-03    2.67       6.9  T
   4    -31.8353116 -0.366494E-07  0.127E-03    2.67      17.2  T
   5    -31.8353116 -0.178698E-08  0.216E-04    2.67     101.2  T
   6    -31.8353116 -0.192642E-09  0.601E-05    2.67     362.9  T
   7    -31.8353116 -0.152447E-10  0.868E-06    2.67    2514.6  T
     SCC iter.                  ...        0 min,  0.006 sec
     gradient                   ...        0 min,  0.017 sec
 * total energy  :   -31.4637782 Eh     change       -0.1693168E-03 Eh
   gradient norm :     0.0046069 Eh/α   predicted    -0.1165314E-03 ( -31.18%)
   displ. norm   :     0.2037654 α      lambda       -0.1705523E-03
   maximum displ.:     0.1492033 α      in ANC's #1, #3, #5, ...

........................................................................
.............................. CYCLE    6 ..............................
........................................................................
   1    -31.8356628 -0.318357E+02  0.906E-03    2.67       0.0  T
   2    -31.8356647 -0.190783E-05  0.418E-03    2.67       5.2  T
   3    -31.8356648 -0.157723E-06  0.190E-03    2.67      11.5  T
   4    -31.8356648 -0.156980E-07  0.794E-04    2.67      27.5  T
   5    -31.8356648 -0.701093E-09  0.175E-04    2.67     124.9  T
   6    -31.8356648 -0.455387E-10  0.394E-05    2.67     553.9  T
     SCC iter.                  ...        0 min,  0.005 sec
     gradient                   ...        0 min,  0.017 sec
 * total energy  :   -31.4639204 Eh     change       -0.1421777E-03 Eh
   gradient norm :     0.0064866 Eh/α   predicted    -0.8881847E-04 ( -37.53%)
   displ. norm   :     0.2390986 α      lambda       -0.1836578E-03
   maximum displ.:     0.1710820 α      in ANC's #1, #3, #2, ...

........................................................................
.............................. CYCLE    7 ..............................
........................................................................
   1    -31.8354008 -0.318354E+02  0.602E-03    2.67       0.0  T
   2    -31.8354011 -0.369032E-06  0.239E-03    2.67       9.1  T
   3    -31.8354012 -0.253330E-07  0.108E-03    2.67      20.2  T
   4    -31.8354012 -0.422106E-08  0.366E-04    2.67      59.6  T
   5    -31.8354012 -0.188049E-09  0.101E-04    2.67     215.0  T
   6    -31.8354012 -0.196323E-10  0.251E-05    2.67     870.5  T
     SCC iter.                  ...        0 min,  0.005 sec
     gradient                   ...        0 min,  0.018 sec
 * total energy  :   -31.4640755 Eh     change       -0.1550326E-03 Eh
   gradient norm :     0.0061903 Eh/α   predicted    -0.9707986E-04 ( -37.38%)
   displ. norm   :     0.2937688 α      lambda       -0.2009086E-03
   maximum displ.:     0.2105709 α      in ANC's #1, #3, #2, ...

........................................................................
.............................. CYCLE    8 ..............................
........................................................................
   1    -31.8347633 -0.318348E+02  0.648E-03    2.67       0.0  T
   2    -31.8347636 -0.258014E-06  0.293E-03    2.67       7.4  T
   3    -31.8347636 -0.195179E-07  0.105E-03    2.67      20.8  T
   4    -31.8347636 -0.113157E-08  0.297E-04    2.67      73.6  T
   5    -31.8347636 -0.342109E-09  0.109E-04    2.67     200.8  T
   6    -31.8347636 -0.455778E-10  0.244E-05    2.67     894.5  T
     SCC iter.                  ...        0 min,  0.005 sec
     gradient                   ...        0 min,  0.018 sec
 * total energy  :   -31.4642342 Eh     change       -0.1587823E-03 Eh
   gradient norm :     0.0044879 Eh/α   predicted    -0.1091249E-03 ( -31.27%)
   displ. norm   :     0.2636421 α      lambda       -0.1366372E-03
   maximum displ.:     0.1948174 α      in ANC's #1, #3, #2, ...

........................................................................
.............................. CYCLE    9 ..............................
........................................................................
   1    -31.8346345 -0.318346E+02  0.603E-03    2.68       0.0  T
   2    -31.8346351 -0.649537E-06  0.324E-03    2.68       6.7  T
   3    -31.8346352 -0.489619E-07  0.150E-03    2.68      14.5  T
   4    -31.8346352 -0.475610E-08  0.560E-04    2.68      38.9  T
   5    -31.8346352 -0.855202E-09  0.136E-04    2.68     160.4  T
   6    -31.8346352 -0.561542E-10  0.375E-05    2.68     582.6  T
     SCC iter.                  ...        0 min,  0.005 sec
     gradient                   ...        0 min,  0.018 sec
 * total energy  :   -31.4643388 Eh     change       -0.1045416E-03 Eh
   gradient norm :     0.0031014 Eh/α   predicted    -0.7307121E-04 ( -30.10%)
   displ. norm   :     0.2169093 α      lambda       -0.8702391E-04
   maximum displ.:     0.1641153 α      in ANC's #1, #2, #3, ...

........................................................................
.............................. CYCLE   10 ..............................
........................................................................
   1    -31.8350976 -0.318351E+02  0.486E-03    2.68       0.0  T
   2    -31.8350980 -0.412720E-06  0.258E-03    2.68       8.4  T
   3    -31.8350980 -0.281341E-07  0.126E-03    2.68      17.3  T
   4    -31.8350980 -0.215046E-08  0.424E-04    2.68      51.4  T
   5    -31.8350980 -0.420510E-09  0.985E-05    2.68     221.6  T
   6    -31.8350980 -0.664322E-10  0.323E-05    2.68     675.5  T
     SCC iter.                  ...        0 min,  0.006 sec
     gradient                   ...        0 min,  0.017 sec
 * total energy  :   -31.4644070 Eh     change       -0.6825595E-04 Eh
   gradient norm :     0.0027376 Eh/α   predicted    -0.4556749E-04 ( -33.24%)
   displ. norm   :     0.1886232 α      lambda       -0.6474873E-04
   maximum displ.:     0.1435125 α      in ANC's #1, #2, #3, ...

........................................................................
.............................. CYCLE   11 ..............................
........................................................................
   1    -31.8356878 -0.318357E+02  0.388E-03    2.69       0.0  T
   2    -31.8356880 -0.193239E-06  0.164E-03    2.69      13.3  T
   3    -31.8356880 -0.982029E-08  0.900E-04    2.69      24.3  T
   4    -31.8356880 -0.941405E-09  0.230E-04    2.69      94.9  T
   5    -31.8356880 -0.171482E-09  0.671E-05    2.69     325.2  T
   6    -31.8356880 -0.280913E-10  0.210E-05    2.69    1036.7  T
     SCC iter.                  ...        0 min,  0.005 sec
     gradient                   ...        0 min,  0.017 sec
 * total energy  :   -31.4644600 Eh     change       -0.5298934E-04 Eh
   gradient norm :     0.0027773 Eh/α   predicted    -0.3352901E-04 ( -36.72%)
   displ. norm   :     0.1917248 α      lambda       -0.6267255E-04
   maximum displ.:     0.1428668 α      in ANC's #1, #2, #3, ...

........................................................................
.............................. CYCLE   12 ..............................
........................................................................
   1    -31.8361994 -0.318362E+02  0.354E-03    2.70       0.0  T
   2    -31.8361996 -0.180385E-06  0.130E-03    2.70      16.8  T
   3    -31.8361996 -0.142401E-07  0.610E-04    2.70      35.8  T
   4    -31.8361996 -0.746009E-09  0.157E-04    2.70     139.3  T
   5    -31.8361996 -0.513083E-10  0.561E-05    2.70     389.0  T
     SCC iter.                  ...        0 min,  0.004 sec
     gradient                   ...        0 min,  0.017 sec
 * total energy  :   -31.4645107 Eh     change       -0.5068864E-04 Eh
   gradient norm :     0.0027161 Eh/α   predicted    -0.3248841E-04 ( -35.91%)
   displ. norm   :     0.2002112 α      lambda       -0.5779305E-04
   maximum displ.:     0.1413838 α      in ANC's #1, #2, #3, ...

........................................................................
.............................. CYCLE   13 ..............................
........................................................................
   1    -31.8363874 -0.318364E+02  0.337E-03    2.71       0.0  T
   2    -31.8363877 -0.256684E-06  0.158E-03    2.71      13.8  T
   3    -31.8363877 -0.220822E-07  0.687E-04    2.71      31.8  T
   4    -31.8363877 -0.145787E-08  0.216E-04    2.71     101.1  T
   5    -31.8363877 -0.803588E-10  0.631E-05    2.71     346.0  T
   6    -31.8363877 -0.527223E-11  0.136E-05    2.71    1606.5  T
     SCC iter.                  ...        0 min,  0.005 sec
     gradient                   ...        0 min,  0.017 sec
 * total energy  :   -31.4645553 Eh     change       -0.4455764E-04 Eh
   gradient norm :     0.0023305 Eh/α   predicted    -0.3005674E-04 ( -32.54%)
   displ. norm   :     0.1476161 α      lambda       -0.3955213E-04
   maximum displ.:     0.1108946 α      in ANC's #2, #1, #6, ...

........................................................................
.............................. CYCLE   14 ..............................
........................................................................
   1    -31.8364881 -0.318365E+02  0.346E-03    2.71       0.0  T
   2    -31.8364884 -0.222788E-06  0.130E-03    2.71      16.8  T
   3    -31.8364884 -0.166458E-07  0.567E-04    2.71      38.5  T
   4    -31.8364884 -0.173715E-08  0.254E-04    2.71      86.0  T
   5    -31.8364884 -0.867111E-10  0.650E-05    2.71     335.7  T
   6    -31.8364884 -0.322586E-11  0.125E-05    2.71    1746.7  T
     SCC iter.                  ...        0 min,  0.005 sec
     gradient                   ...        0 min,  0.017 sec
 * total energy  :   -31.4645862 Eh     change       -0.3092613E-04 Eh
   gradient norm :     0.0016756 Eh/α   predicted    -0.2020835E-04 ( -34.66%)
   displ. norm   :     0.1640325 α      lambda       -0.3330631E-04
   maximum displ.:     0.1373404 α      in ANC's #2, #6, #1, ...

........................................................................
.............................. CYCLE   15 ..............................
........................................................................
   1    -31.8367012 -0.318367E+02  0.383E-03    2.71       0.0  T
   2    -31.8367013 -0.934977E-07  0.185E-03    2.71      11.8  T
   3    -31.8367014 -0.697352E-08  0.647E-04    2.71      33.7  T
   4    -31.8367014 -0.767734E-09  0.263E-04    2.71      83.1  T
   5    -31.8367014 -0.197716E-09  0.565E-05    2.71     386.0  T
   6    -31.8367014 -0.116245E-10  0.154E-05    2.71    1414.6  T
     SCC iter.                  ...        0 min,  0.005 sec
     gradient                   ...        0 min,  0.018 sec
 * total energy  :   -31.4646190 Eh     change       -0.3281446E-04 Eh
   gradient norm :     0.0022078 Eh/α   predicted    -0.1685287E-04 ( -48.64%)
   displ. norm   :     0.0950298 α      lambda       -0.3051559E-04
   maximum displ.:     0.0842038 α      in ANC's #2, #6, #1, ...

........................................................................
.............................. CYCLE   16 ..............................
........................................................................
   1    -31.8358515 -0.318359E+02  0.413E-03    2.70       0.0  T
   2    -31.8358515 -0.833115E-07  0.198E-03    2.70      11.0  T
   3    -31.8358515 -0.443994E-08  0.770E-04    2.70      28.3  T
   4    -31.8358515 -0.316362E-09  0.173E-04    2.70     126.3  T
   5    -31.8358515 -0.123936E-09  0.483E-05    2.70     452.0  T
     SCC iter.                  ...        0 min,  0.004 sec
     gradient                   ...        0 min,  0.017 sec
 * total energy  :   -31.4646403 Eh     change       -0.2128672E-04 Eh
   gradient norm :     0.0021390 Eh/α   predicted    -0.1539791E-04 ( -27.66%)
   displ. norm   :     0.0772049 α      lambda       -0.2630745E-04
   maximum displ.:     0.0577082 α      in ANC's #2, #1, #6, ...

........................................................................
.............................. CYCLE   17 ..............................
........................................................................
   1    -31.8361121 -0.318361E+02  0.151E-03    2.70       0.0  T
   2    -31.8361122 -0.322570E-07  0.679E-04    2.70      32.1  T
   3    -31.8361122 -0.307216E-08  0.338E-04    2.70      64.6  T
   4    -31.8361122 -0.136172E-09  0.777E-05    2.70     280.7  T
   5    -31.8361122 -0.975220E-11  0.155E-05    2.70    1411.8  T
     SCC iter.                  ...        0 min,  0.004 sec
     gradient                   ...        0 min,  0.017 sec
 * total energy  :   -31.4646626 Eh     change       -0.2234748E-04 Eh
   gradient norm :     0.0020736 Eh/α   predicted    -0.1323646E-04 ( -40.77%)
   displ. norm   :     0.1788241 α      lambda       -0.5319141E-04
   maximum displ.:     0.1512795 α      in ANC's #2, #6, #1, ...

........................................................................
.............................. CYCLE   18 ..............................
........................................................................
   1    -31.8352811 -0.318353E+02  0.525E-03    2.70       0.0  T
   2    -31.8352814 -0.310248E-06  0.226E-03    2.70       9.7  T
   3    -31.8352814 -0.172502E-07  0.119E-03    2.70      18.3  T
   4    -31.8352814 -0.198425E-08  0.316E-04    2.70      69.1  T
   5    -31.8352814 -0.267207E-09  0.800E-05    2.70     272.8  T
   6    -31.8352814 -0.414175E-10  0.210E-05    2.70    1041.3  T
     SCC iter.                  ...        0 min,  0.005 sec
     gradient                   ...        0 min,  0.017 sec
 * total energy  :   -31.4647021 Eh     change       -0.3946662E-04 Eh
   gradient norm :     0.0023921 Eh/α   predicted    -0.2744720E-04 ( -30.45%)
   displ. norm   :     0.2129655 α      lambda       -0.4616391E-04
   maximum displ.:     0.1840524 α      in ANC's #2, #1, #6, ...

........................................................................
.............................. CYCLE   19 ..............................
........................................................................
   1    -31.8348479 -0.318348E+02  0.513E-03    2.70       0.0  T
   2    -31.8348481 -0.184535E-06  0.241E-03    2.70       9.0  T
   3    -31.8348481 -0.919920E-08  0.108E-03    2.70      20.2  T
   4    -31.8348481 -0.249609E-08  0.284E-04    2.70      76.9  T
   5    -31.8348481 -0.270813E-09  0.604E-05    2.70     361.3  T
   6    -31.8348481 -0.246843E-10  0.154E-05    2.70    1417.3  T
     SCC iter.                  ...        0 min,  0.005 sec
     gradient                   ...        0 min,  0.017 sec
 * total energy  :   -31.4647324 Eh     change       -0.3029605E-04 Eh
   gradient norm :     0.0039486 Eh/α   predicted    -0.2413201E-04 ( -20.35%)
   displ. norm   :     0.1315800 α      lambda       -0.4489470E-04
   maximum displ.:     0.1094255 α      in ANC's #2, #3, #1, ...

........................................................................
.............................. CYCLE   20 ..............................
........................................................................
   1    -31.8355997 -0.318356E+02  0.408E-03    2.70       0.0  T
   2    -31.8355998 -0.702475E-07  0.196E-03    2.70      11.2  T
   3    -31.8355998 -0.460100E-08  0.600E-04    2.70      36.3  T
   4    -31.8355998 -0.227288E-09  0.168E-04    2.70     129.5  T
   5    -31.8355998 -0.810729E-10  0.263E-05    2.70     830.6  T
     SCC iter.                  ...        0 min,  0.004 sec
     gradient                   ...        0 min,  0.018 sec
 * total energy  :   -31.4647648 Eh     change       -0.3235434E-04 Eh
   gradient norm :     0.0028906 Eh/α   predicted    -0.2283964E-04 ( -29.41%)
   displ. norm   :     0.1409114 α      lambda       -0.4490471E-04
   maximum displ.:     0.1226574 α      in ANC's #2, #3, #1, ...
 * RMSD in coord.:     0.5834555 α      energy gain  -0.7677965E-02 Eh

generating ANC from model Hessian ...
Using Lindh-Hessian (1995)
 Shifting diagonal of input Hessian by   7.746128609116163E-003
 Lowest  eigenvalues of input Hessian
    0.000000    0.000000    0.000000    0.000000    0.000000    0.000000
    0.010000    0.010692    0.012425    0.013846    0.015292    0.018530
    0.020424    0.022290    0.029691    0.031378    0.042449    0.046143
 Highest eigenvalues
    1.322909    1.384949    1.497186    1.780550    1.915913    1.976947
 

........................................................................
.............................. CYCLE   21 ..............................
........................................................................
   1    -31.8365939 -0.318366E+02  0.625E-03    2.70       0.0  T
   2    -31.8365942 -0.281317E-06  0.287E-03    2.70       7.6  T
   3    -31.8365942 -0.143159E-07  0.155E-03    2.70      14.1  T
   4    -31.8365942 -0.157297E-08  0.210E-04    2.70     103.7  T
   5    -31.8365942 -0.221490E-09  0.588E-05    2.70     371.0  T
   6    -31.8365942 -0.145093E-10  0.174E-05    2.70    1252.6  T
     SCC iter.                  ...        0 min,  0.013 sec
     gradient                   ...        0 min,  0.017 sec
 * total energy  :   -31.4647984 Eh     change       -0.3360231E-04 Eh
   gradient norm :     0.0022475 Eh/α   predicted     0.0000000E+00 (-100.00%)
   displ. norm   :     0.0283500 α      lambda       -0.2101404E-04
   maximum displ.:     0.0198968 α      in ANC's #2, #10, #6, ...

........................................................................
.............................. CYCLE   22 ..............................
........................................................................
   1    -31.8365495 -0.318365E+02  0.236E-03    2.70       0.0  T
   2    -31.8365496 -0.791923E-07  0.105E-03    2.70      20.7  T
   3    -31.8365496 -0.616938E-08  0.562E-04    2.70      38.8  T
   4    -31.8365496 -0.648544E-09  0.182E-04    2.70     119.8  T
   5    -31.8365496 -0.433502E-10  0.378E-05    2.70     577.9  T
     SCC iter.                  ...        0 min,  0.004 sec
     gradient                   ...        0 min,  0.017 sec
 * total energy  :   -31.4648155 Eh     change       -0.1708896E-04 Eh
   gradient norm :     0.0010893 Eh/α   predicted    -0.1052206E-04 ( -38.43%)
   displ. norm   :     0.1186338 α      lambda       -0.3712593E-04
   maximum displ.:     0.0832055 α      in ANC's #2, #6, #10, ...

........................................................................
.............................. CYCLE   23 ..............................
........................................................................
   1    -31.8363494 -0.318363E+02  0.643E-03    2.69       0.0  T
   2    -31.8363501 -0.700071E-06  0.283E-03    2.70       7.7  T
   3    -31.8363502 -0.626538E-07  0.146E-03    2.70      14.9  T
   4    -31.8363502 -0.668282E-08  0.554E-04    2.70      39.4  T
   5    -31.8363502 -0.235843E-09  0.875E-05    2.70     249.4  T
   6    -31.8363502 -0.274376E-10  0.228E-05    2.70     955.0  T
     SCC iter.                  ...        0 min,  0.005 sec
     gradient                   ...        0 min,  0.017 sec
 * total energy  :   -31.4648449 Eh     change       -0.2941679E-04 Eh
   gradient norm :     0.0026594 Eh/α   predicted    -0.1868195E-04 ( -36.49%)
   displ. norm   :     0.0360949 α      lambda       -0.1257161E-04
   maximum displ.:     0.0275200 α      in ANC's #2, #6, #10, ...

........................................................................
.............................. CYCLE   24 ..............................
........................................................................
   1    -31.8364855 -0.318365E+02  0.101E-03    2.70       0.0  T
   2    -31.8364855 -0.454780E-08  0.596E-04    2.70      36.6  T
   3    -31.8364855 -0.202913E-09  0.221E-04    2.70      98.7  T
   4    -31.8364855 -0.405826E-10  0.314E-05    2.70     695.1  T
   5    -31.8364855 -0.230571E-11  0.122E-05    2.70    1786.7  T
     SCC iter.                  ...        0 min,  0.004 sec
     gradient                   ...        0 min,  0.018 sec
 * total energy  :   -31.4648558 Eh     change       -0.1095542E-04 Eh
   gradient norm :     0.0018835 Eh/α   predicted    -0.6295220E-05 ( -42.54%)
   displ. norm   :     0.1183091 α      lambda       -0.2387780E-04
   maximum displ.:     0.0859720 α      in ANC's #2, #6, #5, ...

........................................................................
.............................. CYCLE   25 ..............................
........................................................................
   1    -31.8367337 -0.318367E+02  0.383E-03    2.70       0.0  T
   2    -31.8367339 -0.132823E-06  0.196E-03    2.70      11.1  T
   3    -31.8367339 -0.493416E-08  0.955E-04    2.70      22.8  T
   4    -31.8367339 -0.436991E-09  0.164E-04    2.70     132.8  T
   5    -31.8367339 -0.873648E-10  0.426E-05    2.70     512.8  T
     SCC iter.                  ...        0 min,  0.004 sec
     gradient                   ...        0 min,  0.017 sec
 * total energy  :   -31.4648766 Eh     change       -0.2078231E-04 Eh
   gradient norm :     0.0012705 Eh/α   predicted    -0.1201594E-04 ( -42.18%)
   displ. norm   :     0.0653548 α      lambda       -0.7100246E-05
   maximum displ.:     0.0466575 α      in ANC's #2, #1, #6, ...

........................................................................
.............................. CYCLE   26 ..............................
........................................................................
   1    -31.8367186 -0.318367E+02  0.126E-03    2.70       0.0  T
   2    -31.8367187 -0.309403E-07  0.565E-04    2.70      38.6  T
   3    -31.8367187 -0.170553E-08  0.288E-04    2.70      75.7  T
   4    -31.8367187 -0.167613E-09  0.106E-04    2.70     205.1  T
   5    -31.8367187 -0.262439E-10  0.244E-05    2.70     894.4  T
     SCC iter.                  ...        0 min,  0.004 sec
     gradient                   ...        0 min,  0.017 sec
 * total energy  :   -31.4648857 Eh     change       -0.9071168E-05 Eh
   gradient norm :     0.0011118 Eh/α   predicted    -0.3564990E-05 ( -60.70%)
   displ. norm   :     0.1040120 α      lambda       -0.1216252E-04
   maximum displ.:     0.0727703 α      in ANC's #2, #1, #3, ...

........................................................................
.............................. CYCLE   27 ..............................
........................................................................
   1    -31.8367835 -0.318368E+02  0.252E-03    2.70       0.0  T
   2    -31.8367836 -0.924848E-07  0.119E-03    2.70      18.3  T
   3    -31.8367836 -0.584581E-08  0.647E-04    2.70      33.7  T
   4    -31.8367836 -0.416900E-09  0.172E-04    2.70     126.7  T
   5    -31.8367836 -0.100034E-09  0.377E-05    2.70     579.1  T
     SCC iter.                  ...        0 min,  0.004 sec
     gradient                   ...        0 min,  0.018 sec
 * total energy  :   -31.4649005 Eh     change       -0.1483885E-04 Eh
   gradient norm :     0.0007982 Eh/α   predicted    -0.6111546E-05 ( -58.81%)
   displ. norm   :     0.1719467 α      lambda       -0.1565444E-04
   maximum displ.:     0.1273755 α      in ANC's #2, #1, #3, ...

........................................................................
.............................. CYCLE   28 ..............................
........................................................................
   1    -31.8365573 -0.318366E+02  0.336E-03    2.70       0.0  T
   2    -31.8365575 -0.183032E-06  0.111E-03    2.70      19.7  T
   3    -31.8365575 -0.123239E-07  0.494E-04    2.70      44.2  T
   4    -31.8365575 -0.775536E-09  0.225E-04    2.70      96.8  T
   5    -31.8365575 -0.858087E-10  0.465E-05    2.70     469.8  T
   6    -31.8365575 -0.134008E-10  0.146E-05    2.70    1495.1  T
     SCC iter.                  ...        0 min,  0.004 sec
     gradient                   ...        0 min,  0.015 sec
 * total energy  :   -31.4649194 Eh     change       -0.1893491E-04 Eh
   gradient norm :     0.0010889 Eh/α   predicted    -0.7932804E-05 ( -58.10%)
   displ. norm   :     0.1167856 α      lambda       -0.1115292E-04
   maximum displ.:     0.0917299 α      in ANC's #2, #1, #3, ...

........................................................................
.............................. CYCLE   29 ..............................
........................................................................
   1    -31.8367246 -0.318367E+02  0.209E-03    2.70       0.0  T
   2    -31.8367247 -0.599036E-07  0.758E-04    2.70      28.8  T
   3    -31.8367247 -0.463451E-08  0.402E-04    2.70      54.3  T
   4    -31.8367247 -0.423604E-09  0.152E-04    2.70     143.3  T
   5    -31.8367247 -0.262936E-10  0.291E-05    2.70     751.0  T
     SCC iter.                  ...        0 min,  0.004 sec
     gradient                   ...        0 min,  0.017 sec
 * total energy  :   -31.4649342 Eh     change       -0.1470868E-04 Eh
   gradient norm :     0.0009690 Eh/α   predicted    -0.5614679E-05 ( -61.83%)
   displ. norm   :     0.0908962 α      lambda       -0.1133278E-04
   maximum displ.:     0.0764871 α      in ANC's #2, #1, #5, ...

........................................................................
.............................. CYCLE   30 ..............................
........................................................................
   1    -31.8369255 -0.318369E+02  0.172E-03    2.70       0.0  T
   2    -31.8369255 -0.533982E-07  0.722E-04    2.70      30.2  T
   3    -31.8369255 -0.492272E-08  0.353E-04    2.70      61.9  T
   4    -31.8369255 -0.560870E-09  0.164E-04    2.70     133.5  T
   5    -31.8369255 -0.197176E-10  0.200E-05    2.70    1089.0  T
     SCC iter.                  ...        0 min,  0.003 sec
     gradient                   ...        0 min,  0.011 sec
 * total energy  :   -31.4649495 Eh     change       -0.1530462E-04 Eh
   gradient norm :     0.0005686 Eh/α   predicted    -0.5687762E-05 ( -62.84%)
   displ. norm   :     0.0957756 α      lambda       -0.1289820E-04
   maximum displ.:     0.0823711 α      in ANC's #2, #1, #6, ...

........................................................................
.............................. CYCLE   31 ..............................
........................................................................
   1    -31.8369052 -0.318369E+02  0.197E-03    2.70       0.0  T
   2    -31.8369052 -0.416521E-07  0.779E-04    2.70      28.0  T
   3    -31.8369052 -0.373234E-08  0.334E-04    2.70      65.3  T
   4    -31.8369052 -0.438721E-09  0.151E-04    2.70     144.6  T
   5    -31.8369052 -0.197282E-10  0.174E-05    2.70    1255.7  T
     SCC iter.                  ...        0 min,  0.004 sec
     gradient                   ...        0 min,  0.018 sec
 * total energy  :   -31.4649666 Eh     change       -0.1714601E-04 Eh
   gradient norm :     0.0005364 Eh/α   predicted    -0.6475854E-05 ( -62.23%)
   displ. norm   :     0.0960172 α      lambda       -0.1232823E-04
   maximum displ.:     0.0819150 α      in ANC's #2, #1, #6, ...

........................................................................
.............................. CYCLE   32 ..............................
........................................................................
   1    -31.8368447 -0.318368E+02  0.187E-03    2.70       0.0  T
   2    -31.8368447 -0.235416E-07  0.762E-04    2.70      28.7  T
   3    -31.8368447 -0.197539E-08  0.268E-04    2.70      81.4  T
   4    -31.8368447 -0.107772E-09  0.116E-04    2.70     188.8  T
   5    -31.8368447 -0.178879E-10  0.152E-05    2.70    1432.0  T
     SCC iter.                  ...        0 min,  0.004 sec
     gradient                   ...        0 min,  0.018 sec
 * total energy  :   -31.4649832 Eh     change       -0.1657892E-04 Eh
   gradient norm :     0.0006413 Eh/α   predicted    -0.6190194E-05 ( -62.66%)
   displ. norm   :     0.0970440 α      lambda       -0.1096528E-04
   maximum displ.:     0.0830300 α      in ANC's #2, #1, #6, ...

........................................................................
.............................. CYCLE   33 ..............................
........................................................................
   1    -31.8367849 -0.318368E+02  0.186E-03    2.70       0.0  T
   2    -31.8367850 -0.292801E-07  0.717E-04    2.70      30.4  T
   3    -31.8367850 -0.182160E-08  0.265E-04    2.70      82.3  T
   4    -31.8367850 -0.693667E-10  0.104E-04    2.70     210.4  T
   5    -31.8367850 -0.107896E-10  0.138E-05    2.70    1578.1  T
     SCC iter.                  ...        0 min,  0.004 sec
     gradient                   ...        0 min,  0.018 sec
 * total energy  :   -31.4649978 Eh     change       -0.1464667E-04 Eh
   gradient norm :     0.0006583 Eh/α   predicted    -0.5506657E-05 ( -62.40%)
   displ. norm   :     0.0895210 α      lambda       -0.8575465E-05
   maximum displ.:     0.0785818 α      in ANC's #2, #1, #6, ...

........................................................................
.............................. CYCLE   34 ..............................
........................................................................
   1    -31.8367371 -0.318367E+02  0.141E-03    2.70       0.0  T
   2    -31.8367371 -0.233204E-07  0.548E-04    2.70      39.8  T
   3    -31.8367371 -0.136573E-08  0.237E-04    2.70      92.2  T
   4    -31.8367371 -0.614939E-10  0.922E-05    2.70     236.6  T
   5    -31.8367371 -0.793321E-11  0.142E-05    2.70    1533.8  T
     SCC iter.                  ...        0 min,  0.005 sec
     gradient                   ...        0 min,  0.018 sec
 * total energy  :   -31.4650085 Eh     change       -0.1063415E-04 Eh
   gradient norm :     0.0006246 Eh/α   predicted    -0.4305834E-05 ( -59.51%)
   displ. norm   :     0.0825490 α      lambda       -0.6483726E-05
   maximum displ.:     0.0742204 α      in ANC's #2, #1, #6, ...

........................................................................
.............................. CYCLE   35 ..............................
........................................................................
   1    -31.8367665 -0.318368E+02  0.129E-03    2.70       0.0  T
   2    -31.8367666 -0.252748E-07  0.565E-04    2.70      38.7  T
   3    -31.8367666 -0.156909E-08  0.313E-04    2.70      69.6  T
   4    -31.8367666 -0.164086E-09  0.128E-04    2.70     171.0  T
   5    -31.8367666 -0.192557E-10  0.180E-05    2.70    1214.7  T
     SCC iter.                  ...        0 min,  0.004 sec
     gradient                   ...        0 min,  0.018 sec
 * total energy  :   -31.4650163 Eh     change       -0.7841800E-05 Eh
   gradient norm :     0.0005283 Eh/α   predicted    -0.3256083E-05 ( -58.48%)
   displ. norm   :     0.1054950 α      lambda       -0.6603133E-05
   maximum displ.:     0.0947473 α      in ANC's #2, #1, #3, ...

........................................................................
.............................. CYCLE   36 ..............................
........................................................................
   1    -31.8367690 -0.318368E+02  0.180E-03    2.70       0.0  T
   2    -31.8367690 -0.536965E-07  0.784E-04    2.70      27.8  T
   3    -31.8367690 -0.397278E-08  0.413E-04    2.70      52.8  T
   4    -31.8367690 -0.422418E-09  0.180E-04    2.70     121.4  T
   5    -31.8367690 -0.374065E-10  0.243E-05    2.70     897.4  T
     SCC iter.                  ...        0 min,  0.004 sec
     gradient                   ...        0 min,  0.018 sec
 * total energy  :   -31.4650240 Eh     change       -0.7659362E-05 Eh
   gradient norm :     0.0005994 Eh/α   predicted    -0.3320724E-05 ( -56.64%)
   displ. norm   :     0.1537464 α      lambda       -0.7239926E-05
   maximum displ.:     0.1361990 α      in ANC's #2, #1, #3, ...

........................................................................
.............................. CYCLE   37 ..............................
........................................................................
   1    -31.8366733 -0.318367E+02  0.291E-03    2.70       0.0  T
   2    -31.8366734 -0.130810E-06  0.118E-03    2.70      18.5  T
   3    -31.8366734 -0.997689E-08  0.643E-04    2.70      33.9  T
   4    -31.8366734 -0.102708E-08  0.271E-04    2.70      80.6  T
   5    -31.8366734 -0.739497E-10  0.364E-05    2.70     599.0  T
   6    -31.8366734 -0.130633E-10  0.135E-05    2.70    1612.8  T
     SCC iter.                  ...        0 min,  0.005 sec
     gradient                   ...        0 min,  0.018 sec
 * total energy  :   -31.4650302 Eh     change       -0.6267057E-05 Eh
   gradient norm :     0.0007874 Eh/α   predicted    -0.3658587E-05 ( -41.62%)
   displ. norm   :     0.1561030 α      lambda        0.4883142E-05
   maximum displ.:     0.1381978 α      in ANC's #2, #1, #3, ...

........................................................................
.............................. CYCLE   38 ..............................
........................................................................
   1    -31.8362402 -0.318362E+02  0.343E-03    2.70       0.0  T
   2    -31.8362403 -0.130208E-06  0.143E-03    2.70      15.2  T
   3    -31.8362404 -0.985069E-08  0.747E-04    2.70      29.2  T
   4    -31.8362404 -0.112148E-08  0.268E-04    2.70      81.3  T
   5    -31.8362404 -0.962430E-10  0.350E-05    2.70     623.8  T
   6    -31.8362404 -0.118163E-10  0.125E-05    2.70    1747.1  T
     SCC iter.                  ...        0 min,  0.005 sec
     gradient                   ...        0 min,  0.018 sec
 * total energy  :   -31.4650237 Eh     change        0.6540427E-05 Eh
   gradient norm :     0.0018150 Eh/α   predicted     0.2466481E-05 ( -62.29%)
   displ. norm   :     0.1133209 α      lambda       -0.1194798E-04
   maximum displ.:     0.1017665 α      in ANC's #2, #1, #15, ...

........................................................................
.............................. CYCLE   39 ..............................
........................................................................
   1    -31.8369982 -0.318370E+02  0.374E-03    2.70       0.0  T
   2    -31.8369982 -0.515340E-07  0.192E-03    2.70      11.4  T
   3    -31.8369982 -0.302918E-08  0.708E-04    2.70      30.8  T
   4    -31.8369982 -0.108502E-08  0.185E-04    2.70     118.1  T
   5    -31.8369982 -0.158590E-09  0.260E-05    2.70     839.7  T
     SCC iter.                  ...        0 min,  0.004 sec
     gradient                   ...        0 min,  0.018 sec
 * total energy  :   -31.4650327 Eh     change       -0.9004082E-05 Eh
   gradient norm :     0.0004154 Eh/α   predicted    -0.6008524E-05 ( -33.27%)
   displ. norm   :     0.0234508 α      lambda       -0.1374564E-05
   maximum displ.:     0.0185895 α      in ANC's #2, #3, #1, ...

........................................................................
.............................. CYCLE   40 ..............................
........................................................................
   1    -31.8369343 -0.318369E+02  0.590E-04    2.70       0.0  T
   2    -31.8369343 -0.226814E-08  0.297E-04    2.70      73.6  T
   3    -31.8369343 -0.108809E-09  0.130E-04    2.70     167.8  T
   4    -31.8369343 -0.124594E-10  0.233E-05    2.70     938.2  T
     SCC iter.                  ...        0 min,  0.003 sec
     gradient                   ...        0 min,  0.018 sec
 * total energy  :   -31.4650339 Eh     change       -0.1229939E-05 Eh
   gradient norm :     0.0003034 Eh/α   predicted    -0.6896599E-06 ( -43.93%)
   displ. norm   :     0.0156415 α      lambda       -0.8441756E-06
   maximum displ.:     0.0125735 α      in ANC's #3, #10, #7, ...

   *** GEOMETRY OPTIMIZATION CONVERGED AFTER 40 ITERATIONS ***

------------------------------------------------------------------------
 total energy gain   :        -0.0079471 Eh       -4.9869 kcal/mol
 total RMSD          :         0.8154255 a0        0.4315 Å
 total power (kW/mol):        -0.5216301 (step)  -16.4089 (real)
------------------------------------------------------------------------

 ANCopt (total)                0 d,  0 h,  0 min,  1.272 sec
 optimizer setup                ...        0 min,  0.001 sec (  0.053%)
 model hessian                  ...        0 min,  0.015 sec (  1.148%)
 ANC generation                 ...        0 min,  0.001 sec (  0.098%)
 coordinate transformation      ...        0 min,  0.000 sec (  0.029%)
 single point calculation       ...        0 min,  1.240 sec ( 97.483%)
 optimization log               ...        0 min,  0.004 sec (  0.351%)
 hessian update                 ...        0 min,  0.000 sec (  0.030%)
 rational function              ...        0 min,  0.003 sec (  0.203%)

================
 final structure:
================
21
 xtb: 6.5.1 (579679a)
C           -0.65630089088664        1.97647102095676        0.49537030619525
C           -0.47024520119695        0.72360923290127       -0.42082075685190
C           -1.80832228144658        0.07062014869161       -0.70091272804759
C           -2.15767270467655       -1.05885731253131       -0.03408615990092
F           -3.43360626377268       -1.54094052575287       -0.23556909960270
C           -1.32045411993674       -1.82415466156506        0.78340404597031
C            0.03870536610416       -1.42446351301292        0.80104372176562
C            0.48510853307575       -0.27971313831668        0.21198328738272
C            1.95592603285258        0.04141704762077        0.11738145999694
N            2.42285348873781       -0.03076163663350       -1.28846429815159
H            0.29353088679646        2.49219214099995        0.64557505384960
H           -1.04734435561290        1.67468491543881        1.46829123805440
H           -1.36120227210543        2.67319008248459        0.03800907855314
H           -0.03273629104772        1.10251654075148       -1.36631202489056
H           -2.49619003268452        0.56592183483372       -1.37682394533684
H           -1.66180548849052       -2.73333684274028        1.25866696383906
H            0.75838360169844       -2.08458739713031        1.28666845518265
H            2.16671830553171        1.06267326443927        0.46800816273135
H            2.54357558114063       -0.65116322383192        0.74389372381459
H            2.38664245396886       -0.99816549132404       -1.58690234321568
H            3.39443765195110        0.24284751372060       -1.30840314133782
 
 Bond Distances (Angstroems)
 ---------------------------
C1-C2=1.5632         C1-H11=1.0912        C1-H12=1.0911        C1-H13=1.0916        C2-C1=1.5632         C2-C3=1.5150         
C2-C8=1.5231         C2-H14=1.1086        C3-C2=1.5150         C3-C4=1.3574         C3-H15=1.0841        C4-C3=1.3574         
C4-F5=1.3788         C4-C6=1.3982         F5-C4=1.3788         C6-C4=1.3982         C6-C7=1.4168         C6-H16=1.0812        
C7-C6=1.4168         C7-C8=1.3626         C7-H17=1.0907        C8-C2=1.5231         C8-C7=1.3626         C8-C9=1.5084         
C9-C8=1.5084         C9-N10=1.4831        C9-H18=1.1002        C9-H19=1.1034        N10-C9=1.4831        N10-H20=1.0130       
N10-H21=1.0096       H11-C1=1.0912        H12-C1=1.0911        H13-C1=1.0916        H14-C2=1.1086        H15-C3=1.0841        
H16-C6=1.0812        H17-C7=1.0907        H18-C9=1.1002        H19-C9=1.1034        H20-N10=1.0130       H21-N10=1.0096       
 C  H  Rav=1.0936 sigma=0.0084  Rmin=1.0812  Rmax=1.1086     9
 C  C  Rav=1.4556 sigma=0.0755  Rmin=1.3574  Rmax=1.5632     8
 N  H  Rav=1.0113 sigma=0.0017  Rmin=1.0096  Rmax=1.0130     2
 N  C  Rav=1.4831 sigma=0.0000  Rmin=1.4831  Rmax=1.4831     1
 F  C  Rav=1.3788 sigma=0.0000  Rmin=1.3788  Rmax=1.3788     1
 
 selected bond angles (degree)
 --------------------
H11-C1-C2=110.85               H12-C1-C2=110.10               H12-C1-H11=108.66              H13-C1-C2=110.05               
H13-C1-H11=108.55              H13-C1-H12=108.58              C3-C2-C1=110.41                C8-C2-C1=111.05                
C8-C2-C3=110.30                H14-C2-C1=105.84               H14-C2-C3=109.77               H14-C2-C8=109.39               
C4-C3-C2=119.68                H15-C3-C2=118.60               H15-C3-C4=121.54               F5-C4-C3=117.22                
C6-C4-C3=126.06                C6-C4-F5=116.63                C7-C6-C4=115.30                H16-C6-C4=121.89               
H16-C6-C7=122.32               C8-C7-C6=123.09                H17-C7-C6=117.89               H17-C7-C8=119.00               
C7-C8-C2=121.84                C9-C8-C2=116.44                C9-C8-C7=121.70                N10-C9-C8=110.86               
H18-C9-C8=111.37               H18-C9-N10=106.68              H19-C9-C8=110.49               H19-C9-N10=109.88              
H19-C9-H18=107.44              H20-N10-C9=108.33              H21-N10-C9=107.97              H21-N10-H20=106.70             
 
 selected dihedral angles (degree)
 ---------------------------------
C3-C2-C1-H11=183.90           C3-C2-C1-H12= 63.65           C3-C2-C1-H13=303.99           C8-C2-C1-H11= 61.24           
C8-C2-C1-H12=300.99           C8-C2-C1-H13=181.33           H14-C2-C1-H11=302.63          H14-C2-C1-H12=182.38          
H14-C2-C1-H13= 62.72          C4-C3-C2-C1=257.54            C4-C3-C2-C8= 20.64            C4-C3-C2-H14=141.24           
H15-C3-C2-C1= 72.81           H15-C3-C2-C8=195.91           H15-C3-C2-H14=316.51          F5-C4-C3-C2=174.15            
F5-C4-C3-H15=359.02           C6-C4-C3-C2=350.36            C6-C4-C3-H15=175.23           C7-C6-C4-C3=354.08            
C7-C6-C4-F5=170.31            H16-C6-C4-C3=182.02           H16-C6-C4-F5=358.26           C8-C7-C6-C4=  8.25            
C8-C7-C6-H16=180.27           H17-C7-C6-C4=190.04           H17-C7-C6-H16=  2.06          C7-C8-C2-C1=103.98            
C7-C8-C2-C3=341.25            C7-C8-C2-H14=220.43           C9-C8-C2-C1=282.28            C9-C8-C2-C3=159.55            
C9-C8-C2-H14= 38.73           C2-C8-C7-C6=  5.04            C2-C8-C7-H17=183.23           C9-C8-C7-C6=186.82            
C9-C8-C7-H17=  5.01           N10-C9-C8-C2=292.70           N10-C9-C8-C7=111.00           H18-C9-C8-C2= 51.31           
H18-C9-C8-C7=229.61           H19-C9-C8-C2=170.64           H19-C9-C8-C7=348.94           H20-N10-C9-C8=291.95          
H20-N10-C9-H18=170.54         H20-N10-C9-H19= 54.37         H21-N10-C9-C8=176.76          H21-N10-C9-H18= 55.34         
H21-N10-C9-H19=299.18         
           -------------------------------------------------
          |                Final Singlepoint                |
           -------------------------------------------------

          ...................................................
          :                      SETUP                      :
          :.................................................:
          :  # basis functions                  62          :
          :  # atomic orbitals                  62          :
          :  # shells                           42          :
          :  # electrons                        56          :
          :  # halogen bonds                     0          :
          :  max. iterations                   250          :
          :  Hamiltonian                  GFN1-xTB          :
          :  restarted?                      false          :
          :  GBSA solvation                   true          :
          :  PC potential                    false          :
          :  electronic temp.          300.0000000     K    :
          :  accuracy                    1.0000000          :
          :  -> integral cutoff          0.2500000E+02      :
          :  -> integral neglect         0.1000000E-07      :
          :  -> SCF convergence          0.1000000E-05 Eh   :
          :  -> wf. convergence          0.2000000E-04 e    :
          :  Broyden damping             0.4000000          :
          ...................................................

 iter      E             dE          RMSdq      gap      omega  full diag
   1    -31.8369343 -0.318369E+02  0.730E-06    2.70       0.0  T
   2    -31.8369343 -0.163425E-12  0.374E-06    2.70    5837.7  T
   3    -31.8369343 -0.639488E-13  0.698E-07    2.70   31271.9  T

   *** convergence criteria satisfied after 3 iterations ***

         #    Occupation            Energy/Eh            Energy/eV
      -------------------------------------------------------------
         1        2.0000           -0.7890978             -21.4724
       ...           ...                  ...                  ...
        22        2.0000           -0.4341551             -11.8140
        23        2.0000           -0.4118311             -11.2065
        24        2.0000           -0.4039226             -10.9913
        25        2.0000           -0.4006605             -10.9025
        26        2.0000           -0.3737314             -10.1698
        27        2.0000           -0.3597128              -9.7883
        28        2.0000           -0.2773253              -7.5464 (HOMO)
        29                         -0.1781474              -4.8476 (LUMO)
        30                         -0.1092469              -2.9728
        31                         -0.0863523              -2.3498
        32                         -0.0801986              -2.1823
        33                         -0.0687506              -1.8708
       ...                                ...                  ...
        62                          0.6606228              17.9765
      -------------------------------------------------------------
                  HL-Gap            0.0991779 Eh            2.6988 eV
             Fermi-level           -0.2277364 Eh           -6.1970 eV

 SCC (total)                   0 d,  0 h,  0 min,  0.030 sec
 SCC setup                      ...        0 min,  0.001 sec (  2.284%)
 Dispersion                     ...        0 min,  0.000 sec (  0.228%)
 classical contributions        ...        0 min,  0.000 sec (  0.080%)
 integral evaluation            ...        0 min,  0.008 sec ( 27.874%)
 iterations                     ...        0 min,  0.003 sec (  8.819%)
 molecular gradient             ...        0 min,  0.018 sec ( 59.631%)
 printout                       ...        0 min,  0.000 sec (  1.012%)

         :::::::::::::::::::::::::::::::::::::::::::::::::::::
         ::                     SUMMARY                     ::
         :::::::::::::::::::::::::::::::::::::::::::::::::::::
         :: total energy             -31.465033930607 Eh    ::
         :: total w/o Gsasa/hb       -31.454325337452 Eh    ::
         :: gradient norm              0.000303798210 Eh/a0 ::
         :: HOMO-LUMO gap              2.698768013247 eV    ::
         ::.................................................::
         :: SCC energy               -31.836934323386 Eh    ::
         :: -> electrostatic           0.135731577813 Eh    ::
         :: -> Gsolv                  -0.083602301759 Eh    ::
         ::    -> Gelec               -0.072893708604 Eh    ::
         ::    -> Gsasa               -0.014035792325 Eh    ::
         ::    -> Ghb                 -0.004297079834 Eh    ::
         ::    -> Gshift               0.007624279005 Eh    ::
         :: repulsion energy           0.382134476793 Eh    ::
         :: dispersion energy         -0.010234084014 Eh    ::
         :: halogen bond corr.         0.000000000000 Eh    ::
         :: add. restraining           0.000000000000 Eh    ::
         :: total charge              -1.000000000000 e     ::
         :::::::::::::::::::::::::::::::::::::::::::::::::::::

           -------------------------------------------------
          |                Property Printout                |
           -------------------------------------------------

    * Orbital Energies and Occupations

         #    Occupation            Energy/Eh            Energy/eV
      -------------------------------------------------------------
         1        2.0000           -0.7890978             -21.4724
       ...           ...                  ...                  ...
        16        2.0000           -0.4873522             -13.2615
        17        2.0000           -0.4783255             -13.0159
        18        2.0000           -0.4690207             -12.7627
        19        2.0000           -0.4634830             -12.6120
        20        2.0000           -0.4553293             -12.3901
        21        2.0000           -0.4446857             -12.1005
        22        2.0000           -0.4341551             -11.8140
        23        2.0000           -0.4118311             -11.2065
        24        2.0000           -0.4039226             -10.9913
        25        2.0000           -0.4006605             -10.9025
        26        2.0000           -0.3737314             -10.1698
        27        2.0000           -0.3597128              -9.7883
        28        2.0000           -0.2773253              -7.5464 (HOMO)
        29                         -0.1781474              -4.8476 (LUMO)
        30                         -0.1092469              -2.9728
        31                         -0.0863523              -2.3498
        32                         -0.0801986              -2.1823
        33                         -0.0687506              -1.8708
        34                         -0.0571719              -1.5557
        35                         -0.0486408              -1.3236
        36                         -0.0382485              -1.0408
        37                         -0.0300962              -0.8190
        38                         -0.0215535              -0.5865
        39                         -0.0175072              -0.4764
       ...                                ...                  ...
        62                          0.6606228              17.9765
      -------------------------------------------------------------
                  HL-Gap            0.0991779 Eh            2.6988 eV
             Fermi-level           -0.2277364 Eh           -6.1970 eV

  Mulliken/CM5 charges         n(s)   n(p)   n(d)
     1C    -0.10162 -0.24884   1.017  3.085  0.000
     2C     0.04100 -0.01680   1.041  2.918  0.000
     3C    -0.24184 -0.29392   1.031  3.211  0.000
     4C     0.23441  0.24393   1.053  2.713  0.000
     5F    -0.35360 -0.37612   1.852  5.502  0.000
     6C    -0.26003 -0.31114   1.015  3.245  0.000
     7C    -0.03961 -0.09190   1.047  2.992  0.000
     8C    -0.14087 -0.15292   1.065  3.076  0.000
     9C     0.09625  0.04452   1.006  2.898  0.000
    10N    -0.53241 -0.98462   1.477  4.055  0.000
    11H     0.00178  0.05392   0.998  0.000  0.000
    12H    -0.00065  0.05212   1.001  0.000  0.000
    13H    -0.00001  0.05176   1.000  0.000  0.000
    14H    -0.02907  0.03091   1.029  0.000  0.000
    15H    -0.00995  0.04679   1.010  0.000  0.000
    16H    -0.01017  0.04645   1.010  0.000  0.000
    17H    -0.02173  0.03463   1.022  0.000  0.000
    18H    -0.01026  0.05390   1.010  0.000  0.000
    19H    -0.00967  0.05275   1.010  0.000  0.000
    20H     0.19207  0.37996   0.808  0.000  0.000
    21H     0.19600  0.38462   0.804  0.000  0.000

Wiberg/Mayer (AO) data.
largest (>0.10) Wiberg bond orders for each atom

 ---------------------------------------------------------------------------
     #   Z sym  total        # sym  WBO       # sym  WBO       # sym  WBO
 ---------------------------------------------------------------------------
     1   6 C    3.991 --    12 H    0.989    13 H    0.988    11 H    0.986
                             2 C    0.965
     2   6 C    3.992 --     3 C    1.007     8 C    0.997    14 H    0.970
                             1 C    0.965
     3   6 C    3.898 --     4 C    1.580     2 C    1.007    15 H    0.975
                             6 C    0.112
     4   6 C    3.823 --     3 C    1.580     6 C    1.306     5 F    0.851
     5   9 F    0.958 --     4 C    0.851
     6   6 C    3.871 --     4 C    1.306     7 C    1.280    16 H    0.977
                             3 C    0.112     8 C    0.105
     7   6 C    3.994 --     8 C    1.631     6 C    1.280    17 H    0.971
     8   6 C    3.934 --     7 C    1.631     9 C    1.009     2 C    0.997
                             6 C    0.105
     9   6 C    3.969 --     8 C    1.009    18 H    0.976    19 H    0.976
                            10 N    0.967
    10   7 N    2.940 --     9 C    0.967    20 H    0.959    21 H    0.958
    11   1 H    1.013 --     1 C    0.986
    12   1 H    1.022 --     1 C    0.989
    13   1 H    1.016 --     1 C    0.988
    14   1 H    1.027 --     2 C    0.970
    15   1 H    1.004 --     3 C    0.975
    16   1 H    1.005 --     6 C    0.977
    17   1 H    1.007 --     7 C    0.971
    18   1 H    1.022 --     9 C    0.976
    19   1 H    1.009 --     9 C    0.976
    20   1 H    0.978 --    10 N    0.959
    21   1 H    0.972 --    10 N    0.958
 ---------------------------------------------------------------------------

Topologies differ in total number of bonds
Writing topology from bond orders to xtbtopo.mol

 dipole moment from electron density (au)
     X       Y       Z   
   3.1150   0.9690   0.1963  total (Debye):    8.307

           -------------------------------------------------
          |                Geometry Summary                 |
           -------------------------------------------------

      molecular mass/u    :      140.1783418
   center of mass at/Å    :       -0.5247235      -0.3399444      -0.0513342
  moments of inertia/u·Å² :        0.2222719E+03   0.5795328E+03   0.6790364E+03
rotational constants/cm⁻¹ :        0.7584239E-01   0.2908831E-01   0.2482582E-01

 * 15 selected distances

     #   Z          #   Z                                           value/Å
     3   6 C        4   6 C                                       1.3573589
     4   6 C        6   6 C                                       1.3981794
     6   6 C        7   6 C                                       1.4168200 (max)
     7   6 C        8   6 C                                       1.3626158
     1   6 C       11   1 H                                       1.0911968
     1   6 C       12   1 H                                       1.0911302
     1   6 C       13   1 H                                       1.0915507
     2   6 C       14   1 H                                       1.1085751
     3   6 C       15   1 H                                       1.0841319
     6   6 C       16   1 H                                       1.0812068
     7   6 C       17   1 H                                       1.0906566
     9   6 C       18   1 H                                       1.1001531
     9   6 C       19   1 H                                       1.1034116
    10   7 N       20   1 H                                       1.0130385
    10   7 N       21   1 H                                       1.0095719 (min)

 * 3 distinct bonds (by element types)

   Z      Z             #   av. dist./Å        max./Å        min./Å
   1 H    6 C           9     1.0935570     1.1085751     1.0812068
   6 C    6 C           4     1.3837435     1.4168200     1.3573589
   1 H    7 N           2     1.0113052     1.0130385     1.0095719


optimized geometry written to: xtbopt.xyz


           -------------------------------------------------
          | TOTAL ENERGY              -31.465033930607 Eh   |
          | GRADIENT NORM               0.000303798210 Eh/α |
          | HOMO-LUMO GAP               2.698768013247 eV   |
           -------------------------------------------------

------------------------------------------------------------------------
 * finished run on 2023/06/20 at 15:12:58.639     
------------------------------------------------------------------------
 total:
 * wall-time:     0 d,  0 h,  0 min,  1.415 sec
 *  cpu-time:     0 d,  0 h,  0 min,  1.342 sec
 * ratio c/w:     0.948 speedup
 SCF:
 * wall-time:     0 d,  0 h,  0 min,  0.036 sec
 *  cpu-time:     0 d,  0 h,  0 min,  0.036 sec
 * ratio c/w:     0.998 speedup
 ANC optimizer:
 * wall-time:     0 d,  0 h,  0 min,  1.306 sec
 *  cpu-time:     0 d,  0 h,  0 min,  1.285 sec
 * ratio c/w:     0.983 speedup

