
                                 *****************
                                 * O   R   C   A *
                                 *****************

                                            #,                                       
                                            ###                                      
                                            ####                                     
                                            #####                                    
                                            ######                                   
                                           ########,                                 
                                     ,,################,,,,,                         
                               ,,#################################,,                 
                          ,,##########################################,,             
                       ,#########################################, ''#####,          
                    ,#############################################,,   '####,        
                  ,##################################################,,,,####,       
                ,###########''''           ''''###############################       
              ,#####''   ,,,,##########,,,,          '''####'''          '####       
            ,##' ,,,,###########################,,,                        '##       
           ' ,,###''''                  '''############,,,                           
         ,,##''                                '''############,,,,        ,,,,,,###''
      ,#''                                            '''#######################'''  
     '                                                          ''''####''''         
             ,#######,   #######,   ,#######,      ##                                
            ,#'     '#,  ##    ##  ,#'     '#,    #''#        ######   ,####,        
            ##       ##  ##   ,#'  ##            #'  '#       #        #'  '#        
            ##       ##  #######   ##           ,######,      #####,   #    #        
            '#,     ,#'  ##    ##  '#,     ,#' ,#      #,         ##   #,  ,#        
             '#######'   ##     ##  '#######'  #'      '#     #####' # '####'        



                  #######################################################
                  #                        -***-                        #
                  #          Department of theory and spectroscopy      #
                  #    Directorship and core code : Frank Neese         #
                  #        Max Planck Institute fuer Kohlenforschung    #
                  #                Kaiser Wilhelm Platz 1               #
                  #                 D-45470 Muelheim/Ruhr               #
                  #                      Germany                        #
                  #                                                     #
                  #                  All rights reserved                #
                  #                        -***-                        #
                  #######################################################


                         Program Version 5.0.1 -  RELEASE  -


 With contributions from (in alphabetic order):
   Daniel Aravena         : Magnetic Suceptibility
   Michael Atanasov       : Ab Initio Ligand Field Theory (pilot matlab implementation)
   Alexander A. Auer      : GIAO ZORA, VPT2 properties, NMR spectrum
   Ute Becker             : Parallelization
   Giovanni Bistoni       : ED, misc. LED, open-shell LED, HFLD
   Martin Brehm           : Molecular dynamics
   Dmytro Bykov           : SCF Hessian
   Vijay G. Chilkuri      : MRCI spin determinant printing, contributions to CSF-ICE
   Dipayan Datta          : RHF DLPNO-CCSD density
   Achintya Kumar Dutta   : EOM-CC, STEOM-CC
   Dmitry Ganyushin       : Spin-Orbit,Spin-Spin,Magnetic field MRCI
   Miquel Garcia          : C-PCM and meta-GGA Hessian, CC/C-PCM, Gaussian charge scheme
   Yang Guo               : DLPNO-NEVPT2, F12-NEVPT2, CIM, IAO-localization
   Andreas Hansen         : Spin unrestricted coupled pair/coupled cluster methods
   Benjamin Helmich-Paris : MC-RPA, TRAH-SCF, COSX integrals
   Lee Huntington         : MR-EOM, pCC
   Robert Izsak           : Overlap fitted RIJCOSX, COSX-SCS-MP3, EOM
   Marcus Kettner         : VPT2
   Christian Kollmar      : KDIIS, OOCD, Brueckner-CCSD(T), CCSD density, CASPT2, CASPT2-K
   Simone Kossmann        : Meta GGA functionals, TD-DFT gradient, OOMP2, MP2 Hessian
   Martin Krupicka        : Initial AUTO-CI
   Lucas Lang             : DCDCAS
   Marvin Lechner         : AUTO-CI (C++ implementation), FIC-MRCC
   Dagmar Lenk            : GEPOL surface, SMD
   Dimitrios Liakos       : Extrapolation schemes; Compound Job, initial MDCI parallelization
   Dimitrios Manganas     : Further ROCIS development; embedding schemes
   Dimitrios Pantazis     : SARC Basis sets
   Anastasios Papadopoulos: AUTO-CI, single reference methods and gradients
   Taras Petrenko         : DFT Hessian,TD-DFT gradient, ASA, ECA, R-Raman, ABS, FL, XAS/XES, NRVS
   Peter Pinski           : DLPNO-MP2, DLPNO-MP2 Gradient
   Christoph Reimann      : Effective Core Potentials
   Marius Retegan         : Local ZFS, SOC
   Christoph Riplinger    : Optimizer, TS searches, QM/MM, DLPNO-CCSD(T), (RO)-DLPNO pert. Triples
   Tobias Risthaus        : Range-separated hybrids, TD-DFT gradient, RPA, STAB
   Michael Roemelt        : Original ROCIS implementation
   Masaaki Saitow         : Open-shell DLPNO-CCSD energy and density
   Barbara Sandhoefer     : DKH picture change effects
   Avijit Sen             : IP-ROCIS
   Kantharuban Sivalingam : CASSCF convergence, NEVPT2, FIC-MRCI
   Bernardo de Souza      : ESD, SOC TD-DFT
   Georgi Stoychev        : AutoAux, RI-MP2 NMR, DLPNO-MP2 response
   Willem Van den Heuvel  : Paramagnetic NMR
   Boris Wezisla          : Elementary symmetry handling
   Frank Wennmohs         : Technical directorship


 We gratefully acknowledge several colleagues who have allowed us to
 interface, adapt or use parts of their codes:
   Stefan Grimme, W. Hujo, H. Kruse, P. Pracht,  : VdW corrections, initial TS optimization,
                  C. Bannwarth, S. Ehlert          DFT functionals, gCP, sTDA/sTD-DF
   Ed Valeev, F. Pavosevic, A. Kumar             : LibInt (2-el integral package), F12 methods
   Garnet Chan, S. Sharma, J. Yang, R. Olivares  : DMRG
   Ulf Ekstrom                                   : XCFun DFT Library
   Mihaly Kallay                                 : mrcc  (arbitrary order and MRCC methods)
   Jiri Pittner, Ondrej Demel                    : Mk-CCSD
   Frank Weinhold                                : gennbo (NPA and NBO analysis)
   Christopher J. Cramer and Donald G. Truhlar   : smd solvation model
   Lars Goerigk                                  : TD-DFT with DH, B97 family of functionals
   V. Asgeirsson, H. Jonsson                     : NEB implementation
   FAccTs GmbH                                   : IRC, NEB, NEB-TS, DLPNO-Multilevel, CI-OPT
                                                   MM, QMMM, 2- and 3-layer-ONIOM, Crystal-QMMM,
                                                   LR-CPCM, SF, NACMEs, symmetry and pop. for TD-DFT,
                                                   nearIR, NL-DFT gradient (VV10), updates on ESD,
                                                   ML-optimized integration grids
   S Lehtola, MJT Oliveira, MAL Marques          : LibXC Library
   Liviu Ungur et al                             : ANISO software


 Your calculation uses the libint2 library for the computation of 2-el integrals
 For citations please refer to: http://libint.valeyev.net

 Your ORCA version has been built with support for libXC version: 5.1.0
 For citations please refer to: https://tddft.org/programs/libxc/

 This ORCA versions uses:
   CBLAS   interface :  Fast vector & matrix operations
   LAPACKE interface :  Fast linear algebra routines
   SCALAPACK package :  Parallel linear algebra routines
   Shared memory     :  Shared parallel matrices
   BLAS/LAPACK       :  OpenBLAS 0.3.15  USE64BITINT DYNAMIC_ARCH NO_AFFINITY Haswell SINGLE_THREADED
        Core in use  :  Haswell
   Copyright (c) 2011-2014, The OpenBLAS Project


Your calculation utilizes the geometrical counterpoise correction gCP
Please cite in your paper:
H.Kruse, S. Grimme J.Chem.Phys., 136, (2012), 154101 
   

Your calculation utilizes the atom-pairwise dispersion correction
based on tight binding partial charges (D4)
Cite in your paper:
E.Caldeweyher, C.Bannwarth, S.Grimme, J.Chem.Phys., (2017), 147, 034112.
E.Caldeweyher, S.Ehlert, A.Hansen, H.Neugebauer, S.Grimme, J.Chem.Phys., (2018), in progress.
   

Your calculation utilizes the SMD solvation module
Please cite in your paper:
A.V. Marenich, C.J. Cramer, D.G. Truhlar J. Phys. Chem. B, 113, (2009), 6378 

================================================================================

----- Orbital basis set information -----
Your calculation utilizes the basis: def2-mTZVPP
   Stefan Grimme, Andreas Hansen, Sebastian Ehlert, and Jan-Michael Mewes 
   J. Chem. Phys. 154, 000000 (2021). DOI: 10.1063/5.0040021

----- AuxJ basis set information -----
Your calculation utilizes the basis: def2-mTZVPP/J
   Stefan Grimme, Andreas Hansen, Sebastian Ehlert, and Jan-Michael Mewes 
   J. Chem. Phys. 154, 000000 (2021). DOI: 10.1063/5.0040021

================================================================================
                                        WARNINGS
                       Please study these warnings very carefully!
================================================================================

Using LibXC functional ID 497 : Re-regularized SCAN exchange by Furness et al
[ 1]  J. W. Furness, A. D. Kaplan, J. Ning, J. P. Perdew, and J. Sun, J. Phys. Chem. Lett. 11, 8208 (2020)
[ 2]  J. W. Furness, A. D. Kaplan, J. Ning, J. P. Perdew, and J. Sun, J. Phys. Chem. Lett. 11, 9248 (2020)
Using LibXC functional ID 498 : Re-regularized SCAN correlation by Furness et al
[ 1]  J. W. Furness, A. D. Kaplan, J. Ning, J. P. Perdew, and J. Sun, J. Phys. Chem. Lett. 11, 8208 (2020)
[ 2]  J. W. Furness, A. D. Kaplan, J. Ning, J. P. Perdew, and J. Sun, J. Phys. Chem. Lett. 11, 9248 (2020)
Using LibXC functional ID 497 : Re-regularized SCAN exchange by Furness et al
[ 1]  J. W. Furness, A. D. Kaplan, J. Ning, J. P. Perdew, and J. Sun, J. Phys. Chem. Lett. 11, 8208 (2020)
[ 2]  J. W. Furness, A. D. Kaplan, J. Ning, J. P. Perdew, and J. Sun, J. Phys. Chem. Lett. 11, 9248 (2020)
Using LibXC functional ID 498 : Re-regularized SCAN correlation by Furness et al
[ 1]  J. W. Furness, A. D. Kaplan, J. Ning, J. P. Perdew, and J. Sun, J. Phys. Chem. Lett. 11, 8208 (2020)
[ 2]  J. W. Furness, A. D. Kaplan, J. Ning, J. P. Perdew, and J. Sun, J. Phys. Chem. Lett. 11, 9248 (2020)

INFO   : the flag for use of the SHARK integral package has been found!

================================================================================
                                       INPUT FILE
================================================================================
NAME = /lustre/hpc/kemi/ree/PhD/git/ReactivityQM/calculations/R01/reac02prodE07/conf04/gfn1/orca_calc.inp
|  1> # ORCA input file 
|  2> ! SP r2SCAN-3c CPCM 
|  3> 
|  4> %maxcore 1875.0 
|  5> %pal nprocs 4 end 
|  6> %cpcm smd true SMDsolvent "DMSO" end 
|  7> 
|  8> *xyz -1 1
|  9> C       4.599470   -1.011562   -0.009415
| 10> O       3.192531   -0.903732   -0.073125
| 11> C       2.695479    0.406362    0.033359
| 12> O       3.530742    1.360097    0.144306
| 13> C       1.324775    0.542780   -0.014487
| 14> C       0.703392    1.859638    0.150737
| 15> O       1.515173    2.919221    0.461467
| 16> C      -0.631425    1.980006    0.071067
| 17> O      -1.385811    3.134105    0.254994
| 18> C      -1.280413    3.739150    1.536417
| 19> N      -1.424484    0.842960   -0.317996
| 20> C      -0.792471   -0.405325   -0.146166
| 21> C      -1.739210   -1.591413   -0.192732
| 22> C      -2.151579   -1.836847   -1.651676
| 23> C      -1.057831   -2.837973    0.387338
| 24> N      -2.946151   -1.251475    0.568750
| 25> N       0.465163   -0.577769   -0.066786
| 26> H       5.081396   -0.485377   -0.843969
| 27> H       4.991512   -0.601258    0.930223
| 28> H       4.846447   -2.073607   -0.066366
| 29> H       2.455340    2.541834    0.412971
| 30> H      -1.543958    3.032343    2.334040
| 31> H      -1.982883    4.575317    1.553277
| 32> H      -0.265359    4.117089    1.718824
| 33> H      -2.362674    0.860042    0.069099
| 34> H      -2.647663   -0.951434   -2.050098
| 35> H      -1.272494   -2.053979   -2.258994
| 36> H      -2.837521   -2.681041   -1.714186
| 37> H      -0.773595   -2.658996    1.424041
| 38> H      -0.157838   -3.068814   -0.183985
| 39> H      -1.734701   -3.689955    0.350128
| 40> H      -2.746720   -1.297766    1.559463
| 41> H      -3.666645   -1.932619    0.378523
| 42> **                         ****END OF INPUT****
================================================================================

                       ****************************
                       * Single Point Calculation *
                       ****************************

---------------------------------
CARTESIAN COORDINATES (ANGSTROEM)
---------------------------------
  C      4.599470   -1.011562   -0.009415
  O      3.192531   -0.903732   -0.073125
  C      2.695479    0.406362    0.033359
  O      3.530742    1.360097    0.144306
  C      1.324775    0.542780   -0.014487
  C      0.703392    1.859638    0.150737
  O      1.515173    2.919221    0.461467
  C     -0.631425    1.980006    0.071067
  O     -1.385811    3.134105    0.254994
  C     -1.280413    3.739150    1.536417
  N     -1.424484    0.842960   -0.317996
  C     -0.792471   -0.405325   -0.146166
  C     -1.739210   -1.591413   -0.192732
  C     -2.151579   -1.836847   -1.651676
  C     -1.057831   -2.837973    0.387338
  N     -2.946151   -1.251475    0.568750
  N      0.465163   -0.577769   -0.066786
  H      5.081396   -0.485377   -0.843969
  H      4.991512   -0.601258    0.930223
  H      4.846447   -2.073607   -0.066366
  H      2.455340    2.541834    0.412971
  H     -1.543958    3.032343    2.334040
  H     -1.982883    4.575317    1.553277
  H     -0.265359    4.117089    1.718824
  H     -2.362674    0.860042    0.069099
  H     -2.647663   -0.951434   -2.050098
  H     -1.272494   -2.053979   -2.258994
  H     -2.837521   -2.681041   -1.714186
  H     -0.773595   -2.658996    1.424041
  H     -0.157838   -3.068814   -0.183985
  H     -1.734701   -3.689955    0.350128
  H     -2.746720   -1.297766    1.559463
  H     -3.666645   -1.932619    0.378523

----------------------------
CARTESIAN COORDINATES (A.U.)
----------------------------
  NO LB      ZA    FRAG     MASS         X           Y           Z
   0 C     6.0000    0    12.011    8.691739   -1.911575   -0.017792
   1 O     8.0000    0    15.999    6.033009   -1.707806   -0.138186
   2 C     6.0000    0    12.011    5.093717    0.767913    0.063039
   3 O     8.0000    0    15.999    6.672135    2.570211    0.272699
   4 C     6.0000    0    12.011    2.503462    1.025706   -0.027376
   5 C     6.0000    0    12.011    1.329218    3.514207    0.284852
   6 O     8.0000    0    15.999    2.863262    5.516528    0.872046
   7 C     6.0000    0    12.011   -1.193220    3.741669    0.134297
   8 O     8.0000    0    15.999   -2.618803    5.922600    0.481869
   9 C     6.0000    0    12.011   -2.419630    7.065969    2.903407
  10 N     7.0000    0    14.007   -2.691885    1.592964   -0.600925
  11 C     6.0000    0    12.011   -1.497553   -0.765953   -0.276214
  12 C     6.0000    0    12.011   -3.286631   -3.007335   -0.364211
  13 C     6.0000    0    12.011   -4.065895   -3.471138   -3.121215
  14 C     6.0000    0    12.011   -1.999011   -5.362992    0.731963
  15 N     7.0000    0    14.007   -5.567419   -2.364945    1.074782
  16 N     7.0000    0    14.007    0.879031   -1.091825   -0.126207
  17 H     1.0000    0     1.008    9.602447   -0.917230   -1.594870
  18 H     1.0000    0     1.008    9.432591   -1.136213    1.757867
  19 H     1.0000    0     1.008    9.158458   -3.918549   -0.125414
  20 H     1.0000    0     1.008    4.639920    4.803370    0.780402
  21 H     1.0000    0     1.008   -2.917658    5.730298    4.410696
  22 H     1.0000    0     1.008   -3.747106    8.646096    2.935268
  23 H     1.0000    0     1.008   -0.501456    7.780171    3.248107
  24 H     1.0000    0     1.008   -4.464807    1.625244    0.130578
  25 H     1.0000    0     1.008   -5.003358   -1.797950   -3.874124
  26 H     1.0000    0     1.008   -2.404665   -3.881458   -4.268880
  27 H     1.0000    0     1.008   -5.362138   -5.066433   -3.239342
  28 H     1.0000    0     1.008   -1.461883   -5.024774    2.691047
  29 H     1.0000    0     1.008   -0.298271   -5.799218   -0.347681
  30 H     1.0000    0     1.008   -3.278110   -6.973004    0.661646
  31 H     1.0000    0     1.008   -5.190549   -2.452422    2.946958
  32 H     1.0000    0     1.008   -6.928955   -3.652121    0.715305

--------------------------------
INTERNAL COORDINATES (ANGSTROEM)
--------------------------------
 C      0   0   0     0.000000000000     0.00000000     0.00000000
 O      1   0   0     1.412502609810     0.00000000     0.00000000
 C      2   1   0     1.405256496799   114.83888870     0.00000000
 O      3   2   1     1.272628762131   118.23751932     1.52764008
 C      3   2   1     1.378306412252   116.19325838   180.50825405
 C      5   3   2     1.465445596066   120.44494441   177.12972805
 O      6   5   3     1.370495406322   117.97910251   354.72879878
 C      6   5   3     1.342599042087   119.69862311   178.48467792
 O      8   6   5     1.390996721824   127.28134399   177.21131360
 C      9   8   6     1.420997218631   115.61277991   299.28210174
 N      8   6   5     1.439856312819   119.52700354   353.32877554
 C     11   8   6     1.409674225590   114.79712045    20.66787264
 C     12  11   8     1.518317447117   114.10762258   164.20172839
 C     13  12  11     1.535839716785   108.74707130    74.84751144
 C     13  12  11     1.534493525611   110.25078663   196.01138223
 N     13  12  11     1.467010312728   108.42521044   317.63773966
 N     12  11   8     1.271881046125   124.81892185   338.60131311
 H      1   2   3     1.097999864580   111.48870914   297.33941886
 H      1   2   3     1.097709375574   111.45766557    58.54961420
 H      1   2   3     1.091870247307   107.28993478   177.94399844
 H      7   6   5     1.014241981814   104.51004769     5.94574978
 H     10   9   8     1.097831750499   111.29951190   303.60077583
 H     10   9   8     1.092210424959   106.98901593   184.49545959
 H     10   9   8     1.098382822283   111.39589929    65.25407016
 H     11   8   6     1.015054092080   113.12554845   151.65100319
 H     14  13  12     1.090319038497   109.84725374   300.24016206
 H     14  13  12     1.090308165508   110.14940292    60.27452419
 H     14  13  12     1.089535422600   110.32586155   180.33692790
 H     15  13  12     1.089759597542   109.99967779    60.17338706
 H     15  13  12     1.090726793317   109.89593735   300.73848329
 H     15  13  12     1.088765773398   110.28648898   180.25293160
 H     16  13  12     1.011646098599   109.60534860   284.46631758
 H     16  13  12     1.009581628350   109.45085752   167.26279192

---------------------------
INTERNAL COORDINATES (A.U.)
---------------------------
 C      0   0   0     0.000000000000     0.00000000     0.00000000
 O      1   0   0     2.669243095991     0.00000000     0.00000000
 C      2   1   0     2.655549926864   114.83888870     0.00000000
 O      3   2   1     2.404919830579   118.23751932     1.52764008
 C      3   2   1     2.604621647785   116.19325838   180.50825405
 C      5   3   2     2.769290840726   120.44494441   177.12972805
 O      6   5   3     2.589860985746   117.97910251   354.72879878
 C      6   5   3     2.537144497209   119.69862311   178.48467792
 O      8   6   5     2.628602857430   127.28134399   177.21131360
 C      9   8   6     2.685295580277   115.61277991   299.28210174
 N      8   6   5     2.720934103426   119.52700354   353.32877554
 C     11   8   6     2.663898224413   114.79712045    20.66787264
 C     12  11   8     2.869204159406   114.10762258   164.20172839
 C     13  12  11     2.902316450322   108.74707130    74.84751144
 C     13  12  11     2.899772517679   110.25078663   196.01138223
 N     13  12  11     2.772247726693   108.42521044   317.63773966
 N     12  11   8     2.403506852101   124.81892185   338.60131311
 H      1   2   3     2.074919039138   111.48870914   297.33941886
 H      1   2   3     2.074370094473   111.45766557    58.54961420
 H      1   2   3     2.063335741188   107.28993478   177.94399844
 H      7   6   5     1.916639579154   104.51004769     5.94574978
 H     10   9   8     2.074601349566   111.29951190   303.60077583
 H     10   9   8     2.063978583786   106.98901593   184.49545959
 H     10   9   8     2.075642724318   111.39589929    65.25407016
 H     11   8   6     1.918174245148   113.12554845   151.65100319
 H     14  13  12     2.060404381360   109.84725374   300.24016206
 H     14  13  12     2.060383834388   110.14940292    60.27452419
 H     14  13  12     2.058923561920   110.32586155   180.33692790
 H     15  13  12     2.059347191166   109.99967779    60.17338706
 H     15  13  12     2.061174926299   109.89593735   300.73848329
 H     15  13  12     2.057469135710   110.28648898   180.25293160
 H     16  13  12     1.911734070802   109.60534860   284.46631758
 H     16  13  12     1.907832787419   109.45085752   167.26279192

---------------------
BASIS SET INFORMATION
---------------------
There are 4 groups of distinct atoms

 Group   1 Type C   : 11s6p1d contracted to 5s3p1d pattern {62111/411/1}
 Group   2 Type O   : 11s6p2d contracted to 5s3p2d pattern {62111/411/11}
 Group   3 Type N   : 11s6p2d contracted to 5s3p2d pattern {62111/411/11}
 Group   4 Type H   : 4s1p contracted to 2s1p pattern {31/1}

Atom   0C    basis set group =>   1
Atom   1O    basis set group =>   2
Atom   2C    basis set group =>   1
Atom   3O    basis set group =>   2
Atom   4C    basis set group =>   1
Atom   5C    basis set group =>   1
Atom   6O    basis set group =>   2
Atom   7C    basis set group =>   1
Atom   8O    basis set group =>   2
Atom   9C    basis set group =>   1
Atom  10N    basis set group =>   3
Atom  11C    basis set group =>   1
Atom  12C    basis set group =>   1
Atom  13C    basis set group =>   1
Atom  14C    basis set group =>   1
Atom  15N    basis set group =>   3
Atom  16N    basis set group =>   3
Atom  17H    basis set group =>   4
Atom  18H    basis set group =>   4
Atom  19H    basis set group =>   4
Atom  20H    basis set group =>   4
Atom  21H    basis set group =>   4
Atom  22H    basis set group =>   4
Atom  23H    basis set group =>   4
Atom  24H    basis set group =>   4
Atom  25H    basis set group =>   4
Atom  26H    basis set group =>   4
Atom  27H    basis set group =>   4
Atom  28H    basis set group =>   4
Atom  29H    basis set group =>   4
Atom  30H    basis set group =>   4
Atom  31H    basis set group =>   4
Atom  32H    basis set group =>   4
---------------------------------
AUXILIARY/J BASIS SET INFORMATION
---------------------------------
There are 4 groups of distinct atoms

 Group   1 Type C   : 8s3p3d contracted to 6s3p3d pattern {311111/111/111}
 Group   2 Type O   : 8s3p3d contracted to 6s3p3d pattern {311111/111/111}
 Group   3 Type N   : 8s3p3d contracted to 6s3p3d pattern {311111/111/111}
 Group   4 Type H   : 5s2p1d contracted to 3s1p1d pattern {311/2/1}

Atom   0C    basis set group =>   1
Atom   1O    basis set group =>   2
Atom   2C    basis set group =>   1
Atom   3O    basis set group =>   2
Atom   4C    basis set group =>   1
Atom   5C    basis set group =>   1
Atom   6O    basis set group =>   2
Atom   7C    basis set group =>   1
Atom   8O    basis set group =>   2
Atom   9C    basis set group =>   1
Atom  10N    basis set group =>   3
Atom  11C    basis set group =>   1
Atom  12C    basis set group =>   1
Atom  13C    basis set group =>   1
Atom  14C    basis set group =>   1
Atom  15N    basis set group =>   3
Atom  16N    basis set group =>   3
Atom  17H    basis set group =>   4
Atom  18H    basis set group =>   4
Atom  19H    basis set group =>   4
Atom  20H    basis set group =>   4
Atom  21H    basis set group =>   4
Atom  22H    basis set group =>   4
Atom  23H    basis set group =>   4
Atom  24H    basis set group =>   4
Atom  25H    basis set group =>   4
Atom  26H    basis set group =>   4
Atom  27H    basis set group =>   4
Atom  28H    basis set group =>   4
Atom  29H    basis set group =>   4
Atom  30H    basis set group =>   4
Atom  31H    basis set group =>   4
Atom  32H    basis set group =>   4


           ************************************************************
           *        Program running with 4 parallel MPI-processes     *
           *              working on a common directory               *
           ************************************************************
------------------------------------------------------------------------------
                           ORCA GTO INTEGRAL CALCULATION
                           -- RI-GTO INTEGRALS CHOSEN --
------------------------------------------------------------------------------
------------------------------------------------------------------------------
                   ___                                                        
                  /   \      - P O W E R E D   B Y -                         
                 /     \                                                     
                 |  |  |   _    _      __       _____    __    __             
                 |  |  |  | |  | |    /  \     |  _  \  |  |  /  |          
                  \  \/   | |  | |   /    \    | | | |  |  | /  /          
                 / \  \   | |__| |  /  /\  \   | |_| |  |  |/  /          
                |  |  |   |  __  | /  /__\  \  |    /   |      \           
                |  |  |   | |  | | |   __   |  |    \   |  |\   \          
                \     /   | |  | | |  |  |  |  | |\  \  |  | \   \       
                 \___/    |_|  |_| |__|  |__|  |_| \__\ |__|  \__/        
                                                                              
                      - O R C A' S   B I G   F R I E N D -                    
                                      &                                       
                       - I N T E G R A L  F E E D E R -                       
                                                                              
 v1 FN, 2020, v2 2021                                                         
------------------------------------------------------------------------------


Reading SHARK input file /lustre/hpc/kemi/ree/PhD/git/ReactivityQM/calculations/R01/reac02prodE07/conf04/gfn1/orca_calc.SHARKINP.tmp ... ok
----------------------
SHARK INTEGRAL PACKAGE
----------------------

Number of atoms                             ...     33
Number of basis functions                   ...    438
Number of shells                            ...    208
Maximum angular momentum                    ...      2
Integral batch strategy                     ... SHARK/LIBINT Hybrid
RI-J (if used) integral strategy            ... SPLIT-RIJ (Revised 2003 algorithm where possible)
Printlevel                                  ...      1
Contraction scheme used                     ... SEGMENTED contraction
Coulomb Range Separation                    ... NOT USED
Exchange Range Separation                   ... NOT USED
Finite Nucleus Model                        ... NOT USED
Auxiliary Coulomb fitting basis             ... AVAILABLE
   # of basis functions in Aux-J            ...    686
   # of shells in Aux-J                     ...    284
   Maximum angular momentum in Aux-J        ...      2
Auxiliary J/K fitting basis                 ... NOT available
Auxiliary Correlation fitting basis         ... NOT available
Auxiliary 'external' fitting basis          ... NOT available
Integral threshold                          ...     1.000000e-10
Primitive cut-off                           ...     1.000000e-11
Primitive pair pre-selection threshold      ...     1.000000e-11

Calculating pre-screening integrals         ... done (  0.2 sec) Dimension = 208
Organizing shell pair data                  ... done (  0.2 sec)
Shell pair information
Total number of shell pairs                 ...     21736
Shell pairs after pre-screening             ...     16132
Total number of primitive shell pairs       ...     77843
Primitive shell pairs kept                  ...     37360
          la=0 lb=0:   4828 shell pairs
          la=1 lb=0:   5865 shell pairs
          la=1 lb=1:   1794 shell pairs
          la=2 lb=0:   2126 shell pairs
          la=2 lb=1:   1273 shell pairs
          la=2 lb=2:    246 shell pairs

Calculating one electron integrals          ... done (  0.1 sec)
Calculating RI/J V-Matrix + Cholesky decomp.... done (  0.1 sec)
Calculating Nuclear repulsion               ... done (  0.0 sec) ENN=   1297.230252840391 Eh

SHARK setup successfully completed in   0.6 seconds

Maximum memory used throughout the entire GTOINT-calculation: 24.1 MB


           ************************************************************
           *        Program running with 4 parallel MPI-processes     *
           *              working on a common directory               *
           ************************************************************
-------------------------------------------------------------------------------
                                 ORCA SCF
-------------------------------------------------------------------------------

------------
SCF SETTINGS
------------
Hamiltonian:
 Density Functional     Method          .... DFT(GTOs)
  Functional kind                       .... Exchange
  Functional name                       .... Re-regularized SCAN exchange by Furness et al
  Functional family                     .... MGGA
  Functional refs                              
    [ 0] J. W. Furness, A. D. Kaplan, J. Ning, J. P. Perdew, and J. Sun, J. Phys. Chem. Lett. 11, 8208 (2020)
    [ 1] J. W. Furness, A. D. Kaplan, J. Ning, J. P. Perdew, and J. Sun, J. Phys. Chem. Lett. 11, 9248 (2020)
  Functional external parameters         .... 8
 Parameter  0 :         c1 parameter
 Parameter  1 :         c2 parameter
 Parameter  2 :          d parameter
 Parameter  3 :         k1 parameter
 Parameter  4 :       taur parameter
 Parameter  5 :     alphar parameter
 Parameter  6 :        eta parameter
 Parameter  7 :        dp2 parameter
  Functional kind                       .... Correlation
  Functional name                       .... Re-regularized SCAN correlation by Furness et al
  Functional family                     .... MGGA
  Functional refs                              
    [ 0] J. W. Furness, A. D. Kaplan, J. Ning, J. P. Perdew, and J. Sun, J. Phys. Chem. Lett. 11, 8208 (2020)
    [ 1] J. W. Furness, A. D. Kaplan, J. Ning, J. P. Perdew, and J. Sun, J. Phys. Chem. Lett. 11, 9248 (2020)
  Functional external parameters         .... 0
 Gradients option       PostSCFGGA      .... off
   Density functional embedding theory  .... OFF
 RI-approximation to the Coulomb term is turned on
   Number of AuxJ basis functions       .... 686


General Settings:
 Integral files         IntName         .... /lustre/hpc/kemi/ree/PhD/git/ReactivityQM/calculations/R01/reac02prodE07/conf04/gfn1/orca_calc
 Hartree-Fock type      HFTyp           .... RHF
 Total Charge           Charge          ....   -1
 Multiplicity           Mult            ....    1
 Number of Electrons    NEL             ....  130
 Basis Dimension        Dim             ....  438
 Nuclear Repulsion      ENuc            ....   1297.2302528404 Eh

Convergence Acceleration:
 DIIS                   CNVDIIS         .... on
   Start iteration      DIISMaxIt       ....    12
   Startup error        DIISStart       ....  0.200000
   # of expansion vecs  DIISMaxEq       ....     5
   Bias factor          DIISBfac        ....   1.050
   Max. coefficient     DIISMaxC        ....  10.000
 Trust-Rad. Augm. Hess. CNVTRAH         .... auto
   Auto Start mean grad. ratio tolernc. ....  1.125000
   Auto Start start iteration           ....    20
   Auto Start num. interpolation iter.  ....    10
   Max. Number of Micro iterations      ....    16
   Max. Number of Macro iterations      .... Maxiter - #DIIS iter
   Number of Davidson start vectors     ....     2
   Converg. threshold I  (grad. norm)   ....   5.000e-05
   Converg. threshold II (energy diff.) ....   1.000e-06
   Grad. Scal. Fac. for Micro threshold ....   0.100
   Minimum threshold for Micro iter.    ....   0.010
   NR start threshold (gradient norm)   ....   0.001
   Initial trust radius                 ....   0.400
   Minimum AH scaling param. (alpha)    ....   1.000
   Maximum AH scaling param. (alpha)    .... 1000.000
   Orbital update algorithm             .... Taylor
   White noise on init. David. guess    .... on
   Maximum white noise                  ....   0.010
   Quad. conv. algorithm                .... NR
   COSX micro iterations for RIJONX calc.... off
 SOSCF                  CNVSOSCF        .... on
   Start iteration      SOSCFMaxIt      ....   150
   Startup grad/error   SOSCFStart      ....  0.003300
 Level Shifting         CNVShift        .... on
   Level shift para.    LevelShift      ....    0.2500
   Turn off err/grad.   ShiftErr        ....    0.0010
 Zerner damping         CNVZerner       .... off
 Static damping         CNVDamp         .... on
   Fraction old density DampFac         ....    0.7000
   Max. Damping (<1)    DampMax         ....    0.9800
   Min. Damping (>=0)   DampMin         ....    0.0000
   Turn off err/grad.   DampErr         ....    0.1000
 Fernandez-Rico         CNVRico         .... off

SCF Procedure:
 Maximum # iterations   MaxIter         ....   125
 SCF integral mode      SCFMode         .... Direct
   Integral package                     .... SHARK and LIBINT hybrid scheme
 Reset frequency        DirectResetFreq ....    20
 Integral Threshold     Thresh          ....  1.000e-10 Eh
 Primitive CutOff       TCut            ....  1.000e-11 Eh

Convergence Tolerance:
 Convergence Check Mode ConvCheckMode   .... Total+1el-Energy
 Convergence forced     ConvForced      .... 0
 Energy Change          TolE            ....  1.000e-06 Eh
 1-El. energy change                    ....  1.000e-03 Eh
 Orbital Gradient       TolG            ....  5.000e-05
 Orbital Rotation angle TolX            ....  5.000e-05
 DIIS Error             TolErr          ....  1.000e-06


Diagonalization of the overlap matrix:
Smallest eigenvalue                        ... 2.663e-05
Time for diagonalization                   ...    0.046 sec
Threshold for overlap eigenvalues          ... 1.000e-08
Number of eigenvalues below threshold      ... 0
Time for construction of square roots      ...    0.028 sec
Total time needed                          ...    0.083 sec

Time for model grid setup =    0.568 sec

------------------------------
INITIAL GUESS: MODEL POTENTIAL
------------------------------
Loading Hartree-Fock densities                     ... done
Calculating cut-offs                               ... done
Initializing the effective Hamiltonian             ... done
Setting up the integral package (SHARK)            ... done
Starting the Coulomb interaction                   ... done (   0.7 sec)
Reading the grid                                   ... done
Mapping shells                                     ... done
Starting the XC term evaluation                    ... done (   0.4 sec)
  promolecular density results
     # of electrons  =    128.986553374
     EX              =   -108.126515706
     EC              =     -4.347700942
     EX+EC           =   -112.474216648
Transforming the Hamiltonian                       ... done (   0.0 sec)
Diagonalizing the Hamiltonian                      ... done (   0.0 sec)
Back transforming the eigenvectors                 ... done (   0.0 sec)
Now organizing SCF variables                       ... done
                      ------------------
                      INITIAL GUESS DONE (   1.8 sec)
                      ------------------
-------------------
DFT GRID GENERATION
-------------------

General Integration Accuracy     IntAcc      ... 4.388
Radial Grid Type                 RadialGrid  ... OptM3 with GC (2021)
Angular Grid (max. ang.)         AngularGrid ... 4 (Lebedev-302)
Angular grid pruning method      GridPruning ... 4 (adaptive)
Weight generation scheme         WeightScheme... Becke
Basis function cutoff            BFCut       ... 1.0000e-10
Integration weight cutoff        WCut        ... 1.0000e-14
Angular grids for H and He will be reduced by one unit
Partially contracted basis set               ... off
Rotationally invariant grid construction     ... off

Total number of grid points                  ...   154302
Total number of batches                      ...     2426
Average number of points per batch           ...       63
Average number of grid points per atom       ...     4676
Time for grid setup =    1.954 sec


--------------------
CPCM SOLVATION MODEL
--------------------
CPCM parameters:
  Epsilon                                         ...      46.8260
  Refrac                                          ...       1.4170
  Rsolv                                           ...       1.3000
  Surface type                                    ... GAUSSIAN VDW
  Epsilon function type                           ...         CPCM
Solvent:                                     ... DMSO
SMD-CDS solvent descriptors:
  Soln                                       ...    1.4170
  Soln25                                     ...    1.4773
  Sola                                       ...    0.0000
  Solb                                       ...    0.8800
  Solg                                       ...   61.7800
  Solc                                       ...    0.0000
  Solh                                       ...    0.0000
Radii:
 Radius for C  used is    3.4960 Bohr (=   1.8500 Ang.)
 Radius for O  used is    4.3350 Bohr (=   2.2940 Ang.)
 Radius for N  used is    3.5716 Bohr (=   1.8900 Ang.)
 Radius for H  used is    2.2677 Bohr (=   1.2000 Ang.)
Calculating surface                               ...        done! (  0.0s)
GEPOL surface points                              ...         1692
GEPOL Volume                                      ...    1996.6481
GEPOL Surface-area                                ...    1036.2141
Calculating surface distance matrix               ...        done! (  0.0s)
Performing Cholesky decomposition & store         ...        done! (  0.1s)
Overall time for CPCM initialization              ...                 0.2s
--------------
SCF ITERATIONS
--------------
ITER       Energy         Delta-E        Max-DP      RMS-DP      [F,P]     Damp
               ***  Starting incremental Fock matrix formation  ***
  0   -855.2869899815   0.000000000000 0.40630751  0.00285153  0.2952031 0.7000
  1   -855.5327792412  -0.245789259718 0.42777191  0.00285756  0.1150532 0.7000
                               ***Turning on DIIS***
  2   -855.6236938638  -0.090914622549 0.66477888  0.00460292  0.0415567 0.0000
  3   -855.7659150528  -0.142221189058 0.35600828  0.00245987  0.0664734 0.0000
  4   -855.7998919369  -0.033976884088 0.14652974  0.00098588  0.0134573 0.0000
  5   -855.8022523832  -0.002360446290 0.06366635  0.00040773  0.0075789 0.0000
                      *** Initiating the SOSCF procedure ***
                           *** Shutting down DIIS ***
                      *** Re-Reading the Fockian *** 
                      *** Removing any level shift *** 
ITER      Energy       Delta-E        Grad      Rot      Max-DP    RMS-DP
  6   -855.80240888  -0.0001565011  0.000509  0.000509  0.016034  0.000123
               *** Restarting incremental Fock matrix formation ***
  7   -855.80242810  -0.0000192116  0.000140  0.000538  0.007999  0.000070
  8   -855.80242425   0.0000038444  0.000414  0.000818  0.002654  0.000023
  9   -855.80243140  -0.0000071462  0.000088  0.000511  0.002079  0.000022
 10   -855.80243084   0.0000005586  0.000119  0.000300  0.000410  0.000006
 11   -855.80243180  -0.0000009653  0.000026  0.000102  0.001031  0.000006
 12   -855.80243172   0.0000000871  0.000046  0.000094  0.000267  0.000003
                  ***Gradient check signals convergence***
              ***Rediagonalizing the Fockian in SOSCF/NRSCF***

               *****************************************************
               *                     SUCCESS                       *
               *           SCF CONVERGED AFTER  13 CYCLES          *
               *****************************************************


SMD CDS free energy correction energy :                 0.99274     Kcal/mol
Total Energy after SMD CDS correction =              -855.800849768 Eh

----------------
TOTAL SCF ENERGY
----------------

Total Energy       :         -855.80084977 Eh          -23287.52504 eV

Components:
Nuclear Repulsion  :         1297.23025284 Eh           35299.42977 eV
Electronic Energy  :        -2153.03110261 Eh          -58586.95481 eV
One Electron Energy:        -3765.44687099 Eh         -102463.01848 eV
Two Electron Energy:         1612.41576838 Eh           43876.06367 eV
CPCM Dielectric    :           -0.09943656 Eh              -2.70581 eV
SMD CDS (Gcds)     :            0.00158203 Eh               0.04305 eV

Virial components:
Potential Energy   :        -1707.99610599 Eh          -46476.93689 eV
Kinetic Energy     :          852.19525622 Eh           23189.41185 eV
Virial Ratio       :            2.00423095


DFT components:
N(Alpha)           :       64.999991334999 electrons
N(Beta)            :       64.999991334999 electrons
N(Total)           :      129.999982669999 electrons
E(X)               :     -111.102572355020 Eh       
E(C)               :       -4.284406238279 Eh       
E(XC)              :     -115.386978593299 Eh       
DFET-embed. en.    :        0.000000000000 Eh       
CPCM Solvation Model Properties:
Surface-charge          :            0.96125391
Charge-correction       :           -0.00436025 Eh              -0.11865 eV
Free-energy (cav+disp)  :            0.00158203 Eh               0.04305 eV

---------------
SCF CONVERGENCE
---------------

  Last Energy change         ...   -7.9166e-08  Tolerance :   1.0000e-06
  Last MAX-Density change    ...    3.3456e-04  Tolerance :   1.0000e-05
  Last RMS-Density change    ...    2.5563e-06  Tolerance :   1.0000e-06
  Last Orbital Gradient      ...    8.1850e-06  Tolerance :   5.0000e-05
  Last Orbital Rotation      ...    4.6450e-05  Tolerance :   5.0000e-05

             **** THE GBW FILE WAS UPDATED (/lustre/hpc/kemi/ree/PhD/git/ReactivityQM/calculations/R01/reac02prodE07/conf04/gfn1/orca_calc.gbw) ****
             **** DENSITY /lustre/hpc/kemi/ree/PhD/git/ReactivityQM/calculations/R01/reac02prodE07/conf04/gfn1/orca_calc.scfp WAS UPDATED ****
             **** ENERGY FILE WAS UPDATED (/lustre/hpc/kemi/ree/PhD/git/ReactivityQM/calculations/R01/reac02prodE07/conf04/gfn1/orca_calc.en.tmp) ****
             **** THE GBW FILE WAS UPDATED (/lustre/hpc/kemi/ree/PhD/git/ReactivityQM/calculations/R01/reac02prodE07/conf04/gfn1/orca_calc.gbw) ****
             **** DENSITY /lustre/hpc/kemi/ree/PhD/git/ReactivityQM/calculations/R01/reac02prodE07/conf04/gfn1/orca_calc.scfp WAS UPDATED ****
----------------
ORBITAL ENERGIES
----------------

  NO   OCC          E(Eh)            E(eV) 
   0   2.0000     -18.958967      -515.8997 
   1   2.0000     -18.943823      -515.4876 
   2   2.0000     -18.930267      -515.1188 
   3   2.0000     -18.879806      -513.7456 
   4   2.0000     -14.155321      -385.1859 
   5   2.0000     -14.129862      -384.4931 
   6   2.0000     -14.121594      -384.2681 
   7   2.0000     -10.088108      -274.5114 
   8   2.0000     -10.069183      -273.9964 
   9   2.0000     -10.067915      -273.9619 
  10   2.0000     -10.062306      -273.8093 
  11   2.0000     -10.058459      -273.7046 
  12   2.0000     -10.054066      -273.5850 
  13   2.0000     -10.052067      -273.5306 
  14   2.0000     -10.010067      -272.3878 
  15   2.0000     -10.006491      -272.2905 
  16   2.0000     -10.002992      -272.1953 
  17   2.0000      -1.005249       -27.3542 
  18   2.0000      -1.001022       -27.2392 
  19   2.0000      -0.970085       -26.3973 
  20   2.0000      -0.912690       -24.8356 
  21   2.0000      -0.911147       -24.7936 
  22   2.0000      -0.848576       -23.0909 
  23   2.0000      -0.821034       -22.3415 
  24   2.0000      -0.726955       -19.7815 
  25   2.0000      -0.695659       -18.9299 
  26   2.0000      -0.669553       -18.2195 
  27   2.0000      -0.645990       -17.5783 
  28   2.0000      -0.642038       -17.4707 
  29   2.0000      -0.609760       -16.5924 
  30   2.0000      -0.582097       -15.8397 
  31   2.0000      -0.519022       -14.1233 
  32   2.0000      -0.502973       -13.6866 
  33   2.0000      -0.487422       -13.2634 
  34   2.0000      -0.476408       -12.9637 
  35   2.0000      -0.456996       -12.4355 
  36   2.0000      -0.447983       -12.1902 
  37   2.0000      -0.422839       -11.5060 
  38   2.0000      -0.418376       -11.3846 
  39   2.0000      -0.414553       -11.2805 
  40   2.0000      -0.405588       -11.0366 
  41   2.0000      -0.403740       -10.9863 
  42   2.0000      -0.397524       -10.8172 
  43   2.0000      -0.390571       -10.6280 
  44   2.0000      -0.373304       -10.1581 
  45   2.0000      -0.366341        -9.9687 
  46   2.0000      -0.356370        -9.6973 
  47   2.0000      -0.350924        -9.5491 
  48   2.0000      -0.344251        -9.3675 
  49   2.0000      -0.331812        -9.0291 
  50   2.0000      -0.323960        -8.8154 
  51   2.0000      -0.316193        -8.6041 
  52   2.0000      -0.308776        -8.4022 
  53   2.0000      -0.307263        -8.3610 
  54   2.0000      -0.296439        -8.0665 
  55   2.0000      -0.291721        -7.9381 
  56   2.0000      -0.281418        -7.6578 
  57   2.0000      -0.256810        -6.9882 
  58   2.0000      -0.231560        -6.3011 
  59   2.0000      -0.225929        -6.1478 
  60   2.0000      -0.221173        -6.0184 
  61   2.0000      -0.207026        -5.6335 
  62   2.0000      -0.194322        -5.2878 
  63   2.0000      -0.178733        -4.8636 
  64   2.0000      -0.091477        -2.4892 
  65   0.0000       0.003208         0.0873 
  66   0.0000       0.040440         1.1004 
  67   0.0000       0.057443         1.5631 
  68   0.0000       0.080860         2.2003 
  69   0.0000       0.088512         2.4085 
  70   0.0000       0.113000         3.0749 
  71   0.0000       0.120489         3.2787 
  72   0.0000       0.128658         3.5010 
  73   0.0000       0.129560         3.5255 
  74   0.0000       0.140781         3.8308 
  75   0.0000       0.143555         3.9063 
  76   0.0000       0.149466         4.0672 
  77   0.0000       0.151180         4.1138 
  78   0.0000       0.155132         4.2214 
  79   0.0000       0.158468         4.3121 
  80   0.0000       0.168984         4.5983 
  81   0.0000       0.175215         4.7678 
  82   0.0000       0.177538         4.8311 
  83   0.0000       0.183545         4.9945 
  84   0.0000       0.187466         5.1012 
  85   0.0000       0.192292         5.2325 
  86   0.0000       0.194551         5.2940 
  87   0.0000       0.201271         5.4769 
  88   0.0000       0.204219         5.5571 
  89   0.0000       0.209562         5.7025 
  90   0.0000       0.210848         5.7375 
  91   0.0000       0.212622         5.7857 
  92   0.0000       0.213466         5.8087 
  93   0.0000       0.219594         5.9755 
  94   0.0000       0.224748         6.1157 
  95   0.0000       0.227692         6.1958 
  96   0.0000       0.232045         6.3143 
  97   0.0000       0.241232         6.5643 
  98   0.0000       0.248558         6.7636 
  99   0.0000       0.250842         6.8258 
 100   0.0000       0.256532         6.9806 
 101   0.0000       0.261625         7.1192 
 102   0.0000       0.266048         7.2395 
 103   0.0000       0.270497         7.3606 
 104   0.0000       0.278702         7.5839 
 105   0.0000       0.291848         7.9416 
 106   0.0000       0.296262         8.0617 
 107   0.0000       0.303339         8.2543 
 108   0.0000       0.312851         8.5131 
 109   0.0000       0.319285         8.6882 
 110   0.0000       0.324433         8.8283 
 111   0.0000       0.332110         9.0372 
 112   0.0000       0.337069         9.1721 
 113   0.0000       0.341340         9.2883 
 114   0.0000       0.345090         9.3904 
 115   0.0000       0.358485         9.7549 
 116   0.0000       0.360857         9.8194 
 117   0.0000       0.366101         9.9621 
 118   0.0000       0.380073        10.3423 
 119   0.0000       0.383516        10.4360 
 120   0.0000       0.385561        10.4916 
 121   0.0000       0.395318        10.7572 
 122   0.0000       0.398546        10.8450 
 123   0.0000       0.408130        11.1058 
 124   0.0000       0.411326        11.1928 
 125   0.0000       0.417710        11.3665 
 126   0.0000       0.433164        11.7870 
 127   0.0000       0.445283        12.1168 
 128   0.0000       0.447977        12.1901 
 129   0.0000       0.457472        12.4485 
 130   0.0000       0.465720        12.6729 
 131   0.0000       0.472292        12.8517 
 132   0.0000       0.481435        13.1005 
 133   0.0000       0.487884        13.2760 
 134   0.0000       0.490257        13.3406 
 135   0.0000       0.502158        13.6644 
 136   0.0000       0.508569        13.8389 
 137   0.0000       0.517047        14.0696 
 138   0.0000       0.524164        14.2632 
 139   0.0000       0.543992        14.8028 
 140   0.0000       0.549350        14.9486 
 141   0.0000       0.563161        15.3244 
 142   0.0000       0.567948        15.4546 
 143   0.0000       0.578569        15.7437 
 144   0.0000       0.580716        15.8021 
 145   0.0000       0.590177        16.0595 
 146   0.0000       0.602142        16.3851 
 147   0.0000       0.606274        16.4975 
 148   0.0000       0.621796        16.9199 
 149   0.0000       0.622993        16.9525 
 150   0.0000       0.634706        17.2712 
 151   0.0000       0.640258        17.4223 
 152   0.0000       0.644824        17.5465 
 153   0.0000       0.655226        17.8296 
 154   0.0000       0.658775        17.9262 
 155   0.0000       0.669336        18.2135 
 156   0.0000       0.677061        18.4238 
 157   0.0000       0.683843        18.6083 
 158   0.0000       0.686035        18.6680 
 159   0.0000       0.693292        18.8654 
 160   0.0000       0.700386        19.0585 
 161   0.0000       0.710882        19.3441 
 162   0.0000       0.716473        19.4962 
 163   0.0000       0.729167        19.8416 
 164   0.0000       0.738753        20.1025 
 165   0.0000       0.743846        20.2411 
 166   0.0000       0.750625        20.4255 
 167   0.0000       0.755388        20.5552 
 168   0.0000       0.764933        20.8149 
 169   0.0000       0.770734        20.9727 
 170   0.0000       0.779649        21.2153 
 171   0.0000       0.790134        21.5006 
 172   0.0000       0.795088        21.6354 
 173   0.0000       0.811584        22.0843 
 174   0.0000       0.812523        22.1099 
 175   0.0000       0.824515        22.4362 
 176   0.0000       0.832642        22.6573 
 177   0.0000       0.838612        22.8198 
 178   0.0000       0.853626        23.2283 
 179   0.0000       0.862163        23.4607 
 180   0.0000       0.874374        23.7929 
 181   0.0000       0.888043        24.1649 
 182   0.0000       0.896242        24.3880 
 183   0.0000       0.898391        24.4465 
 184   0.0000       0.911009        24.7898 
 185   0.0000       0.924625        25.1603 
 186   0.0000       0.936567        25.4853 
 187   0.0000       0.943480        25.6734 
 188   0.0000       0.955825        26.0093 
 189   0.0000       0.975442        26.5431 
 190   0.0000       0.993866        27.0445 
 191   0.0000       1.016004        27.6469 
 192   0.0000       1.032720        28.1017 
 193   0.0000       1.050627        28.5890 
 194   0.0000       1.059481        28.8299 
 195   0.0000       1.068045        29.0630 
 196   0.0000       1.079745        29.3814 
 197   0.0000       1.086907        29.5762 
 198   0.0000       1.094560        29.7845 
 199   0.0000       1.107187        30.1281 
 200   0.0000       1.114430        30.3252 
 201   0.0000       1.123215        30.5642 
 202   0.0000       1.129679        30.7401 
 203   0.0000       1.142257        31.0824 
 204   0.0000       1.149345        31.2753 
 205   0.0000       1.153597        31.3910 
 206   0.0000       1.165315        31.7098 
 207   0.0000       1.176123        32.0039 
 208   0.0000       1.187468        32.3127 
 209   0.0000       1.209642        32.9160 
 210   0.0000       1.209984        32.9253 
 211   0.0000       1.217985        33.1431 
 212   0.0000       1.243120        33.8270 
 213   0.0000       1.256413        34.1887 
 214   0.0000       1.278191        34.7813 
 215   0.0000       1.308947        35.6183 
 216   0.0000       1.325298        36.0632 
 217   0.0000       1.334805        36.3219 
 218   0.0000       1.336982        36.3811 
 219   0.0000       1.344032        36.5730 
 220   0.0000       1.360185        37.0125 
 221   0.0000       1.371641        37.3243 
 222   0.0000       1.386650        37.7327 
 223   0.0000       1.396099        37.9898 
 224   0.0000       1.402639        38.1677 
 225   0.0000       1.410865        38.3916 
 226   0.0000       1.416777        38.5525 
 227   0.0000       1.436065        39.0773 
 228   0.0000       1.437180        39.1077 
 229   0.0000       1.460059        39.7302 
 230   0.0000       1.469071        39.9755 
 231   0.0000       1.485479        40.4219 
 232   0.0000       1.498963        40.7889 
 233   0.0000       1.508062        41.0364 
 234   0.0000       1.511681        41.1349 
 235   0.0000       1.526295        41.5326 
 236   0.0000       1.542063        41.9617 
 237   0.0000       1.544892        42.0386 
 238   0.0000       1.559876        42.4464 
 239   0.0000       1.575769        42.8789 
 240   0.0000       1.581692        43.0400 
 241   0.0000       1.587435        43.1963 
 242   0.0000       1.624211        44.1970 
 243   0.0000       1.637418        44.5564 
 244   0.0000       1.668821        45.4109 
 245   0.0000       1.680977        45.7417 
 246   0.0000       1.688069        45.9347 
 247   0.0000       1.712026        46.5866 
 248   0.0000       1.719843        46.7993 
 249   0.0000       1.725774        46.9607 
 250   0.0000       1.737320        47.2749 
 251   0.0000       1.764081        48.0031 
 252   0.0000       1.783549        48.5328 
 253   0.0000       1.799844        48.9762 
 254   0.0000       1.809027        49.2261 
 255   0.0000       1.825948        49.6866 
 256   0.0000       1.833528        49.8928 
 257   0.0000       1.846554        50.2473 
 258   0.0000       1.856830        50.5269 
 259   0.0000       1.859504        50.5997 
 260   0.0000       1.876401        51.0595 
 261   0.0000       1.879998        51.1573 
 262   0.0000       1.887444        51.3600 
 263   0.0000       1.896899        51.6172 
 264   0.0000       1.910443        51.9858 
 265   0.0000       1.916734        52.1570 
 266   0.0000       1.924037        52.3557 
 267   0.0000       1.932088        52.5748 
 268   0.0000       1.964880        53.4671 
 269   0.0000       1.983118        53.9634 
 270   0.0000       2.002003        54.4773 
 271   0.0000       2.036715        55.4218 
 272   0.0000       2.040096        55.5138 
 273   0.0000       2.049986        55.7830 
 274   0.0000       2.071014        56.3552 
 275   0.0000       2.083053        56.6828 
 276   0.0000       2.103793        57.2471 
 277   0.0000       2.116846        57.6023 
 278   0.0000       2.133376        58.0521 
 279   0.0000       2.145962        58.3946 
 280   0.0000       2.153049        58.5874 
 281   0.0000       2.161976        58.8304 
 282   0.0000       2.171966        59.1022 
 283   0.0000       2.176802        59.2338 
 284   0.0000       2.180037        59.3218 
 285   0.0000       2.189527        59.5801 
 286   0.0000       2.196263        59.7633 
 287   0.0000       2.207771        60.0765 
 288   0.0000       2.222025        60.4644 
 289   0.0000       2.243754        61.0557 
 290   0.0000       2.252923        61.3052 
 291   0.0000       2.271557        61.8122 
 292   0.0000       2.281798        62.0909 
 293   0.0000       2.300809        62.6082 
 294   0.0000       2.310908        62.8830 
 295   0.0000       2.315817        63.0166 
 296   0.0000       2.317776        63.0699 
 297   0.0000       2.319688        63.1219 
 298   0.0000       2.335366        63.5485 
 299   0.0000       2.346509        63.8518 
 300   0.0000       2.355884        64.1069 
 301   0.0000       2.372479        64.5584 
 302   0.0000       2.379965        64.7621 
 303   0.0000       2.384641        64.8894 
 304   0.0000       2.391531        65.0769 
 305   0.0000       2.397375        65.2359 
 306   0.0000       2.408126        65.5284 
 307   0.0000       2.415875        65.7393 
 308   0.0000       2.433157        66.2096 
 309   0.0000       2.446948        66.5848 
 310   0.0000       2.461830        66.9898 
 311   0.0000       2.468018        67.1582 
 312   0.0000       2.491748        67.8039 
 313   0.0000       2.498951        67.9999 
 314   0.0000       2.512062        68.3567 
 315   0.0000       2.515456        68.4490 
 316   0.0000       2.525217        68.7146 
 317   0.0000       2.534496        68.9671 
 318   0.0000       2.554170        69.5025 
 319   0.0000       2.566564        69.8397 
 320   0.0000       2.579703        70.1973 
 321   0.0000       2.590096        70.4801 
 322   0.0000       2.602826        70.8265 
 323   0.0000       2.617083        71.2144 
 324   0.0000       2.625363        71.4398 
 325   0.0000       2.630037        71.5670 
 326   0.0000       2.647220        72.0345 
 327   0.0000       2.652614        72.1813 
 328   0.0000       2.678606        72.8886 
 329   0.0000       2.687065        73.1188 
 330   0.0000       2.690945        73.2243 
 331   0.0000       2.703542        73.5671 
 332   0.0000       2.708612        73.7051 
 333   0.0000       2.717234        73.9397 
 334   0.0000       2.724320        74.1325 
 335   0.0000       2.730848        74.3101 
 336   0.0000       2.737094        74.4801 
 337   0.0000       2.741872        74.6101 
 338   0.0000       2.748791        74.7984 
 339   0.0000       2.751998        74.8857 
 340   0.0000       2.771389        75.4133 
 341   0.0000       2.781535        75.6894 
 342   0.0000       2.795418        76.0672 
 343   0.0000       2.799248        76.1714 
 344   0.0000       2.809271        76.4441 
 345   0.0000       2.820320        76.7448 
 346   0.0000       2.822884        76.8146 
 347   0.0000       2.835564        77.1596 
 348   0.0000       2.842798        77.3565 
 349   0.0000       2.855208        77.6942 
 350   0.0000       2.872660        78.1691 
 351   0.0000       2.878551        78.3293 
 352   0.0000       2.892801        78.7171 
 353   0.0000       2.908251        79.1375 
 354   0.0000       2.913976        79.2933 
 355   0.0000       2.935230        79.8717 
 356   0.0000       2.938836        79.9698 
 357   0.0000       2.953552        80.3702 
 358   0.0000       2.957263        80.4712 
 359   0.0000       2.967200        80.7416 
 360   0.0000       2.972359        80.8820 
 361   0.0000       3.000015        81.6346 
 362   0.0000       3.009627        81.8961 
 363   0.0000       3.013273        81.9953 
 364   0.0000       3.052516        83.0632 
 365   0.0000       3.053727        83.0961 
 366   0.0000       3.065753        83.4234 
 367   0.0000       3.114580        84.7520 
 368   0.0000       3.133500        85.2669 
 369   0.0000       3.136214        85.3407 
 370   0.0000       3.143841        85.5483 
 371   0.0000       3.152190        85.7755 
 372   0.0000       3.160481        86.0010 
 373   0.0000       3.166777        86.1724 
 374   0.0000       3.178603        86.4942 
 375   0.0000       3.184913        86.6659 
 376   0.0000       3.190646        86.8219 
 377   0.0000       3.209557        87.3365 
 378   0.0000       3.239475        88.1506 
 379   0.0000       3.246935        88.3536 
 380   0.0000       3.258590        88.6707 
 381   0.0000       3.266713        88.8918 
 382   0.0000       3.273820        89.0852 
 383   0.0000       3.314357        90.1882 
 384   0.0000       3.327604        90.5487 
 385   0.0000       3.339717        90.8783 
 386   0.0000       3.361476        91.4704 
 387   0.0000       3.367682        91.6393 
 388   0.0000       3.396699        92.4289 
 389   0.0000       3.418319        93.0172 
 390   0.0000       3.452628        93.9508 
 391   0.0000       3.474630        94.5495 
 392   0.0000       3.489204        94.9461 
 393   0.0000       3.538174        96.2786 
 394   0.0000       3.562018        96.9274 
 395   0.0000       3.562853        96.9502 
 396   0.0000       3.569114        97.1205 
 397   0.0000       3.571899        97.1963 
 398   0.0000       3.578053        97.3638 
 399   0.0000       3.584618        97.5424 
 400   0.0000       3.605060        98.0987 
 401   0.0000       3.618259        98.4578 
 402   0.0000       3.627041        98.6968 
 403   0.0000       3.653624        99.4202 
 404   0.0000       3.682965       100.2186 
 405   0.0000       3.705323       100.8270 
 406   0.0000       3.708932       100.9252 
 407   0.0000       3.723815       101.3302 
 408   0.0000       3.818797       103.9147 
 409   0.0000       3.999075       108.8204 
 410   0.0000       4.039536       109.9214 
 411   0.0000       4.098043       111.5134 
 412   0.0000       4.125665       112.2650 
 413   0.0000       4.140081       112.6573 
 414   0.0000       4.214821       114.6911 
 415   0.0000       4.275255       116.3356 
 416   0.0000       4.323912       117.6596 
 417   0.0000       4.372820       118.9905 
 418   0.0000       4.418741       120.2401 
 419   0.0000       4.491998       122.2335 
 420   0.0000       4.677789       127.2891 
 421   0.0000      21.926894       596.6611 
 422   0.0000      22.011753       598.9702 
 423   0.0000      22.031238       599.5005 
 424   0.0000      22.058607       600.2452 
 425   0.0000      22.077854       600.7690 
 426   0.0000      22.109610       601.6331 
 427   0.0000      22.182461       603.6154 
 428   0.0000      22.350144       608.1783 
 429   0.0000      22.424329       610.1970 
 430   0.0000      22.528432       613.0298 
 431   0.0000      32.045499       872.0024 
 432   0.0000      32.125152       874.1698 
 433   0.0000      32.160057       875.1197 
 434   0.0000      43.757127      1190.6920 
 435   0.0000      43.831262      1192.7093 
 436   0.0000      43.874916      1193.8972 
 437   0.0000      43.948631      1195.9031 

                    ********************************
                    * MULLIKEN POPULATION ANALYSIS *
                    ********************************

-----------------------
MULLIKEN ATOMIC CHARGES
-----------------------
   0 C :   -0.351248
   1 O :   -0.225602
   2 C :    0.181057
   3 O :   -0.570833
   4 C :   -0.280913
   5 C :    0.025655
   6 O :   -0.439301
   7 C :   -0.169384
   8 O :   -0.205378
   9 C :   -0.332182
  10 N :   -0.217627
  11 C :    0.200045
  12 C :    0.244636
  13 C :   -0.594954
  14 C :   -0.587192
  15 N :   -0.696894
  16 N :   -0.200703
  17 H :    0.150901
  18 H :    0.152830
  19 H :    0.152155
  20 H :    0.383955
  21 H :    0.150147
  22 H :    0.155995
  23 H :    0.168775
  24 H :    0.313568
  25 H :    0.174235
  26 H :    0.176745
  27 H :    0.170701
  28 H :    0.168036
  29 H :    0.171366
  30 H :    0.165344
  31 H :    0.280189
  32 H :    0.285875
Sum of atomic charges:   -1.0000000

--------------------------------
MULLIKEN REDUCED ORBITAL CHARGES
--------------------------------
  0 C s       :     3.328302  s :     3.328302
      pz      :     1.113470  p :     2.974107
      px      :     0.727879
      py      :     1.132759
      dz2     :     0.007340  d :     0.048838
      dxz     :     0.014892
      dyz     :     0.003193
      dx2y2   :     0.014400
      dxy     :     0.009014
  1 O s       :     3.706318  s :     3.706318
      pz      :     1.818887  p :     4.484579
      px      :     1.256151
      py      :     1.409540
      dz2     :     0.004093  d :     0.034705
      dxz     :     0.003597
      dyz     :     0.003718
      dx2y2   :     0.014069
      dxy     :     0.009229
  2 C s       :     3.148504  s :     3.148504
      pz      :     0.943472  p :     2.557164
      px      :     0.859498
      py      :     0.754194
      dz2     :     0.006041  d :     0.113275
      dxz     :     0.020407
      dyz     :     0.017928
      dx2y2   :     0.040727
      dxy     :     0.028173
  3 O s       :     3.803982  s :     3.803982
      pz      :     1.675556  p :     4.743206
      px      :     1.590742
      py      :     1.476908
      dz2     :     0.004883  d :     0.023645
      dxz     :     0.006459
      dyz     :     0.002886
      dx2y2   :     0.000592
      dxy     :     0.008824
  4 C s       :     3.209700  s :     3.209700
      pz      :     1.304261  p :     3.013192
      px      :     0.822161
      py      :     0.886769
      dz2     :     0.004405  d :     0.058021
      dxz     :     0.009863
      dyz     :     0.006008
      dx2y2   :     0.020714
      dxy     :     0.017031
  5 C s       :     3.201133  s :     3.201133
      pz      :     1.015474  p :     2.695955
      px      :     0.869768
      py      :     0.810713
      dz2     :     0.006118  d :     0.077258
      dxz     :     0.017261
      dyz     :     0.011857
      dx2y2   :     0.022357
      dxy     :     0.019664
  6 O s       :     3.757157  s :     3.757157
      pz      :     1.808528  p :     4.656833
      px      :     1.305237
      py      :     1.543068
      dz2     :     0.002574  d :     0.025311
      dxz     :     0.005751
      dyz     :     0.005191
      dx2y2   :     0.008176
      dxy     :     0.003619
  7 C s       :     3.205433  s :     3.205433
      pz      :     1.175722  p :     2.884404
      px      :     0.921759
      py      :     0.786923
      dz2     :     0.006203  d :     0.079547
      dxz     :     0.014309
      dyz     :     0.009957
      dx2y2   :     0.023831
      dxy     :     0.025247
  8 O s       :     3.717798  s :     3.717798
      pz      :     1.397350  p :     4.459712
      px      :     1.675836
      py      :     1.386527
      dz2     :     0.007860  d :     0.027867
      dxz     :     0.006343
      dyz     :    -0.000503
      dx2y2   :     0.006766
      dxy     :     0.007401
  9 C s       :     3.337209  s :     3.337209
      pz      :     0.778971  p :     2.947038
      px      :     1.132257
      py      :     1.035809
      dz2     :     0.014904  d :     0.047935
      dxz     :     0.007963
      dyz     :     0.013210
      dx2y2   :     0.003522
      dxy     :     0.008336
 10 N s       :     3.340630  s :     3.340630
      pz      :     1.620262  p :     3.788722
      px      :     1.216863
      py      :     0.951598
      dz2     :     0.009032  d :     0.088275
      dxz     :     0.023023
      dyz     :     0.017694
      dx2y2   :     0.016629
      dxy     :     0.021896
 11 C s       :     3.083061  s :     3.083061
      pz      :     0.890232  p :     2.633549
      px      :     0.843570
      py      :     0.899746
      dz2     :     0.005178  d :     0.083345
      dxz     :     0.015673
      dyz     :     0.009295
      dx2y2   :     0.021741
      dxy     :     0.031459
 12 C s       :     2.949809  s :     2.949809
      pz      :     0.883163  p :     2.735434
      px      :     0.847525
      py      :     1.004746
      dz2     :     0.014870  d :     0.070122
      dxz     :     0.015115
      dyz     :     0.009900
      dx2y2   :     0.010348
      dxy     :     0.019889
 13 C s       :     3.405263  s :     3.405263
      pz      :     0.944917  p :     3.162086
      px      :     1.102632
      py      :     1.114537
      dz2     :     0.007294  d :     0.027606
      dxz     :     0.006711
      dyz     :     0.004415
      dx2y2   :     0.002275
      dxy     :     0.006910
 14 C s       :     3.408740  s :     3.408740
      pz      :     1.080810  p :     3.150717
      px      :     1.070860
      py      :     0.999047
      dz2     :     0.006999  d :     0.027734
      dxz     :     0.004950
      dyz     :     0.003229
      dx2y2   :     0.004473
      dxy     :     0.008085
 15 N s       :     3.563471  s :     3.563471
      pz      :     1.229972  p :     4.098588
      px      :     1.214681
      py      :     1.653935
      dz2     :     0.012347  d :     0.034836
      dxz     :     0.004230
      dyz     :     0.003896
      dx2y2   :     0.003822
      dxy     :     0.010541
 16 N s       :     3.374434  s :     3.374434
      pz      :     1.256636  p :     3.761029
      px      :     1.058397
      py      :     1.445996
      dz2     :     0.006066  d :     0.065241
      dxz     :     0.024108
      dyz     :     0.007815
      dx2y2   :     0.017757
      dxy     :     0.009494
 17 H s       :     0.831712  s :     0.831712
      pz      :     0.007873  p :     0.017387
      px      :     0.003961
      py      :     0.005553
 18 H s       :     0.829733  s :     0.829733
      pz      :     0.009187  p :     0.017437
      px      :     0.003387
      py      :     0.004862
 19 H s       :     0.830383  s :     0.830383
      pz      :     0.003775  p :     0.017462
      px      :     0.002797
      py      :     0.010890
 20 H s       :     0.568446  s :     0.568446
      pz      :     0.009562  p :     0.047598
      px      :     0.025640
      py      :     0.012396
 21 H s       :     0.832431  s :     0.832431
      pz      :     0.007209  p :     0.017422
      px      :     0.004064
      py      :     0.006150
 22 H s       :     0.826525  s :     0.826525
      pz      :     0.002336  p :     0.017480
      px      :     0.006857
      py      :     0.008288
 23 H s       :     0.813618  s :     0.813618
      pz      :     0.002620  p :     0.017607
      px      :     0.010837
      py      :     0.004151
 24 H s       :     0.653662  s :     0.653662
      pz      :     0.010725  p :     0.032770
      px      :     0.017490
      py      :     0.004555
 25 H s       :     0.807619  s :     0.807619
      pz      :     0.004516  p :     0.018146
      px      :     0.005095
      py      :     0.008535
 26 H s       :     0.805234  s :     0.805234
      pz      :     0.005811  p :     0.018021
      px      :     0.008280
      py      :     0.003930
 27 H s       :     0.811161  s :     0.811161
      pz      :     0.003515  p :     0.018138
      px      :     0.006559
      py      :     0.008064
 28 H s       :     0.813858  s :     0.813858
      pz      :     0.010239  p :     0.018106
      px      :     0.004199
      py      :     0.003668
 29 H s       :     0.810300  s :     0.810300
      pz      :     0.005511  p :     0.018334
      px      :     0.008953
      py      :     0.003871
 30 H s       :     0.816592  s :     0.816592
      pz      :     0.003643  p :     0.018064
      px      :     0.006262
      py      :     0.008160
 31 H s       :     0.687538  s :     0.687538
      pz      :     0.017615  p :     0.032273
      px      :     0.005690
      py      :     0.008968
 32 H s       :     0.681255  s :     0.681255
      pz      :     0.006081  p :     0.032870
      px      :     0.012842
      py      :     0.013946


                     *******************************
                     * LOEWDIN POPULATION ANALYSIS *
                     *******************************

----------------------
LOEWDIN ATOMIC CHARGES
----------------------
   0 C :   -0.070286
   1 O :   -0.658379
   2 C :    0.336917
   3 O :   -0.648513
   4 C :    0.059044
   5 C :    0.210422
   6 O :   -0.559755
   7 C :    0.280306
   8 O :   -0.661865
   9 C :   -0.061050
  10 N :   -0.605445
  11 C :    0.302519
  12 C :    0.055560
  13 C :   -0.364735
  14 C :   -0.382061
  15 N :   -0.702793
  16 N :   -0.625632
  17 H :    0.163133
  18 H :    0.164711
  19 H :    0.170578
  20 H :    0.309303
  21 H :    0.163590
  22 H :    0.174072
  23 H :    0.171080
  24 H :    0.286902
  25 H :    0.167875
  26 H :    0.167738
  27 H :    0.162899
  28 H :    0.164721
  29 H :    0.167304
  30 H :    0.158080
  31 H :    0.251187
  32 H :    0.252575

-------------------------------
LOEWDIN REDUCED ORBITAL CHARGES
-------------------------------
  0 C s       :     2.903680  s :     2.903680
      pz      :     1.108036  p :     3.052340
      px      :     0.838467
      py      :     1.105838
      dz2     :     0.016997  d :     0.114266
      dxz     :     0.034172
      dyz     :     0.007968
      dx2y2   :     0.034695
      dxy     :     0.020434
  1 O s       :     3.488557  s :     3.488557
      pz      :     1.802115  p :     4.709146
      px      :     1.396649
      py      :     1.510381
      dz2     :     0.049831  d :     0.460676
      dxz     :     0.093217
      dyz     :     0.048947
      dx2y2   :     0.133779
      dxy     :     0.134902
  2 C s       :     2.722898  s :     2.722898
      pz      :     0.855277  p :     2.697970
      px      :     0.975340
      py      :     0.867353
      dz2     :     0.015703  d :     0.242215
      dxz     :     0.038132
      dyz     :     0.034189
      dx2y2   :     0.089420
      dxy     :     0.064770
  3 O s       :     3.561318  s :     3.561318
      pz      :     1.662611  p :     4.809861
      px      :     1.621636
      py      :     1.525614
      dz2     :     0.033175  d :     0.277335
      dxz     :     0.048597
      dyz     :     0.035455
      dx2y2   :     0.066615
      dxy     :     0.093492
  4 C s       :     2.761481  s :     2.761481
      pz      :     1.147116  p :     3.057097
      px      :     0.961291
      py      :     0.948690
      dz2     :     0.008671  d :     0.122378
      dxz     :     0.018404
      dyz     :     0.011314
      dx2y2   :     0.046432
      dxy     :     0.037556
  5 C s       :     2.766381  s :     2.766381
      pz      :     0.970023  p :     2.861884
      px      :     0.967786
      py      :     0.924075
      dz2     :     0.012469  d :     0.161314
      dxz     :     0.033368
      dyz     :     0.022255
      dx2y2   :     0.049341
      dxy     :     0.043881
  6 O s       :     3.500964  s :     3.500964
      pz      :     1.794444  p :     4.769833
      px      :     1.376286
      py      :     1.599102
      dz2     :     0.035547  d :     0.288958
      dxz     :     0.042096
      dyz     :     0.046142
      dx2y2   :     0.082567
      dxy     :     0.082606
  7 C s       :     2.715852  s :     2.715852
      pz      :     1.028935  p :     2.832384
      px      :     0.964673
      py      :     0.838776
      dz2     :     0.013594  d :     0.171458
      dxz     :     0.028704
      dyz     :     0.020305
      dx2y2   :     0.051463
      dxy     :     0.057393
  8 O s       :     3.475101  s :     3.475101
      pz      :     1.519318  p :     4.722084
      px      :     1.709414
      py      :     1.493351
      dz2     :     0.107491  d :     0.464680
      dxz     :     0.088492
      dyz     :     0.124708
      dx2y2   :     0.068681
      dxy     :     0.075307
  9 C s       :     2.910104  s :     2.910104
      pz      :     0.870465  p :     3.039620
      px      :     1.114589
      py      :     1.054567
      dz2     :     0.035277  d :     0.111325
      dxz     :     0.017028
      dyz     :     0.031033
      dx2y2   :     0.007946
      dxy     :     0.020042
 10 N s       :     3.136567  s :     3.136567
      pz      :     1.591658  p :     3.966387
      px      :     1.214633
      py      :     1.160096
      dz2     :     0.064307  d :     0.502491
      dxz     :     0.082892
      dyz     :     0.093140
      dx2y2   :     0.136252
      dxy     :     0.125900
 11 C s       :     2.721628  s :     2.721628
      pz      :     0.841550  p :     2.798654
      px      :     1.019218
      py      :     0.937886
      dz2     :     0.011715  d :     0.177199
      dxz     :     0.028241
      dyz     :     0.017866
      dx2y2   :     0.046282
      dxy     :     0.073095
 12 C s       :     2.797658  s :     2.797658
      pz      :     1.021695  p :     3.009646
      px      :     0.972896
      py      :     1.015056
      dz2     :     0.029978  d :     0.137137
      dxz     :     0.029175
      dyz     :     0.017519
      dx2y2   :     0.019340
      dxy     :     0.041125
 13 C s       :     2.964567  s :     2.964567
      pz      :     1.043469  p :     3.337807
      px      :     1.145980
      py      :     1.148358
      dz2     :     0.015359  d :     0.062361
      dxz     :     0.015557
      dyz     :     0.009095
      dx2y2   :     0.005635
      dxy     :     0.016716
 14 C s       :     2.970215  s :     2.970215
      pz      :     1.142680  p :     3.348446
      px      :     1.128204
      py      :     1.077562
      dz2     :     0.016301  d :     0.063400
      dxz     :     0.011876
      dyz     :     0.006896
      dx2y2   :     0.009761
      dxy     :     0.018565
 15 N s       :     3.224652  s :     3.224652
      pz      :     1.263807  p :     4.141348
      px      :     1.270824
      py      :     1.606718
      dz2     :     0.106559  d :     0.336793
      dxz     :     0.056683
      dyz     :     0.025733
      dx2y2   :     0.052172
      dxy     :     0.095646
 16 N s       :     3.197987  s :     3.197987
      pz      :     1.226978  p :     3.899864
      px      :     1.218467
      py      :     1.454418
      dz2     :     0.052644  d :     0.527781
      dxz     :     0.128485
      dyz     :     0.063732
      dx2y2   :     0.139752
      dxy     :     0.143168
 17 H s       :     0.796639  s :     0.796639
      pz      :     0.018944  p :     0.040228
      px      :     0.008628
      py      :     0.012656
 18 H s       :     0.794849  s :     0.794849
      pz      :     0.022133  p :     0.040440
      px      :     0.007440
      py      :     0.010867
 19 H s       :     0.789948  s :     0.789948
      pz      :     0.008006  p :     0.039475
      px      :     0.005302
      py      :     0.026167
 20 H s       :     0.543891  s :     0.543891
      pz      :     0.024765  p :     0.146807
      px      :     0.084329
      py      :     0.037713
 21 H s       :     0.795873  s :     0.795873
      pz      :     0.016240  p :     0.040537
      px      :     0.009190
      py      :     0.015107
 22 H s       :     0.786317  s :     0.786317
      pz      :     0.004726  p :     0.039610
      px      :     0.016264
      py      :     0.018620
 23 H s       :     0.787283  s :     0.787283
      pz      :     0.005746  p :     0.041636
      px      :     0.026503
      py      :     0.009387
 24 H s       :     0.623934  s :     0.623934
      pz      :     0.028663  p :     0.089164
      px      :     0.049585
      py      :     0.010916
 25 H s       :     0.788139  s :     0.788139
      pz      :     0.010234  p :     0.043986
      px      :     0.012184
      py      :     0.021568
 26 H s       :     0.788443  s :     0.788443
      pz      :     0.014081  p :     0.043820
      px      :     0.020885
      py      :     0.008854
 27 H s       :     0.793160  s :     0.793160
      pz      :     0.007895  p :     0.043941
      px      :     0.016083
      py      :     0.019963
 28 H s       :     0.791823  s :     0.791823
      pz      :     0.025637  p :     0.043456
      px      :     0.009393
      py      :     0.008426
 29 H s       :     0.788109  s :     0.788109
      pz      :     0.013284  p :     0.044587
      px      :     0.022549
      py      :     0.008755
 30 H s       :     0.798253  s :     0.798253
      pz      :     0.008143  p :     0.043667
      px      :     0.015609
      py      :     0.019914
 31 H s       :     0.661961  s :     0.661961
      pz      :     0.048096  p :     0.086852
      px      :     0.014792
      py      :     0.023964
 32 H s       :     0.660103  s :     0.660103
      pz      :     0.014893  p :     0.087322
      px      :     0.034255
      py      :     0.038175


                      *****************************
                      * MAYER POPULATION ANALYSIS *
                      *****************************

  NA   - Mulliken gross atomic population
  ZA   - Total nuclear charge
  QA   - Mulliken gross atomic charge
  VA   - Mayer's total valence
  BVA  - Mayer's bonded valence
  FA   - Mayer's free valence

  ATOM       NA         ZA         QA         VA         BVA        FA
  0 C      6.3512     6.0000    -0.3512     3.8445     3.8445     0.0000
  1 O      8.2256     8.0000    -0.2256     1.9263     1.9263    -0.0000
  2 C      5.8189     6.0000     0.1811     4.0733     4.0733    -0.0000
  3 O      8.5708     8.0000    -0.5708     1.7989     1.7989    -0.0000
  4 C      6.2809     6.0000    -0.2809     3.4154     3.4154    -0.0000
  5 C      5.9743     6.0000     0.0257     3.5093     3.5093    -0.0000
  6 O      8.4393     8.0000    -0.4393     1.8627     1.8627    -0.0000
  7 C      6.1694     6.0000    -0.1694     4.0797     4.0797    -0.0000
  8 O      8.2054     8.0000    -0.2054     1.9882     1.9882     0.0000
  9 C      6.3322     6.0000    -0.3322     3.7372     3.7372     0.0000
 10 N      7.2176     7.0000    -0.2176     3.0505     3.0505    -0.0000
 11 C      5.8000     6.0000     0.2000     3.7106     3.7106     0.0000
 12 C      5.7554     6.0000     0.2446     3.4375     3.4375     0.0000
 13 C      6.5950     6.0000    -0.5950     3.8195     3.8195     0.0000
 14 C      6.5872     6.0000    -0.5872     3.8992     3.8992     0.0000
 15 N      7.6969     7.0000    -0.6969     2.6458     2.6458     0.0000
 16 N      7.2007     7.0000    -0.2007     3.0472     3.0472    -0.0000
 17 H      0.8491     1.0000     0.1509     0.9534     0.9534     0.0000
 18 H      0.8472     1.0000     0.1528     0.9539     0.9539     0.0000
 19 H      0.8478     1.0000     0.1522     0.9557     0.9557     0.0000
 20 H      0.6160     1.0000     0.3840     0.8681     0.8681    -0.0000
 21 H      0.8499     1.0000     0.1501     0.9565     0.9565    -0.0000
 22 H      0.8440     1.0000     0.1560     0.9555     0.9555     0.0000
 23 H      0.8312     1.0000     0.1688     0.9507     0.9507    -0.0000
 24 H      0.6864     1.0000     0.3136     0.9028     0.9028    -0.0000
 25 H      0.8258     1.0000     0.1742     0.9581     0.9581     0.0000
 26 H      0.8233     1.0000     0.1767     0.9582     0.9582     0.0000
 27 H      0.8293     1.0000     0.1707     0.9572     0.9572     0.0000
 28 H      0.8320     1.0000     0.1680     0.9571     0.9571     0.0000
 29 H      0.8286     1.0000     0.1714     0.9573     0.9573     0.0000
 30 H      0.8347     1.0000     0.1653     0.9574     0.9574     0.0000
 31 H      0.7198     1.0000     0.2802     0.9196     0.9196     0.0000
 32 H      0.7141     1.0000     0.2859     0.9121     0.9121    -0.0000

  Mayer bond orders larger than 0.100000
B(  0-C ,  1-O ) :   0.8605 B(  0-C , 17-H ) :   0.9694 B(  0-C , 18-H ) :   0.9708 
B(  0-C , 19-H ) :   0.9702 B(  1-O ,  2-C ) :   1.0242 B(  2-C ,  3-O ) :   1.4683 
B(  2-C ,  4-C ) :   1.4870 B(  3-O , 20-H ) :   0.1648 B(  4-C ,  5-C ) :   0.8750 
B(  4-C , 16-N ) :   0.9273 B(  5-C ,  6-O ) :   1.0887 B(  5-C ,  7-C ) :   1.6045 
B(  6-O ,  7-C ) :   0.1119 B(  6-O , 20-H ) :   0.6847 B(  7-C ,  8-O ) :   1.2520 
B(  7-C , 10-N ) :   1.0404 B(  8-O ,  9-C ) :   0.8411 B(  9-C , 21-H ) :   0.9612 
B(  9-C , 22-H ) :   0.9681 B(  9-C , 23-H ) :   0.9633 B( 10-N , 11-C ) :   1.0066 
B( 10-N , 24-H ) :   0.8441 B( 11-C , 12-C ) :   0.8735 B( 11-C , 15-N ) :  -0.1128 
B( 11-C , 16-N ) :   1.8972 B( 12-C , 13-C ) :   0.8899 B( 12-C , 14-C ) :   0.9566 
B( 12-C , 15-N ) :   0.8777 B( 13-C , 25-H ) :   0.9734 B( 13-C , 26-H ) :   0.9769 
B( 13-C , 27-H ) :   0.9663 B( 14-C , 28-H ) :   0.9734 B( 14-C , 29-H ) :   0.9771 
B( 14-C , 30-H ) :   0.9723 B( 15-N , 31-H ) :   0.9107 B( 15-N , 32-H ) :   0.9133 


-------
TIMINGS
-------

Total SCF time: 0 days 0 hours 1 min 17 sec 

Total time                  ....      77.357 sec
Sum of individual times     ....      75.919 sec  ( 98.1%)

Fock matrix formation       ....      70.549 sec  ( 91.2%)
  Split-RI-J                ....       9.872 sec  ( 14.0% of F)
  XC integration            ....      37.863 sec  ( 53.7% of F)
    Basis function eval.    ....       6.121 sec  ( 16.2% of XC)
    Density eval.           ....      14.176 sec  ( 37.4% of XC)
    XC-Functional eval.     ....       3.833 sec  ( 10.1% of XC)
    XC-Potential eval.      ....      11.393 sec  ( 30.1% of XC)
Diagonalization             ....       0.701 sec  (  0.9%)
Density matrix formation    ....       0.039 sec  (  0.1%)
Population analysis         ....       0.146 sec  (  0.2%)
Initial guess               ....       1.265 sec  (  1.6%)
Orbital Transformation      ....       0.000 sec  (  0.0%)
Orbital Orthonormalization  ....       0.000 sec  (  0.0%)
DIIS solution               ....       0.285 sec  (  0.4%)
SOSCF solution              ....       0.414 sec  (  0.5%)
Grid generation             ....       2.521 sec  (  3.3%)

Maximum memory used throughout the entire SCF-calculation: 90.8 MB


-------------------------------------------------------------------------------
                          DFT DISPERSION CORRECTION                            
                                                                               
                                 DFTD4 V2.5                                    
-------------------------------------------------------------------------------
The R2SCAN3C composite method is recognized
Using three-body term ABC
Active option DFTDOPT                   ...         5   

Starting D4
-------------------------   ----------------
Dispersion correction           -0.013079427
-------------------------   ----------------

------------------   -----------------
gCP correction             0.029309817
------------------   -----------------

-------------------------   --------------------
FINAL SINGLE POINT ENERGY      -855.784619378381
-------------------------   --------------------


                            ***************************************
                            *     ORCA property calculations      *
                            ***************************************

                                    ---------------------
                                    Active property flags
                                    ---------------------
   (+) Dipole Moment


------------------------------------------------------------------------------
                       ORCA ELECTRIC PROPERTIES CALCULATION
------------------------------------------------------------------------------

Dipole Moment Calculation                       ... on
Quadrupole Moment Calculation                   ... off
Polarizability Calculation                      ... off
GBWName                                         ... /lustre/hpc/kemi/ree/PhD/git/ReactivityQM/calculations/R01/reac02prodE07/conf04/gfn1/orca_calc.gbw
Electron density                                ... /lustre/hpc/kemi/ree/PhD/git/ReactivityQM/calculations/R01/reac02prodE07/conf04/gfn1/orca_calc.scfp
The origin for moment calculation is the CENTER OF MASS  = ( 0.548674,  0.733734  0.162215)

-------------
DIPOLE MOMENT
-------------
                                X             Y             Z
Electronic contribution:      5.54129       9.74791      -1.06552
Nuclear contribution   :     -8.63235     -11.74138       2.10725
                        -----------------------------------------
Total Dipole Moment    :     -3.09107      -1.99347       1.04173
                        -----------------------------------------
Magnitude (a.u.)       :      3.82281
Magnitude (Debye)      :      9.71680



--------------------
Rotational spectrum 
--------------------
 
Rotational constants in cm-1:     0.017306     0.013002     0.007962 
Rotational constants in MHz :   518.806592   389.803405   238.700183 

 Dipole components along the rotational axes: 
x,y,z [a.u.] :    -3.422726    -1.022777     1.361146 
x,y,z [Debye]:    -8.699878    -2.599693     3.459758 

 

Timings for individual modules:

Sum of individual times         ...       78.478 sec (=   1.308 min)
GTO integral calculation        ...        0.871 sec (=   0.015 min)   1.1 %
SCF iterations                  ...       77.607 sec (=   1.293 min)  98.9 %
                             ****ORCA TERMINATED NORMALLY****
TOTAL RUN TIME: 0 days 0 hours 1 minutes 19 seconds 337 msec
