      -----------------------------------------------------------      
     |                   =====================                   |     
     |                           x T B                           |     
     |                   =====================                   |     
     |                         S. Grimme                         |     
     |          Mulliken Center for Theoretical Chemistry        |     
     |                    University of Bonn                     |     
      -----------------------------------------------------------      

   * xtb version 6.5.1 (579679a) compiled by 'ehlert@majestix' on 2022-07-11

   xtb is free software: you can redistribute it and/or modify it under
   the terms of the GNU Lesser General Public License as published by
   the Free Software Foundation, either version 3 of the License, or
   (at your option) any later version.
   
   xtb is distributed in the hope that it will be useful,
   but WITHOUT ANY WARRANTY; without even the implied warranty of
   MERCHANTABILITY or FITNESS FOR A PARTICULAR PURPOSE.  See the
   GNU Lesser General Public License for more details.
   
   Cite this work as:
   * C. Bannwarth, E. Caldeweyher, S. Ehlert, A. Hansen, P. Pracht,
     J. Seibert, S. Spicher, S. Grimme, WIREs Comput. Mol. Sci., 2020, 11,
     e01493. DOI: 10.1002/wcms.1493
   
   for GFN2-xTB:
   * C. Bannwarth, S. Ehlert and S. Grimme., J. Chem. Theory Comput., 2019,
     15, 1652-1671. DOI: 10.1021/acs.jctc.8b01176
   for GFN1-xTB:
   * S. Grimme, C. Bannwarth, P. Shushkov, J. Chem. Theory Comput., 2017,
     13, 1989-2009. DOI: 10.1021/acs.jctc.7b00118
   for GFN0-xTB:
   * P. Pracht, E. Caldeweyher, S. Ehlert, S. Grimme, ChemRxiv, 2019, preprint.
     DOI: 10.26434/chemrxiv.8326202.v1
   for GFN-FF:
   * S. Spicher and S. Grimme, Angew. Chem. Int. Ed., 2020, 59, 15665-15673.
     DOI: 10.1002/anie.202004239
   
   for ALPB and GBSA implicit solvation:
   * S. Ehlert, M. Stahn, S. Spicher, S. Grimme, J. Chem. Theory Comput.,
     2021, 17, 4250-4261. DOI: 10.1021/acs.jctc.1c00471
   
   for DFT-D4:
   * E. Caldeweyher, C. Bannwarth and S. Grimme, J. Chem. Phys., 2017,
     147, 034112. DOI: 10.1063/1.4993215
   * E. Caldeweyher, S. Ehlert, A. Hansen, H. Neugebauer, S. Spicher,
     C. Bannwarth and S. Grimme, J. Chem. Phys., 2019, 150, 154122.
     DOI: 10.1063/1.5090222
   * E. Caldeweyher, J.-M. Mewes, S. Ehlert and S. Grimme, Phys. Chem. Chem. Phys.
     2020, 22, 8499-8512. DOI: 10.1039/D0CP00502A
   
   for sTDA-xTB:
   * S. Grimme and C. Bannwarth, J. Chem. Phys., 2016, 145, 054103.
     DOI: 10.1063/1.4959605
   
   in the mass-spec context:
   * V. Asgeirsson, C. Bauer and S. Grimme, Chem. Sci., 2017, 8, 4879.
     DOI: 10.1039/c7sc00601b
   * J. Koopman and S. Grimme, ACS Omega 2019, 4, 12, 15120-15133.
     DOI: 10.1021/acsomega.9b02011
   
   for metadynamics refer to:
   * S. Grimme, J. Chem. Theory Comput., 2019, 155, 2847-2862
     DOI: 10.1021/acs.jctc.9b00143
   
   for SPH calculations refer to:
   * S. Spicher and S. Grimme, J. Chem. Theory Comput., 2021, 17, 1701-1714
     DOI: 10.1021/acs.jctc.0c01306
   
   with help from (in alphabetical order)
   P. Atkinson, C. Bannwarth, F. Bohle, G. Brandenburg, E. Caldeweyher
   M. Checinski, S. Dohm, S. Ehlert, S. Ehrlich, I. Gerasimov, C. Hölzer
   A. Katbashev, J. Koopman, C. Lavigne, S. Lehtola, F. März, M. Müller,
   F. Musil, H. Neugebauer, J. Pisarek, C. Plett, P. Pracht, F. Pultar,
   J. Seibert, P. Shushkov, S. Spicher, M. Stahn, M. Steiner, T. Strunk,
   J. Stückrath, T. Rose, and J. Unsleber
   
 * started run on 2023/06/20 at 14:51:54.528     

           -------------------------------------------------
          |                Calculation Setup                |
           -------------------------------------------------

          program call               : /lustre/hpc/kemi/ree/PhD/git/ReactivityQM/dep/xtb-6.5.1/bin/xtb --gfn 1 /lustre/hpc/kemi/ree/PhD/git/ReactivityQM/calculations/RaltegravirCLI/reac02/conf11/RaltegravirCLI_reac02_conf11_gfn1.xyz --opt --vfukui --chrg 0 --uhf 0 --alpb DMSO
          hostname                   : node308
          coordinate file            : /lustre/hpc/kemi/ree/PhD/git/ReactivityQM/calculations/RaltegravirCLI/reac02/conf11/RaltegravirCLI_reac02_conf11_gfn1.xyz
          omp threads                :                     1

   ID    Z sym.   atoms
    1    6 C      1, 3-6, 9, 10, 13-17, 19-21, 23
    2    7 N      2, 7, 8, 12
    3    8 O      11, 22, 24
    4    9 F      18
    5    1 H      25-43

           -------------------------------------------------
          |                 G F N 1 - x T B                 |
           -------------------------------------------------

        Reference                      10.1021/acs.jctc.7b00118
      * Hamiltonian:
        H0-scaling (s, p, d)           1.850000    2.250000    2.000000
        zeta-weighting                 0.000000
      * Dispersion:
        s8                             2.400000
        a1                             0.630000
        a2                             5.000000
        s9                             0.000000
      * Repulsion:
        kExp                           1.500000
        rExp                           1.000000
      * Coulomb:
        alpha                          2.000000
        third order                    atomic
        anisotropic                    false
      * Halogen bond correction:
        rad-scale                      1.300000
        damping                        0.440000

      * Solvation model:               ALPB
        Solvent                        DMSO
        Parameter file                 internal GFN1-xTB/ALPB
        Dielectric constant                4.6680E+01
        Reference state                gsolv [1 M gas/solution]
        Free energy shift                  7.6243E-03 Eh       4.7843E+00 kcal/mol
        Temperature                        2.9815E+02 K
        Density                            1.1000E+00 kg/L
        Solvent mass                       7.8130E+01 g/mol
        Interaction kernel             P16
        Born radius scaling (c1)           1.7672E+00
        Born radii integrator          GBOBC
        Born offset                        0.0000E+00 a0       0.0000E+00 AA
        H-bond correction              true
        Ion screening                  false
        Surface tension                    1.0000E-05 Eh       1.5569E+01 dyn/cm
        Grid points                               230 per atom

          ...................................................
          :                      SETUP                      :
          :.................................................:
          :  # basis functions                 134          :
          :  # atomic orbitals                 134          :
          :  # shells                           86          :
          :  # electrons                       128          :
          :  # halogen bonds                     0          :
          :  max. iterations                   250          :
          :  Hamiltonian                  GFN1-xTB          :
          :  restarted?                      false          :
          :  GBSA solvation                   true          :
          :  PC potential                    false          :
          :  electronic temp.          300.0000000     K    :
          :  accuracy                    1.0000000          :
          :  -> integral cutoff          0.2500000E+02      :
          :  -> integral neglect         0.1000000E-07      :
          :  -> SCF convergence          0.1000000E-05 Eh   :
          :  -> wf. convergence          0.2000000E-04 e    :
          :  Broyden damping             0.4000000          :
          ...................................................

 iter      E             dE          RMSdq      gap      omega  full diag
   1    -76.8337754 -0.768338E+02  0.875E+00    2.77       0.0  T
   2    -77.0149388 -0.181163E+00  0.524E+00    2.52       1.0  T
   3    -77.0054384  0.950040E-02  0.104E+00    2.64       1.0  T
   4    -77.0214375 -0.159992E-01  0.141E-01    2.59       1.0  T
   5    -77.0220308 -0.593277E-03  0.417E-02    2.55       1.0  T
   6    -77.0220699 -0.390431E-04  0.976E-03    2.55       1.6  T
   7    -77.0220724 -0.250177E-05  0.276E-03    2.55       5.5  T
   8    -77.0220725 -0.155877E-06  0.960E-04    2.55      15.9  T
   9    -77.0220725 -0.185790E-07  0.344E-04    2.55      44.3  T
  10    -77.0220725 -0.139525E-08  0.936E-05    2.55     162.9  T
  11    -77.0220725 -0.123691E-09  0.198E-05    2.55     771.1  T

   *** convergence criteria satisfied after 11 iterations ***

         #    Occupation            Energy/Eh            Energy/eV
      -------------------------------------------------------------
         1        2.0000           -0.8588175             -23.3696
       ...           ...                  ...                  ...
        58        2.0000           -0.4521919             -12.3048
        59        2.0000           -0.4495589             -12.2331
        60        2.0000           -0.4412727             -12.0076
        61        2.0000           -0.4335738             -11.7981
        62        2.0000           -0.4306402             -11.7183
        63        2.0000           -0.4227680             -11.5041
        64        2.0000           -0.4120367             -11.2121 (HOMO)
        65                         -0.3181611              -8.6576 (LUMO)
        66                         -0.2790674              -7.5938
        67                         -0.2675543              -7.2805
        68                         -0.2641694              -7.1884
        69                         -0.2273755              -6.1872
       ...                                ...                  ...
       134                          0.7090504              19.2942
      -------------------------------------------------------------
                  HL-Gap            0.0938755 Eh            2.5545 eV
             Fermi-level           -0.3650989 Eh           -9.9348 eV

 SCC (total)                   0 d,  0 h,  0 min,  0.204 sec
 SCC setup                      ...        0 min,  0.002 sec (  1.142%)
 Dispersion                     ...        0 min,  0.000 sec (  0.220%)
 classical contributions        ...        0 min,  0.000 sec (  0.074%)
 integral evaluation            ...        0 min,  0.062 sec ( 30.322%)
 iterations                     ...        0 min,  0.051 sec ( 25.128%)
 molecular gradient             ...        0 min,  0.087 sec ( 42.569%)
 printout                       ...        0 min,  0.001 sec (  0.509%)

         :::::::::::::::::::::::::::::::::::::::::::::::::::::
         ::                     SUMMARY                     ::
         :::::::::::::::::::::::::::::::::::::::::::::::::::::
         :: total energy             -76.171680384431 Eh    ::
         :: total w/o Gsasa/hb       -76.144452459812 Eh    ::
         :: gradient norm              0.073493225477 Eh/a0 ::
         :: HOMO-LUMO gap              2.554483588610 eV    ::
         ::.................................................::
         :: SCC energy               -77.022072535063 Eh    ::
         :: -> electrostatic           0.245580248503 Eh    ::
         :: -> Gsolv                  -0.047838303252 Eh    ::
         ::    -> Gelec               -0.020610378633 Eh    ::
         ::    -> Gsasa               -0.024343376759 Eh    ::
         ::    -> Ghb                 -0.010508826865 Eh    ::
         ::    -> Gshift               0.007624279005 Eh    ::
         :: repulsion energy           0.877862596676 Eh    ::
         :: dispersion energy         -0.027470446043 Eh    ::
         :: halogen bond corr.         0.000000000000 Eh    ::
         :: add. restraining           0.000000000000 Eh    ::
         :: total charge               0.000000000000 e     ::
         :::::::::::::::::::::::::::::::::::::::::::::::::::::

      ----------------------------------------------------------- 
     |                   =====================                   |
     |                        A N C O P T                        |
     |                   =====================                   |
     |               Approximate Normal Coordinate               |
     |                Rational Function Optimizer                |
      ----------------------------------------------------------- 

          ...................................................
          :                      SETUP                      :
          :.................................................:
          :   optimization level            normal          :
          :   max. optcycles                   200          :
          :   ANC micro-cycles                  20          :
          :   degrees of freedom               123          :
          :.................................................:
          :   RF solver                   davidson          :
          :   write xtbopt.log                true          :
          :   linear?                        false          :
          :   energy convergence         0.5000000E-05 Eh   :
          :   grad. convergence          0.1000000E-02 Eh/α :
          :   maximium RF displ.         1.0000000          :
          :   Hlow (freq-cutoff)         0.1000000E-01      :
          :   Hmax (freq-cutoff)         5.0000000          :
          :   S6 in model hess.         20.0000000          :
          ...................................................

generating ANC from model Hessian ...
Using Lindh-Hessian (1995)
 Shifting diagonal of input Hessian by   9.769673373527171E-003
 Lowest  eigenvalues of input Hessian
    0.000000    0.000000    0.000000    0.000000    0.000000    0.000000
    0.010000    0.010043    0.010779    0.010844    0.011592    0.012559
    0.012877    0.015300    0.016358    0.017179    0.018703    0.019322
 Highest eigenvalues
    1.947154    2.037575    2.144468    2.179805    2.277059    2.380083
 

........................................................................
.............................. CYCLE    1 ..............................
........................................................................
   1    -77.0220725 -0.770221E+02  0.676E-06    2.55       0.0  T
   2    -77.0220725 -0.866862E-12  0.272E-06    2.55    5612.6  T
   3    -77.0220725 -0.213163E-12  0.171E-06    2.55    8906.7  T
     SCC iter.                  ...        0 min,  0.025 sec
     gradient                   ...        0 min,  0.161 sec
 * total energy  :   -76.1716804 Eh     change       -0.6906475E-11 Eh
   gradient norm :     0.0734932 Eh/α   predicted     0.0000000E+00 (-100.00%)
   displ. norm   :     0.2748821 α      lambda       -0.1038491E-01
   maximum displ.:     0.1033142 α      in ANC's #28, #52, #6, ...

........................................................................
.............................. CYCLE    2 ..............................
........................................................................
   1    -77.0207699 -0.770208E+02  0.592E-02    2.65       0.0  T
   2    -77.0208863 -0.116392E-03  0.244E-02    2.65       1.0  T
   3    -77.0208994 -0.130734E-04  0.127E-02    2.65       1.2  T
   4    -77.0208998 -0.418723E-06  0.412E-03    2.65       3.7  T
   5    -77.0209000 -0.183644E-06  0.851E-04    2.65      17.9  T
   6    -77.0209000 -0.161023E-07  0.226E-04    2.65      67.4  T
   7    -77.0209000 -0.144740E-08  0.747E-05    2.65     204.0  T
   8    -77.0209000 -0.747207E-10  0.235E-05    2.65     648.2  T
     SCC iter.                  ...        0 min,  0.031 sec
     gradient                   ...        0 min,  0.080 sec
 * total energy  :   -76.1788233 Eh     change       -0.7142887E-02 Eh
   gradient norm :     0.0326812 Eh/α   predicted    -0.5587383E-02 ( -21.78%)
   displ. norm   :     0.2711101 α      lambda       -0.3239371E-02
   maximum displ.:     0.1291678 α      in ANC's #6, #9, #28, ...

........................................................................
.............................. CYCLE    3 ..............................
........................................................................
   1    -77.0231433 -0.770231E+02  0.392E-02    2.74       0.0  T
   2    -77.0231899 -0.466406E-04  0.159E-02    2.74       1.0  T
   3    -77.0231946 -0.469501E-05  0.848E-03    2.74       1.8  T
   4    -77.0231948 -0.221009E-06  0.242E-03    2.74       6.3  T
   5    -77.0231949 -0.627599E-07  0.638E-04    2.74      23.9  T
   6    -77.0231949 -0.771635E-08  0.155E-04    2.74      98.7  T
   7    -77.0231949 -0.634330E-09  0.553E-05    2.74     275.7  T
     SCC iter.                  ...        0 min,  0.027 sec
     gradient                   ...        0 min,  0.080 sec
 * total energy  :   -76.1807148 Eh     change       -0.1891560E-02 Eh
   gradient norm :     0.0097326 Eh/α   predicted    -0.1739527E-02 (  -8.04%)
   displ. norm   :     0.1766392 α      lambda       -0.4998846E-03
   maximum displ.:     0.1092400 α      in ANC's #6, #7, #9, ...

........................................................................
.............................. CYCLE    4 ..............................
........................................................................
   1    -77.0246598 -0.770247E+02  0.938E-03    2.76       0.0  T
   2    -77.0246629 -0.310017E-05  0.434E-03    2.77       3.5  T
   3    -77.0246631 -0.199890E-06  0.225E-03    2.76       6.8  T
   4    -77.0246631 -0.138205E-07  0.741E-04    2.76      20.6  T
   5    -77.0246631 -0.390811E-08  0.183E-04    2.76      83.2  T
   6    -77.0246631 -0.872944E-09  0.587E-05    2.76     259.9  T
     SCC iter.                  ...        0 min,  0.024 sec
     gradient                   ...        0 min,  0.085 sec
 * total energy  :   -76.1810884 Eh     change       -0.3736084E-03 Eh
   gradient norm :     0.0063374 Eh/α   predicted    -0.2577450E-03 ( -31.01%)
   displ. norm   :     0.2461719 α      lambda       -0.4286738E-03
   maximum displ.:     0.1589002 α      in ANC's #6, #7, #9, ...

........................................................................
.............................. CYCLE    5 ..............................
........................................................................
   1    -77.0262776 -0.770263E+02  0.940E-03    2.79       0.0  T
   2    -77.0262818 -0.415829E-05  0.513E-03    2.79       3.0  T
   3    -77.0262823 -0.492465E-06  0.256E-03    2.79       6.0  T
   4    -77.0262823 -0.155477E-07  0.981E-04    2.78      15.5  T
   5    -77.0262823 -0.456055E-08  0.209E-04    2.78      73.1  T
   6    -77.0262823 -0.104656E-08  0.554E-05    2.78     275.1  T
   7    -77.0262823 -0.359961E-10  0.185E-05    2.78     823.7  T
     SCC iter.                  ...        0 min,  0.029 sec
     gradient                   ...        0 min,  0.085 sec
 * total energy  :   -76.1813695 Eh     change       -0.2810352E-03 Eh
   gradient norm :     0.0048269 Eh/α   predicted    -0.2273271E-03 ( -19.11%)
   displ. norm   :     0.1574410 α      lambda       -0.1434006E-03
   maximum displ.:     0.0989282 α      in ANC's #6, #7, #3, ...

........................................................................
.............................. CYCLE    6 ..............................
........................................................................
   1    -77.0269967 -0.770270E+02  0.469E-03    2.79       0.0  T
   2    -77.0269976 -0.903370E-06  0.243E-03    2.79       6.3  T
   3    -77.0269978 -0.129497E-06  0.116E-03    2.79      13.1  T
   4    -77.0269978 -0.162191E-08  0.407E-04    2.79      37.4  T
   5    -77.0269978 -0.948603E-09  0.827E-05    2.79     184.4  T
   6    -77.0269978 -0.146997E-09  0.235E-05    2.79     648.5  T
     SCC iter.                  ...        0 min,  0.025 sec
     gradient                   ...        0 min,  0.085 sec
 * total energy  :   -76.1814726 Eh     change       -0.1031543E-03 Eh
   gradient norm :     0.0041623 Eh/α   predicted    -0.7349041E-04 ( -28.76%)
   displ. norm   :     0.1524309 α      lambda       -0.1039529E-03
   maximum displ.:     0.0854422 α      in ANC's #6, #3, #7, ...

........................................................................
.............................. CYCLE    7 ..............................
........................................................................
   1    -77.0274960 -0.770275E+02  0.436E-03    2.79       0.0  T
   2    -77.0274967 -0.719081E-06  0.211E-03    2.79       7.2  T
   3    -77.0274968 -0.575440E-07  0.108E-03    2.79      14.1  T
   4    -77.0274968 -0.396952E-09  0.310E-04    2.79      49.3  T
   5    -77.0274968 -0.174322E-08  0.737E-05    2.79     206.9  T
   6    -77.0274968 -0.512870E-10  0.185E-05    2.79     823.3  T
     SCC iter.                  ...        0 min,  0.025 sec
     gradient                   ...        0 min,  0.085 sec
 * total energy  :   -76.1815451 Eh     change       -0.7248630E-04 Eh
   gradient norm :     0.0030699 Eh/α   predicted    -0.5318533E-04 ( -26.63%)
   displ. norm   :     0.1187997 α      lambda       -0.5933451E-04
   maximum displ.:     0.0549358 α      in ANC's #3, #6, #1, ...

........................................................................
.............................. CYCLE    8 ..............................
........................................................................
   1    -77.0276529 -0.770277E+02  0.397E-03    2.79       0.0  T
   2    -77.0276537 -0.784972E-06  0.171E-03    2.79       8.9  T
   3    -77.0276537 -0.297209E-07  0.866E-04    2.79      17.6  T
   4    -77.0276537 -0.577543E-09  0.243E-04    2.79      62.7  T
   5    -77.0276537 -0.734133E-09  0.708E-05    2.79     215.5  T
   6    -77.0276537 -0.982254E-10  0.162E-05    2.79     939.6  T
     SCC iter.                  ...        0 min,  0.023 sec
     gradient                   ...        0 min,  0.078 sec
 * total energy  :   -76.1815864 Eh     change       -0.4128120E-04 Eh
   gradient norm :     0.0022022 Eh/α   predicted    -0.3010165E-04 ( -27.08%)
   displ. norm   :     0.0899430 α      lambda       -0.3462660E-04
   maximum displ.:     0.0523587 α      in ANC's #3, #1, #12, ...

........................................................................
.............................. CYCLE    9 ..............................
........................................................................
   1    -77.0277123 -0.770277E+02  0.283E-03    2.78       0.0  T
   2    -77.0277126 -0.357874E-06  0.124E-03    2.78      12.3  T
   3    -77.0277126 -0.195726E-07  0.623E-04    2.78      24.5  T
   4    -77.0277126 -0.228383E-09  0.245E-04    2.78      62.1  T
   5    -77.0277126 -0.765127E-09  0.511E-05    2.78     298.6  T
   6    -77.0277126 -0.519123E-10  0.123E-05    2.78    1243.6  T
     SCC iter.                  ...        0 min,  0.022 sec
     gradient                   ...        0 min,  0.079 sec
 * total energy  :   -76.1816117 Eh     change       -0.2533946E-04 Eh
   gradient norm :     0.0019031 Eh/α   predicted    -0.1745403E-04 ( -31.12%)
   displ. norm   :     0.1242173 α      lambda       -0.2616145E-04
   maximum displ.:     0.0776042 α      in ANC's #3, #1, #12, ...

........................................................................
.............................. CYCLE   10 ..............................
........................................................................
   1    -77.0275964 -0.770276E+02  0.324E-03    2.78       0.0  T
   2    -77.0275968 -0.347285E-06  0.139E-03    2.78      11.0  T
   3    -77.0275968 -0.248754E-07  0.693E-04    2.78      22.0  T
   4    -77.0275968 -0.500918E-09  0.278E-04    2.78      54.8  T
   5    -77.0275968 -0.935643E-09  0.432E-05    2.78     353.3  T
   6    -77.0275968 -0.266027E-10  0.127E-05    2.78    1204.0  T
     SCC iter.                  ...        0 min,  0.022 sec
     gradient                   ...        0 min,  0.078 sec
 * total energy  :   -76.1816376 Eh     change       -0.2584706E-04 Eh
   gradient norm :     0.0018636 Eh/α   predicted    -0.1317192E-04 ( -49.04%)
   displ. norm   :     0.0882799 α      lambda       -0.1725177E-04
   maximum displ.:     0.0553889 α      in ANC's #3, #1, #5, ...

........................................................................
.............................. CYCLE   11 ..............................
........................................................................
   1    -77.0275201 -0.770275E+02  0.190E-03    2.78       0.0  T
   2    -77.0275203 -0.150944E-06  0.825E-04    2.78      18.5  T
   3    -77.0275203 -0.654737E-08  0.411E-04    2.78      37.1  T
   4    -77.0275203 -0.231509E-09  0.133E-04    2.78     114.9  T
   5    -77.0275203 -0.192983E-09  0.397E-05    2.78     384.2  T
     SCC iter.                  ...        0 min,  0.018 sec
     gradient                   ...        0 min,  0.074 sec
 * total energy  :   -76.1816593 Eh     change       -0.2170365E-04 Eh
   gradient norm :     0.0014264 Eh/α   predicted    -0.8659484E-05 ( -60.10%)
   displ. norm   :     0.1528177 α      lambda       -0.2591462E-04
   maximum displ.:     0.0923174 α      in ANC's #3, #1, #5, ...

........................................................................
.............................. CYCLE   12 ..............................
........................................................................
   1    -77.0274255 -0.770274E+02  0.254E-03    2.78       0.0  T
   2    -77.0274258 -0.283947E-06  0.113E-03    2.78      13.5  T
   3    -77.0274258 -0.164951E-07  0.565E-04    2.78      27.0  T
   4    -77.0274258 -0.752962E-09  0.205E-04    2.78      74.3  T
   5    -77.0274258 -0.498005E-09  0.589E-05    2.78     258.9  T
   6    -77.0274258 -0.553655E-10  0.140E-05    2.78    1090.8  T
     SCC iter.                  ...        0 min,  0.018 sec
     gradient                   ...        0 min,  0.083 sec
 * total energy  :   -76.1816897 Eh     change       -0.3036902E-04 Eh
   gradient norm :     0.0014145 Eh/α   predicted    -0.1309441E-04 ( -56.88%)
   displ. norm   :     0.1903020 α      lambda       -0.2182782E-04
   maximum displ.:     0.1148375 α      in ANC's #3, #1, #5, ...

........................................................................
.............................. CYCLE   13 ..............................
........................................................................
   1    -77.0272135 -0.770272E+02  0.206E-03    2.79       0.0  T
   2    -77.0272136 -0.118168E-06  0.916E-04    2.79      16.6  T
   3    -77.0272137 -0.723453E-08  0.458E-04    2.79      33.3  T
   4    -77.0272137 -0.959602E-09  0.152E-04    2.79     100.4  T
   5    -77.0272137 -0.285183E-09  0.425E-05    2.79     359.0  T
     SCC iter.                  ...        0 min,  0.019 sec
     gradient                   ...        0 min,  0.085 sec
 * total energy  :   -76.1817139 Eh     change       -0.2424200E-04 Eh
   gradient norm :     0.0014799 Eh/α   predicted    -0.1109021E-04 ( -54.25%)
   displ. norm   :     0.1545419 α      lambda       -0.1364047E-04
   maximum displ.:     0.0950449 α      in ANC's #1, #3, #5, ...

........................................................................
.............................. CYCLE   14 ..............................
........................................................................
   1    -77.0275693 -0.770276E+02  0.162E-03    2.79       0.0  T
   2    -77.0275694 -0.869939E-07  0.726E-04    2.79      21.0  T
   3    -77.0275694 -0.340508E-08  0.355E-04    2.79      42.9  T
   4    -77.0275694 -0.210136E-09  0.954E-05    2.79     159.8  T
   5    -77.0275694 -0.755449E-10  0.333E-05    2.79     458.4  T
     SCC iter.                  ...        0 min,  0.018 sec
     gradient                   ...        0 min,  0.085 sec
 * total energy  :   -76.1817296 Eh     change       -0.1571640E-04 Eh
   gradient norm :     0.0010925 Eh/α   predicted    -0.6897241E-05 ( -56.11%)
   displ. norm   :     0.1443379 α      lambda       -0.1133168E-04
   maximum displ.:     0.0915925 α      in ANC's #1, #3, #5, ...

........................................................................
.............................. CYCLE   15 ..............................
........................................................................
   1    -77.0276462 -0.770276E+02  0.192E-03    2.79       0.0  T
   2    -77.0276463 -0.114937E-06  0.909E-04    2.79      16.8  T
   3    -77.0276463 -0.463776E-08  0.482E-04    2.79      31.7  T
   4    -77.0276463 -0.196110E-09  0.115E-04    2.79     132.4  T
   5    -77.0276463 -0.187129E-09  0.376E-05    2.79     405.1  T
     SCC iter.                  ...        0 min,  0.019 sec
     gradient                   ...        0 min,  0.084 sec
 * total energy  :   -76.1817423 Eh     change       -0.1268384E-04 Eh
   gradient norm :     0.0006739 Eh/α   predicted    -0.5722602E-05 ( -54.88%)
   displ. norm   :     0.1329172 α      lambda       -0.9336486E-05
   maximum displ.:     0.0885816 α      in ANC's #1, #3, #4, ...

........................................................................
.............................. CYCLE   16 ..............................
........................................................................
   1    -77.0280226 -0.770280E+02  0.204E-03    2.79       0.0  T
   2    -77.0280228 -0.194087E-06  0.985E-04    2.79      15.5  T
   3    -77.0280228 -0.101628E-07  0.505E-04    2.79      30.2  T
   4    -77.0280228 -0.228795E-10  0.165E-04    2.79      92.4  T
   5    -77.0280228 -0.498318E-09  0.444E-05    2.79     343.2  T
     SCC iter.                  ...        0 min,  0.019 sec
     gradient                   ...        0 min,  0.070 sec
 * total energy  :   -76.1817528 Eh     change       -0.1047070E-04 Eh
   gradient norm :     0.0009999 Eh/α   predicted    -0.4705468E-05 ( -55.06%)
   displ. norm   :     0.1035065 α      lambda       -0.6662426E-05
   maximum displ.:     0.0726118 α      in ANC's #1, #3, #4, ...

........................................................................
.............................. CYCLE   17 ..............................
........................................................................
   1    -77.0280449 -0.770280E+02  0.126E-03    2.79       0.0  T
   2    -77.0280449 -0.789112E-07  0.602E-04    2.79      25.3  T
   3    -77.0280449 -0.320280E-08  0.312E-04    2.79      48.8  T
   4    -77.0280449 -0.171099E-10  0.764E-05    2.79     199.6  T
   5    -77.0280449 -0.103839E-09  0.228E-05    2.79     667.7  T
     SCC iter.                  ...        0 min,  0.019 sec
     gradient                   ...        0 min,  0.075 sec
 * total energy  :   -76.1817609 Eh     change       -0.8153657E-05 Eh
   gradient norm :     0.0008130 Eh/α   predicted    -0.3348605E-05 ( -58.93%)
   displ. norm   :     0.0964697 α      lambda       -0.6730390E-05
   maximum displ.:     0.0689622 α      in ANC's #1, #3, #4, ...

........................................................................
.............................. CYCLE   18 ..............................
........................................................................
   1    -77.0281321 -0.770281E+02  0.954E-04    2.79       0.0  T
   2    -77.0281322 -0.312508E-07  0.500E-04    2.79      30.5  T
   3    -77.0281322 -0.153565E-08  0.275E-04    2.79      55.5  T
   4    -77.0281322 -0.331397E-10  0.535E-05    2.79     284.8  T
   5    -77.0281322 -0.504343E-10  0.141E-05    2.79    1079.6  T
     SCC iter.                  ...        0 min,  0.020 sec
     gradient                   ...        0 min,  0.078 sec
 * total energy  :   -76.1817690 Eh     change       -0.8093171E-05 Eh
   gradient norm :     0.0006028 Eh/α   predicted    -0.3381494E-05 ( -58.22%)
   displ. norm   :     0.0939157 α      lambda       -0.5869664E-05
   maximum displ.:     0.0677228 α      in ANC's #1, #4, #3, ...

........................................................................
.............................. CYCLE   19 ..............................
........................................................................
   1    -77.0278863 -0.770279E+02  0.124E-03    2.79       0.0  T
   2    -77.0278863 -0.453180E-07  0.547E-04    2.79      27.9  T
   3    -77.0278863 -0.183975E-08  0.280E-04    2.79      54.4  T
   4    -77.0278863 -0.822098E-10  0.682E-05    2.79     223.5  T
   5    -77.0278863 -0.523386E-10  0.179E-05    2.79     852.9  T
     SCC iter.                  ...        0 min,  0.020 sec
     gradient                   ...        0 min,  0.070 sec
 * total energy  :   -76.1817756 Eh     change       -0.6621798E-05 Eh
   gradient norm :     0.0004671 Eh/α   predicted    -0.2949409E-05 ( -55.46%)
   displ. norm   :     0.0692843 α      lambda       -0.3863051E-05
   maximum displ.:     0.0487641 α      in ANC's #1, #4, #2, ...

........................................................................
.............................. CYCLE   20 ..............................
........................................................................
   1    -77.0279006 -0.770279E+02  0.597E-04    2.79       0.0  T
   2    -77.0279006 -0.107219E-07  0.269E-04    2.79      56.6  T
   3    -77.0279006 -0.606519E-09  0.140E-04    2.79     108.7  T
   4    -77.0279006 -0.683116E-10  0.414E-05    2.79     368.1  T
     SCC iter.                  ...        0 min,  0.017 sec
     gradient                   ...        0 min,  0.085 sec
 * total energy  :   -76.1817805 Eh     change       -0.4873648E-05 Eh
   gradient norm :     0.0004925 Eh/α   predicted    -0.1936821E-05 ( -60.26%)
   displ. norm   :     0.0832235 α      lambda       -0.5069410E-05
   maximum displ.:     0.0559025 α      in ANC's #1, #4, #2, ...

   *** GEOMETRY OPTIMIZATION CONVERGED AFTER 20 ITERATIONS ***

------------------------------------------------------------------------
 total energy gain   :        -0.0101001 Eh       -6.3379 kcal/mol
 total RMSD          :         0.3039672 a0        0.1609 Å
 total power (kW/mol):        -1.3258940 (step)   -8.9359 (real)
------------------------------------------------------------------------

 ANCopt (total)                0 d,  0 h,  0 min,  2.968 sec
 optimizer setup                ...        0 min,  0.005 sec (  0.172%)
 model hessian                  ...        0 min,  0.031 sec (  1.053%)
 ANC generation                 ...        0 min,  0.003 sec (  0.088%)
 coordinate transformation      ...        0 min,  0.001 sec (  0.027%)
 single point calculation       ...        0 min,  2.915 sec ( 98.230%)
 optimization log               ...        0 min,  0.007 sec (  0.242%)
 hessian update                 ...        0 min,  0.001 sec (  0.024%)
 rational function              ...        0 min,  0.003 sec (  0.096%)

================
 final structure:
================
43
 xtb: 6.5.1 (579679a)
C           -3.98486124738072       -1.76316452118151        0.92519546142779
N           -2.72513452552611       -1.27819988197842        0.35575788633437
C           -2.41274137641796        0.04395592171067        0.15772123357363
C           -3.39634401915882        1.16802211747391        0.46457717115246
C           -2.68504531303711        2.52194439145378        0.30584276862311
C           -4.57661975903968        1.10028994236779       -0.51497042324523
N           -3.89635103331370        1.03428108869427        1.83202258981837
N           -1.27459837785494        0.40210703670322       -0.34608647188228
C           -0.31763253489147       -0.50486197943254       -0.70539495692614
C            0.93506163353706        0.12255747038048       -1.24553198071519
O            1.00160921172517        1.32627761663161       -1.46670718896458
N            1.96548676481391       -0.71503107264093       -1.47592225813313
C            3.25576772976265       -0.20459154728978       -1.92597730332208
C            4.16968246442336        0.05681284575932       -0.74722473985490
C            5.27971396780362       -0.75228016905674       -0.52113826022616
C            6.11085701775169       -0.52563865492450        0.56835484109206
C            5.80281538843620        0.51827460280031        1.42070587917382
F            6.59885018759570        0.74240168276476        2.47978039554780
C            4.70917351723755        1.34325898096338        1.22545552349579
C            3.89238485389531        1.10454736617664        0.13016051222089
C           -0.57810370175399       -1.83568539813114       -0.55544522287716
O            0.27368201889942       -2.82637498376050       -0.89636885189800
C           -1.84365064062539       -2.27857287089312       -0.00411137189762
O           -2.10793305337708       -3.47223294369294        0.13835071415642
H           -4.43488605783114       -0.99256894397345        1.54461627111390
H           -3.76484518962368       -2.64242914717177        1.53114654554943
H           -4.66097494690934       -2.04837784625416        0.11881632116327
H           -2.33724231499752        2.65270836634839       -0.71848845715766
H           -3.37934004173788        3.32325501256044        0.55263744585663
H           -1.82893564201791        2.57728179958699        0.97675185881997
H           -4.21049924869333        1.10186560345137       -1.54120090351927
H           -5.21991717160093        1.96701679617121       -0.36998238433387
H           -5.16933624336472        0.20267448641140       -0.35414006407554
H           -3.14578022576419        1.20885772799482        2.48719025388464
H           -4.61208228041320        1.72960942120557        1.98959095963239
H            1.92524877688917       -1.68367032909330       -1.20709223383973
H            3.69843855531380       -0.94346708051985       -2.59795765580325
H            3.07557697012623        0.72246996543249       -2.48046638959378
H            5.50349786286503       -1.56678180036898       -1.19991688762614
H            6.97700117920167       -1.14707510310582        0.75379540234713
H            4.50552486906187        2.15225332611217        1.91499204900222
H            3.03165677416354        1.73982694847105       -0.04559083517439
H           -0.14917379816874       -3.68154824415287       -0.68918424292876
 
 Bond Distances (Angstroems)
 ---------------------------
C1-N2=1.4650         C1-H25=1.0863        C1-H26=1.0903        C1-H27=1.0903        N2-C1=1.4650         N2-C3=1.3729         
N2-C23=1.3810        C3-N2=1.3729         C3-C4=1.5248         C3-N8=1.2952         C4-C3=1.5248         C4-C5=1.5376         
C4-C6=1.5353         C4-N7=1.4621         C5-C4=1.5376         C5-H28=1.0896        C5-H29=1.0886        C5-H30=1.0891        
C6-C4=1.5353         C6-H31=1.0896        C6-H32=1.0891        C6-H33=1.0876        N7-C4=1.4621         N7-H34=1.0115        
N7-H35=1.0102        N8-C3=1.2952         N8-C9=1.3666         C9-N8=1.3666         C9-C10=1.5015        C9-C21=1.3643        
C10-C9=1.5015        C10-O11=1.2257       C10-N12=1.3477       O11-C10=1.2257       N12-C10=1.3477       N12-C13=1.4587       
N12-H36=1.0061       C13-N12=1.4587       C13-C14=1.5143       C13-H37=1.0925       C13-H38=1.0952       C14-C13=1.5143       
C14-C15=1.3921       C14-C20=1.3944       C15-C14=1.3921       C15-C16=1.3889       C15-H39=1.0836       C16-C15=1.3889       
C16-C17=1.3824       C16-H40=1.0820       C17-C16=1.3824       C17-F18=1.3437       C17-C19=1.3838       F18-C17=1.3437       
C19-C17=1.3838       C19-C20=1.3870       C19-H41=1.0823       C20-C14=1.3944       C20-C19=1.3870       C20-H42=1.0841       
C21-C9=1.3643        C21-O22=1.3503       C21-C23=1.4497       O22-C21=1.3503       O22-H43=0.9762       C23-N2=1.3810        
C23-C21=1.4497       C23-O24=1.2308       O24-C23=1.2308       H25-C1=1.0863        H26-C1=1.0903        H27-C1=1.0903        
H28-C5=1.0896        H29-C5=1.0886        H30-C5=1.0891        H31-C6=1.0896        H32-C6=1.0891        H33-C6=1.0876        
H34-N7=1.0115        H35-N7=1.0102        H36-N12=1.0061       H37-C13=1.0925       H38-C13=1.0952       H39-C15=1.0836       
H40-C16=1.0820       H41-C19=1.0823       H42-C20=1.0841       H43-O22=0.9762       
 C  H  Rav=1.0880 sigma=0.0036  Rmin=1.0820  Rmax=1.0952    15
 C  C  Rav=1.4428 sigma=0.0663  Rmin=1.3643  Rmax=1.5376    13
 N  H  Rav=1.0093 sigma=0.0023  Rmin=1.0061  Rmax=1.0115     3
 N  C  Rav=1.3937 sigma=0.0583  Rmin=1.2952  Rmax=1.4650     8
 O  H  Rav=0.9762 sigma=0.0000  Rmin=0.9762  Rmax=0.9762     1
 O  C  Rav=1.2689 sigma=0.0576  Rmin=1.2257  Rmax=1.3503     3
 F  C  Rav=1.3437 sigma=0.0000  Rmin=1.3437  Rmax=1.3437     1
 
 selected bond angles (degree)
 --------------------
H25-C1-N2=110.06               H26-C1-N2=108.03               H26-C1-H25=109.80              H27-C1-N2=109.41               
H27-C1-H25=110.51              H27-C1-H26=108.98              C3-N2-C1=124.79                C23-N2-C1=114.23               
C23-N2-C3=120.98               C4-C3-N2=122.28                N8-C3-N2=121.49                N8-C3-C4=116.19                
C5-C4-C3=109.26                C6-C4-C3=109.57                C6-C4-C5=109.18                N7-C4-C3=109.96                
N7-C4-C5=109.59                N7-C4-C6=109.25                H28-C5-C4=110.51               H29-C5-C4=109.25               
H29-C5-H28=109.17              H30-C5-C4=110.17               H30-C5-H28=108.79              H30-C5-H29=108.92              
H31-C6-C4=110.03               H32-C6-C4=109.51               H32-C6-H31=108.83              H33-C6-C4=111.16               
H33-C6-H31=108.88              H33-C6-H32=108.37              H34-N7-C4=109.65               H35-N7-C4=108.98               
H35-N7-H34=107.81              C9-N8-C3=122.28                C10-C9-N8=113.67               C21-C9-N8=119.00               
C21-C9-C10=127.33              O11-C10-C9=121.37              N12-C10-C9=116.08              N12-C10-O11=122.55             
 
 selected dihedral angles (degree)
 ---------------------------------
C3-N2-C1-H25=335.56           C3-N2-C1-H26=215.68           C3-N2-C1-H27= 97.17           C23-N2-C1-H25=156.59          
C23-N2-C1-H26= 36.72          C23-N2-C1-H27=278.21          C4-C3-N2-C1=357.28            C4-C3-N2-C23=176.18           
N8-C3-N2-C1=179.67            N8-C3-N2-C23=358.57           C5-C4-C3-N2=172.87            C5-C4-C3-N8=350.60            
C6-C4-C3-N2=292.46            C6-C4-C3-N8=110.19            N7-C4-C3-N2= 52.56            N7-C4-C3-N8=230.28            
H28-C5-C4-C3= 61.48           H28-C5-C4-C6=301.65           H28-C5-C4-N7=182.02           H29-C5-C4-C3=181.61           
H29-C5-C4-C6= 61.79           H29-C5-C4-N7=302.15           H30-C5-C4-C3=301.23           H30-C5-C4-C6=181.41           
H30-C5-C4-N7= 61.77           H31-C6-C4-C3=305.97           H31-C6-C4-C5= 65.60           H31-C6-C4-N7=185.44           
H32-C6-C4-C3=186.39           H32-C6-C4-C5=306.02           H32-C6-C4-N7= 65.86           H33-C6-C4-C3= 66.67           
H33-C6-C4-C5=186.30           H33-C6-C4-N7=306.14           H34-N7-C4-C3= 67.70           H34-N7-C4-C5=307.58           
H34-N7-C4-C6=187.99           H35-N7-C4-C3=185.49           H35-N7-C4-C5= 65.37           H35-N7-C4-C6=305.78           
C9-N8-C3-N2=359.76            C9-N8-C3-C4=182.01            C10-C9-N8-C3=181.03           C21-C9-N8-C3=  1.40           
O11-C10-C9-N8=352.52          O11-C10-C9-C21=172.10         N12-C10-C9-N8=172.90          N12-C10-C9-C21=352.49         
           -------------------------------------------------
          |                Final Singlepoint                |
           -------------------------------------------------

          ...................................................
          :                      SETUP                      :
          :.................................................:
          :  # basis functions                 134          :
          :  # atomic orbitals                 134          :
          :  # shells                           86          :
          :  # electrons                       128          :
          :  # halogen bonds                     0          :
          :  max. iterations                   250          :
          :  Hamiltonian                  GFN1-xTB          :
          :  restarted?                      false          :
          :  GBSA solvation                   true          :
          :  PC potential                    false          :
          :  electronic temp.          300.0000000     K    :
          :  accuracy                    1.0000000          :
          :  -> integral cutoff          0.2500000E+02      :
          :  -> integral neglect         0.1000000E-07      :
          :  -> SCF convergence          0.1000000E-05 Eh   :
          :  -> wf. convergence          0.2000000E-04 e    :
          :  Broyden damping             0.4000000          :
          ...................................................

 iter      E             dE          RMSdq      gap      omega  full diag
   1    -77.0279006 -0.770279E+02  0.112E-05    2.79       0.0  T
   2    -77.0279006 -0.149214E-11  0.568E-06    2.79    2685.3  T
   3    -77.0279006 -0.852651E-13  0.285E-06    2.79    5358.2  T

   *** convergence criteria satisfied after 3 iterations ***

         #    Occupation            Energy/Eh            Energy/eV
      -------------------------------------------------------------
         1        2.0000           -0.8634608             -23.4960
       ...           ...                  ...                  ...
        58        2.0000           -0.4508771             -12.2690
        59        2.0000           -0.4469259             -12.1615
        60        2.0000           -0.4395631             -11.9611
        61        2.0000           -0.4343232             -11.8185
        62        2.0000           -0.4322598             -11.7624
        63        2.0000           -0.4203547             -11.4384
        64        2.0000           -0.4128689             -11.2347 (HOMO)
        65                         -0.3102609              -8.4426 (LUMO)
        66                         -0.2731610              -7.4331
        67                         -0.2727837              -7.4228
        68                         -0.2662939              -7.2462
        69                         -0.2258180              -6.1448
       ...                                ...                  ...
       134                          0.7158685              19.4798
      -------------------------------------------------------------
                  HL-Gap            0.1026081 Eh            2.7921 eV
             Fermi-level           -0.3615649 Eh           -9.8387 eV

 SCC (total)                   0 d,  0 h,  0 min,  0.137 sec
 SCC setup                      ...        0 min,  0.002 sec (  1.476%)
 Dispersion                     ...        0 min,  0.000 sec (  0.290%)
 classical contributions        ...        0 min,  0.000 sec (  0.093%)
 integral evaluation            ...        0 min,  0.036 sec ( 26.190%)
 iterations                     ...        0 min,  0.013 sec (  9.414%)
 molecular gradient             ...        0 min,  0.085 sec ( 61.789%)
 printout                       ...        0 min,  0.001 sec (  0.691%)

         :::::::::::::::::::::::::::::::::::::::::::::::::::::
         ::                     SUMMARY                     ::
         :::::::::::::::::::::::::::::::::::::::::::::::::::::
         :: total energy             -76.181780511806 Eh    ::
         :: total w/o Gsasa/hb       -76.154420547309 Eh    ::
         :: gradient norm              0.000493361701 Eh/a0 ::
         :: HOMO-LUMO gap              2.792108228877 eV    ::
         ::.................................................::
         :: SCC energy               -77.027900647294 Eh    ::
         :: -> electrostatic           0.247016441709 Eh    ::
         :: -> Gsolv                  -0.048210896599 Eh    ::
         ::    -> Gelec               -0.020850932102 Eh    ::
         ::    -> Gsasa               -0.024522402596 Eh    ::
         ::    -> Ghb                 -0.010461840905 Eh    ::
         ::    -> Gshift               0.007624279005 Eh    ::
         :: repulsion energy           0.873344306364 Eh    ::
         :: dispersion energy         -0.027224170876 Eh    ::
         :: halogen bond corr.         0.000000000000 Eh    ::
         :: add. restraining           0.000000000000 Eh    ::
         :: total charge              -0.000000000000 e     ::
         :::::::::::::::::::::::::::::::::::::::::::::::::::::

           -------------------------------------------------
          |                Property Printout                |
           -------------------------------------------------

    * Orbital Energies and Occupations

         #    Occupation            Energy/Eh            Energy/eV
      -------------------------------------------------------------
         1        2.0000           -0.8634608             -23.4960
       ...           ...                  ...                  ...
        52        2.0000           -0.4995334             -13.5930
        53        2.0000           -0.4931352             -13.4189
        54        2.0000           -0.4848484             -13.1934
        55        2.0000           -0.4728828             -12.8678
        56        2.0000           -0.4661890             -12.6856
        57        2.0000           -0.4647977             -12.6478
        58        2.0000           -0.4508771             -12.2690
        59        2.0000           -0.4469259             -12.1615
        60        2.0000           -0.4395631             -11.9611
        61        2.0000           -0.4343232             -11.8185
        62        2.0000           -0.4322598             -11.7624
        63        2.0000           -0.4203547             -11.4384
        64        2.0000           -0.4128689             -11.2347 (HOMO)
        65                         -0.3102609              -8.4426 (LUMO)
        66                         -0.2731610              -7.4331
        67                         -0.2727837              -7.4228
        68                         -0.2662939              -7.2462
        69                         -0.2258180              -6.1448
        70                         -0.1482331              -4.0336
        71                         -0.1445705              -3.9340
        72                         -0.1350197              -3.6741
        73                         -0.1219263              -3.3178
        74                         -0.1201550              -3.2696
        75                         -0.1147282              -3.1219
       ...                                ...                  ...
       134                          0.7158685              19.4798
      -------------------------------------------------------------
                  HL-Gap            0.1026081 Eh            2.7921 eV
             Fermi-level           -0.3615649 Eh           -9.8387 eV

  Mulliken/CM5 charges         n(s)   n(p)   n(d)
     1C     0.04621 -0.04130   0.993  2.961  0.000
     2N    -0.20401 -0.45295   1.454  3.750  0.000
     3C     0.26914  0.42063   1.027  2.704  0.000
     4C     0.14613  0.18034   1.065  2.789  0.000
     5C    -0.10416 -0.24368   1.020  3.084  0.000
     6C    -0.10663 -0.24807   1.019  3.087  0.000
     7N    -0.51415 -0.97657   1.473  4.041  0.000
     8N    -0.36966 -0.55780   1.522  3.848  0.000
     9C     0.07817  0.15809   1.052  2.870  0.000
    10C     0.46639  0.57430   0.985  2.548  0.000
    11O    -0.59846 -0.64174   1.731  4.868  0.000
    12N    -0.34170 -0.70193   1.429  3.913  0.000
    13C     0.09285  0.04930   1.007  2.900  0.000
    14C    -0.01357 -0.02325   1.086  2.927  0.000
    15C    -0.03299 -0.08605   1.063  2.970  0.000
    16C    -0.06608 -0.11705   1.058  3.008  0.000
    17C     0.24448  0.25568   1.046  2.710  0.000
    18F    -0.27528 -0.29938   1.830  5.445  0.000
    19C    -0.06728 -0.11816   1.059  3.008  0.000
    20C    -0.02345 -0.07529   1.064  2.960  0.000
    21C     0.20350  0.23692   1.026  2.771  0.000
    22O    -0.52855 -0.72994   1.701  4.828  0.000
    23C     0.42594  0.52782   0.986  2.588  0.000
    24O    -0.60121 -0.65235   1.731  4.871  0.000
    25H     0.05481  0.13034   0.945  0.000  0.000
    26H     0.06880  0.13750   0.931  0.000  0.000
    27H     0.05635  0.11965   0.944  0.000  0.000
    28H     0.03985  0.09785   0.960  0.000  0.000
    29H     0.03911  0.09467   0.961  0.000  0.000
    30H     0.03947  0.09817   0.961  0.000  0.000
    31H     0.04023  0.09488   0.960  0.000  0.000
    32H     0.04976  0.10486   0.950  0.000  0.000
    33H     0.04115  0.09912   0.959  0.000  0.000
    34H     0.22334  0.41424   0.777  0.000  0.000
    35H     0.22738  0.41810   0.773  0.000  0.000
    36H     0.25869  0.46800   0.741  0.000  0.000
    37H     0.04514  0.11092   0.955  0.000  0.000
    38H     0.06066  0.13170   0.939  0.000  0.000
    39H     0.04752  0.10459   0.952  0.000  0.000
    40H     0.05985  0.11697   0.940  0.000  0.000
    41H     0.05801  0.11512   0.942  0.000  0.000
    42H     0.05299  0.11515   0.947  0.000  0.000
    43H     0.41131  0.59061   0.589  0.000  0.000

Wiberg/Mayer (AO) data.
largest (>0.10) Wiberg bond orders for each atom

 ---------------------------------------------------------------------------
     #   Z sym  total        # sym  WBO       # sym  WBO       # sym  WBO
 ---------------------------------------------------------------------------
     1   6 C    3.920 --    26 H    0.976    27 H    0.976    25 H    0.968
                             2 N    0.927
     2   7 N    3.516 --     3 C    1.171    23 C    1.138     1 C    0.927
                            24 O    0.133
     3   6 C    3.923 --     8 N    1.566     2 N    1.171     4 C    0.975
     4   6 C    3.965 --     5 C    0.992     6 C    0.985     7 N    0.980
                             3 C    0.975
     5   6 C    3.995 --     4 C    0.992    29 H    0.986    30 H    0.984
                            28 H    0.983
     6   6 C    3.994 --    31 H    0.986     4 C    0.985    32 H    0.983
                            33 H    0.982
     7   7 N    2.993 --     4 C    0.980    34 H    0.941    35 H    0.939
     8   7 N    3.032 --     3 C    1.566     9 C    1.197
     9   6 C    3.964 --    21 C    1.507     8 N    1.197    10 C    0.991
    10   6 C    3.907 --    11 O    1.571    12 N    1.263     9 C    0.991
    11   8 O    1.878 --    10 C    1.571    12 N    0.170
    12   7 N    3.345 --    10 C    1.263    13 C    0.942    36 H    0.889
                            11 O    0.170
    13   6 C    3.949 --    14 C    0.994    37 H    0.977    38 H    0.967
                            12 N    0.942
    14   6 C    3.988 --    15 C    1.424    20 C    1.413    13 C    0.994
    15   6 C    3.994 --    16 C    1.438    14 C    1.424    39 H    0.971
                            19 C    0.109
    16   6 C    3.991 --    15 C    1.438    17 C    1.405    40 H    0.969
                            20 C    0.112
    17   6 C    3.860 --    16 C    1.405    19 C    1.397    18 F    0.924
    18   9 F    1.051 --    17 C    0.924
    19   6 C    3.992 --    20 C    1.449    17 C    1.397    41 H    0.970
                            15 C    0.109
    20   6 C    3.993 --    19 C    1.449    14 C    1.413    42 H    0.969
                            16 C    0.112
    21   6 C    3.916 --     9 C    1.507    23 C    1.093    22 O    1.069
    22   8 O    2.062 --    21 C    1.069    43 H    0.802
    23   6 C    3.918 --    24 O    1.534     2 N    1.138    21 C    1.093
    24   8 O    1.882 --    23 C    1.534     2 N    0.133
    25   1 H    1.029 --     1 C    0.968
    26   1 H    1.008 --     1 C    0.976
    27   1 H    1.004 --     1 C    0.976
    28   1 H    1.013 --     5 C    0.983
    29   1 H    1.004 --     5 C    0.986
    30   1 H    1.010 --     5 C    0.984
    31   1 H    1.003 --     6 C    0.986
    32   1 H    1.000 --     6 C    0.983
    33   1 H    1.004 --     6 C    0.982
    34   1 H    0.956 --     7 N    0.941
    35   1 H    0.954 --     7 N    0.939
    36   1 H    0.946 --    12 N    0.889
    37   1 H    1.003 --    13 C    0.977
    38   1 H    1.011 --    13 C    0.967
    39   1 H    1.000 --    15 C    0.971
    40   1 H    0.998 --    16 C    0.969
    41   1 H    0.998 --    19 C    0.970
    42   1 H    1.009 --    20 C    0.969
    43   1 H    0.846 --    22 O    0.802
 ---------------------------------------------------------------------------

Topologies differ in total number of bonds
Writing topology from bond orders to xtbtopo.mol

 dipole moment from electron density (au)
     X       Y       Z   
  -1.6612  -0.7762   0.3981  total (Debye):    4.769

           -------------------------------------------------
          |                Geometry Summary                 |
           -------------------------------------------------

      molecular mass/u    :      334.3460794
   center of mass at/Å    :        0.5597452      -0.2008720       0.0150721
  moments of inertia/u·Å² :        0.1185047E+04   0.4697047E+04   0.5096846E+04
rotational constants/cm⁻¹ :        0.1422529E-01   0.3588985E-02   0.3307463E-02

 * 39 selected distances

     #   Z          #   Z                                           value/Å
     1   6 C        2   7 N                                       1.4650466
     2   7 N        3   6 C                                       1.3729182
     4   6 C        5   6 C                                       1.5376113 (max)
     4   6 C        6   6 C                                       1.5353021
     4   6 C        7   7 N                                       1.4621221
     3   6 C        8   7 N                                       1.2951696
     8   7 N        9   6 C                                       1.3665575
    10   6 C       11   8 O                                       1.2256792
    10   6 C       12   7 N                                       1.3477428
    12   7 N       13   6 C                                       1.4587404
    14   6 C       15   6 C                                       1.3920908
    15   6 C       16   6 C                                       1.3889423
    16   6 C       17   6 C                                       1.3824425
    17   6 C       19   6 C                                       1.3837539
    14   6 C       20   6 C                                       1.3944342
    19   6 C       20   6 C                                       1.3870106
     9   6 C       21   6 C                                       1.3643392
    21   6 C       22   8 O                                       1.3502718
     2   7 N       23   6 C                                       1.3810381
    23   6 C       24   8 O                                       1.2308393
     1   6 C       25   1 H                                       1.0862883
     1   6 C       26   1 H                                       1.0902707
     1   6 C       27   1 H                                       1.0902862
     5   6 C       28   1 H                                       1.0896425
     5   6 C       29   1 H                                       1.0886008
     5   6 C       30   1 H                                       1.0890846
     6   6 C       31   1 H                                       1.0895852
     6   6 C       32   1 H                                       1.0890678
     6   6 C       33   1 H                                       1.0876088
     7   7 N       34   1 H                                       1.0114734
     7   7 N       35   1 H                                       1.0102379
    12   7 N       36   1 H                                       1.0060571
    13   6 C       37   1 H                                       1.0924524
    13   6 C       38   1 H                                       1.0951576
    15   6 C       39   1 H                                       1.0836202
    16   6 C       40   1 H                                       1.0820247
    19   6 C       41   1 H                                       1.0823149
    20   6 C       42   1 H                                       1.0841226
    22   8 O       43   1 H                                       0.9762448 (min)

 * 6 distinct bonds (by element types)

   Z      Z             #   av. dist./Å        max./Å        min./Å
   1 H    6 C          15     1.0880085     1.0951576     1.0820247
   6 C    6 C           9     1.4184363     1.5376113     1.3643392
   1 H    7 N           3     1.0092561     1.0114734     1.0060571
   6 C    7 N           8     1.3936669     1.4650466     1.2951696
   1 H    8 O           1     0.9762448     0.9762448     0.9762448
   6 C    8 O           3     1.2689301     1.3502718     1.2256792


optimized geometry written to: xtbopt.xyz


           -------------------------------------------------
          | TOTAL ENERGY              -76.181780511806 Eh   |
          | GRADIENT NORM               0.000493361701 Eh/α |
          | HOMO-LUMO GAP               2.792108228877 eV   |
           -------------------------------------------------

------------------------------------------------------------------------
 * finished run on 2023/06/20 at 14:51:57.962     
------------------------------------------------------------------------
 total:
 * wall-time:     0 d,  0 h,  0 min,  3.434 sec
 *  cpu-time:     0 d,  0 h,  0 min,  3.179 sec
 * ratio c/w:     0.926 speedup
 SCF:
 * wall-time:     0 d,  0 h,  0 min,  0.205 sec
 *  cpu-time:     0 d,  0 h,  0 min,  0.168 sec
 * ratio c/w:     0.819 speedup
 ANC optimizer:
 * wall-time:     0 d,  0 h,  0 min,  3.125 sec
 *  cpu-time:     0 d,  0 h,  0 min,  2.959 sec
 * ratio c/w:     0.947 speedup

