43
 energy: -76.181780511806 gnorm: 0.000493361701 xtb: 6.5.1 (579679a)
C           -3.98486124738072       -1.76316452118151        0.92519546142779
N           -2.72513452552611       -1.27819988197842        0.35575788633437
C           -2.41274137641796        0.04395592171067        0.15772123357363
C           -3.39634401915882        1.16802211747391        0.46457717115246
C           -2.68504531303711        2.52194439145378        0.30584276862311
C           -4.57661975903968        1.10028994236779       -0.51497042324523
N           -3.89635103331370        1.03428108869427        1.83202258981837
N           -1.27459837785494        0.40210703670322       -0.34608647188228
C           -0.31763253489147       -0.50486197943254       -0.70539495692614
C            0.93506163353706        0.12255747038048       -1.24553198071519
O            1.00160921172517        1.32627761663161       -1.46670718896458
N            1.96548676481391       -0.71503107264093       -1.47592225813313
C            3.25576772976265       -0.20459154728978       -1.92597730332208
C            4.16968246442336        0.05681284575932       -0.74722473985490
C            5.27971396780362       -0.75228016905674       -0.52113826022616
C            6.11085701775169       -0.52563865492450        0.56835484109206
C            5.80281538843620        0.51827460280031        1.42070587917382
F            6.59885018759570        0.74240168276476        2.47978039554780
C            4.70917351723755        1.34325898096338        1.22545552349579
C            3.89238485389531        1.10454736617664        0.13016051222089
C           -0.57810370175399       -1.83568539813114       -0.55544522287716
O            0.27368201889942       -2.82637498376050       -0.89636885189800
C           -1.84365064062539       -2.27857287089312       -0.00411137189762
O           -2.10793305337708       -3.47223294369294        0.13835071415642
H           -4.43488605783114       -0.99256894397345        1.54461627111390
H           -3.76484518962368       -2.64242914717177        1.53114654554943
H           -4.66097494690934       -2.04837784625416        0.11881632116327
H           -2.33724231499752        2.65270836634839       -0.71848845715766
H           -3.37934004173788        3.32325501256044        0.55263744585663
H           -1.82893564201791        2.57728179958699        0.97675185881997
H           -4.21049924869333        1.10186560345137       -1.54120090351927
H           -5.21991717160093        1.96701679617121       -0.36998238433387
H           -5.16933624336472        0.20267448641140       -0.35414006407554
H           -3.14578022576419        1.20885772799482        2.48719025388464
H           -4.61208228041320        1.72960942120557        1.98959095963239
H            1.92524877688917       -1.68367032909330       -1.20709223383973
H            3.69843855531380       -0.94346708051985       -2.59795765580325
H            3.07557697012623        0.72246996543249       -2.48046638959378
H            5.50349786286503       -1.56678180036898       -1.19991688762614
H            6.97700117920167       -1.14707510310582        0.75379540234713
H            4.50552486906187        2.15225332611217        1.91499204900222
H            3.03165677416354        1.73982694847105       -0.04559083517439
H           -0.14917379816874       -3.68154824415287       -0.68918424292876
