42
 energy: -83.588759708640 gnorm: 0.000288776955 xtb: 6.5.1 (579679a)
C           -5.34152230343575        2.86388929365294        0.05012331900417
O           -4.13909387256799        2.15105216964886       -0.18453094686042
C           -4.10797850615711        0.86868407019488        0.28311700892790
O           -5.10263472617360        0.40336879363492        0.85452952878994
C           -2.86019074350273        0.17468726687625        0.05981265615122
C           -2.66062579094131       -1.09547111547112        0.54187698448251
O           -3.60380406099206       -1.76550594734611        1.25385360430341
C           -1.37683295990148       -1.91708917530191        0.19281441154761
C           -0.86767533134032       -2.57180814801956        1.53716866998172
O           -1.61665134404294       -2.79336358978572       -0.76142973646705
N           -0.29654948306838       -0.91570385022762       -0.16517138415336
C           -0.65184678153094        0.25944640790738       -0.58248187060212
C            0.47317545928892        1.15273726723315       -1.14781253805607
C            0.52954486756978        2.46721183782389       -0.35834262918046
C            0.19816368361377        1.42788294665992       -2.63233658891656
N            1.72422739699956        0.41531694063674       -0.98505193789512
C            2.92962801116743        0.85514422405994       -1.33617486392407
O            3.16898328803349        1.92483778829895       -1.90439180355636
C            4.03959585027440       -0.06865046650921       -0.97986424400148
N            5.30612756052501        0.09654968742206       -1.24436616929813
N            5.96293910037133       -0.97942942480925       -0.71542530432322
C            5.06331074628252       -1.73000459740154       -0.16215656098773
C            5.28010355930273       -3.00607028378898        0.55670794007760
O            3.82722064450817       -1.21751948991129       -0.29217908660357
N           -1.84050334359392        0.87353983116485       -0.59173269874767
H           -5.19870067671988        3.87355991908432       -0.33414011735095
H           -6.18416950930526        2.39069491046173       -0.46501264556495
H           -5.56682053905358        2.90712267566188        1.12083764913193
H           -4.40717824955055       -1.20977340477850        1.35041471803343
H           -0.69071113959181       -1.81202662451223        2.29877904947055
H           -1.60802446336072       -3.28617082537590        1.89685148671339
H            0.06290155877474       -3.09944508905169        1.33178626897083
H           -0.46135549739684        2.92275791205282       -0.37261807655262
H            1.24899666484185        3.16153546863027       -0.79190763823147
H            0.80874298387675        2.26905650394241        0.67675354891619
H           -0.80008038419030        1.85722746569597       -2.72654367573770
H            0.92567064639564        2.12559273280118       -3.04669378110669
H            0.23749253618499        0.49848776021273       -3.20171432685310
H            1.59820134412429       -0.49494092045795       -0.52737963677256
H            6.33690336590533       -3.25816479636394        0.53269501606151
H            4.70557983828439       -3.80630602940883        0.09083460004634
H            4.95544060008159       -2.91294109524532        1.59293580112753
