      -----------------------------------------------------------      
     |                   =====================                   |     
     |                           x T B                           |     
     |                   =====================                   |     
     |                         S. Grimme                         |     
     |          Mulliken Center for Theoretical Chemistry        |     
     |                    University of Bonn                     |     
      -----------------------------------------------------------      

   * xtb version 6.5.1 (579679a) compiled by 'ehlert@majestix' on 2022-07-11

   xtb is free software: you can redistribute it and/or modify it under
   the terms of the GNU Lesser General Public License as published by
   the Free Software Foundation, either version 3 of the License, or
   (at your option) any later version.
   
   xtb is distributed in the hope that it will be useful,
   but WITHOUT ANY WARRANTY; without even the implied warranty of
   MERCHANTABILITY or FITNESS FOR A PARTICULAR PURPOSE.  See the
   GNU Lesser General Public License for more details.
   
   Cite this work as:
   * C. Bannwarth, E. Caldeweyher, S. Ehlert, A. Hansen, P. Pracht,
     J. Seibert, S. Spicher, S. Grimme, WIREs Comput. Mol. Sci., 2020, 11,
     e01493. DOI: 10.1002/wcms.1493
   
   for GFN2-xTB:
   * C. Bannwarth, S. Ehlert and S. Grimme., J. Chem. Theory Comput., 2019,
     15, 1652-1671. DOI: 10.1021/acs.jctc.8b01176
   for GFN1-xTB:
   * S. Grimme, C. Bannwarth, P. Shushkov, J. Chem. Theory Comput., 2017,
     13, 1989-2009. DOI: 10.1021/acs.jctc.7b00118
   for GFN0-xTB:
   * P. Pracht, E. Caldeweyher, S. Ehlert, S. Grimme, ChemRxiv, 2019, preprint.
     DOI: 10.26434/chemrxiv.8326202.v1
   for GFN-FF:
   * S. Spicher and S. Grimme, Angew. Chem. Int. Ed., 2020, 59, 15665-15673.
     DOI: 10.1002/anie.202004239
   
   for ALPB and GBSA implicit solvation:
   * S. Ehlert, M. Stahn, S. Spicher, S. Grimme, J. Chem. Theory Comput.,
     2021, 17, 4250-4261. DOI: 10.1021/acs.jctc.1c00471
   
   for DFT-D4:
   * E. Caldeweyher, C. Bannwarth and S. Grimme, J. Chem. Phys., 2017,
     147, 034112. DOI: 10.1063/1.4993215
   * E. Caldeweyher, S. Ehlert, A. Hansen, H. Neugebauer, S. Spicher,
     C. Bannwarth and S. Grimme, J. Chem. Phys., 2019, 150, 154122.
     DOI: 10.1063/1.5090222
   * E. Caldeweyher, J.-M. Mewes, S. Ehlert and S. Grimme, Phys. Chem. Chem. Phys.
     2020, 22, 8499-8512. DOI: 10.1039/D0CP00502A
   
   for sTDA-xTB:
   * S. Grimme and C. Bannwarth, J. Chem. Phys., 2016, 145, 054103.
     DOI: 10.1063/1.4959605
   
   in the mass-spec context:
   * V. Asgeirsson, C. Bauer and S. Grimme, Chem. Sci., 2017, 8, 4879.
     DOI: 10.1039/c7sc00601b
   * J. Koopman and S. Grimme, ACS Omega 2019, 4, 12, 15120-15133.
     DOI: 10.1021/acsomega.9b02011
   
   for metadynamics refer to:
   * S. Grimme, J. Chem. Theory Comput., 2019, 155, 2847-2862
     DOI: 10.1021/acs.jctc.9b00143
   
   for SPH calculations refer to:
   * S. Spicher and S. Grimme, J. Chem. Theory Comput., 2021, 17, 1701-1714
     DOI: 10.1021/acs.jctc.0c01306
   
   with help from (in alphabetical order)
   P. Atkinson, C. Bannwarth, F. Bohle, G. Brandenburg, E. Caldeweyher
   M. Checinski, S. Dohm, S. Ehlert, S. Ehrlich, I. Gerasimov, C. Hölzer
   A. Katbashev, J. Koopman, C. Lavigne, S. Lehtola, F. März, M. Müller,
   F. Musil, H. Neugebauer, J. Pisarek, C. Plett, P. Pracht, F. Pultar,
   J. Seibert, P. Shushkov, S. Spicher, M. Stahn, M. Steiner, T. Strunk,
   J. Stückrath, T. Rose, and J. Unsleber
   
 * started run on 2023/06/20 at 14:59:14.306     

           -------------------------------------------------
          |                Calculation Setup                |
           -------------------------------------------------

          program call               : /lustre/hpc/kemi/ree/PhD/git/ReactivityQM/dep/xtb-6.5.1/bin/xtb --gfn 1 /lustre/hpc/kemi/ree/PhD/git/ReactivityQM/calculations/RaltegravirCLI/reac02prodE03/conf01/RaltegravirCLI_reac02prodE03_conf01_gfn1.xyz --opt --vfukui --chrg -1 --uhf 0 --alpb DMSO
          hostname                   : node308
          coordinate file            : /lustre/hpc/kemi/ree/PhD/git/ReactivityQM/calculations/RaltegravirCLI/reac02prodE03/conf01/RaltegravirCLI_reac02prodE03_conf01_gfn1.xyz
          omp threads                :                     1

   ID    Z sym.   atoms
    1    6 C      1, 3, 5, 7, 8, 11-15, 17, 18, 20-24
    2    7 N      2, 10, 19, 25
    3    8 O      4, 6, 9
    4    9 F      16
    5    1 H      26-47

           -------------------------------------------------
          |                 G F N 1 - x T B                 |
           -------------------------------------------------

        Reference                      10.1021/acs.jctc.7b00118
      * Hamiltonian:
        H0-scaling (s, p, d)           1.850000    2.250000    2.000000
        zeta-weighting                 0.000000
      * Dispersion:
        s8                             2.400000
        a1                             0.630000
        a2                             5.000000
        s9                             0.000000
      * Repulsion:
        kExp                           1.500000
        rExp                           1.000000
      * Coulomb:
        alpha                          2.000000
        third order                    atomic
        anisotropic                    false
      * Halogen bond correction:
        rad-scale                      1.300000
        damping                        0.440000

      * Solvation model:               ALPB
        Solvent                        DMSO
        Parameter file                 internal GFN1-xTB/ALPB
        Dielectric constant                4.6680E+01
        Reference state                gsolv [1 M gas/solution]
        Free energy shift                  7.6243E-03 Eh       4.7843E+00 kcal/mol
        Temperature                        2.9815E+02 K
        Density                            1.1000E+00 kg/L
        Solvent mass                       7.8130E+01 g/mol
        Interaction kernel             P16
        Born radius scaling (c1)           1.7672E+00
        Born radii integrator          GBOBC
        Born offset                        0.0000E+00 a0       0.0000E+00 AA
        H-bond correction              true
        Ion screening                  false
        Surface tension                    1.0000E-05 Eh       1.5569E+01 dyn/cm
        Grid points                               230 per atom

          ...................................................
          :                      SETUP                      :
          :.................................................:
          :  # basis functions                 144          :
          :  # atomic orbitals                 144          :
          :  # shells                           94          :
          :  # electrons                       136          :
          :  # halogen bonds                     0          :
          :  max. iterations                   250          :
          :  Hamiltonian                  GFN1-xTB          :
          :  restarted?                      false          :
          :  GBSA solvation                   true          :
          :  PC potential                    false          :
          :  electronic temp.          300.0000000     K    :
          :  accuracy                    1.0000000          :
          :  -> integral cutoff          0.2500000E+02      :
          :  -> integral neglect         0.1000000E-07      :
          :  -> SCF convergence          0.1000000E-05 Eh   :
          :  -> wf. convergence          0.2000000E-04 e    :
          :  Broyden damping             0.4000000          :
          ...................................................

 iter      E             dE          RMSdq      gap      omega  full diag
   1    -80.7848215 -0.807848E+02  0.883E+00    0.93       0.0  T
   2    -80.7877643 -0.294280E-02  0.552E+00    0.90       1.0  T
   3    -80.2855428  0.502221E+00  0.333E+00    0.44       1.0  T
   4    -80.8424334 -0.556891E+00  0.156E+00    0.21       1.0  T
   5    -80.9314032 -0.889699E-01  0.805E-01    0.10       1.0  T
   6    -80.8520320  0.793712E-01  0.132E+00    0.38       1.0  T
   7    -80.9452838 -0.932518E-01  0.753E-01    0.36       1.0  T
   8    -80.9880060 -0.427221E-01  0.276E-01    0.14       1.0  T
   9    -80.9867936  0.121238E-02  0.320E-01    0.16       1.0  T
  10    -80.9905681 -0.377453E-02  0.130E-01    0.05       1.0  T
  11    -80.9868417  0.372637E-02  0.240E-01    0.11       1.0  T
  12    -80.9917263 -0.488453E-02  0.353E-02    0.09       1.0  T
  13    -80.9914685  0.257815E-03  0.626E-02    0.09       1.0  T
  14    -80.9917325 -0.264089E-03  0.239E-02    0.08       1.0  T
  15    -80.9917743 -0.417720E-04  0.979E-03    0.08       1.5  T
  16    -80.9917811 -0.677510E-05  0.466E-03    0.08       3.1  T
  17    -80.9917761  0.498477E-05  0.886E-03    0.08       1.6  T
  18    -80.9917829 -0.682418E-05  0.127E-03    0.08      11.5  T
  19    -80.9917830 -0.117102E-06  0.520E-04    0.08      28.0  T
  20    -80.9917831 -0.223438E-07  0.100E-04    0.08     145.8  T
  21    -80.9917831 -0.736222E-09  0.404E-05    0.08     361.2  T

   *** convergence criteria satisfied after 21 iterations ***

         #    Occupation            Energy/Eh            Energy/eV
      -------------------------------------------------------------
         1        2.0000           -0.8446000             -22.9827
       ...           ...                  ...                  ...
        62        2.0000           -0.3995962             -10.8736
        63        2.0000           -0.3972724             -10.8103
        64        2.0000           -0.3932433             -10.7007
        65        2.0000           -0.3806120             -10.3570
        66        2.0000           -0.3696076             -10.0575
        67        2.0000           -0.3552658              -9.6673
        68        1.6409           -0.2588528              -7.0437 (HOMO)
        69        0.3512           -0.2559401              -6.9645 (LUMO)
        70        0.0079           -0.2521591              -6.8616
        71        0.0000           -0.2464006              -6.7049
        72                         -0.1592617              -4.3337
        73                         -0.1236142              -3.3637
       ...                                ...                  ...
       144                          0.7221371              19.6503
      -------------------------------------------------------------
                  HL-Gap            0.0029127 Eh            0.0793 eV
             Fermi-level           -0.2574094 Eh           -7.0045 eV

 SCC (total)                   0 d,  0 h,  0 min,  0.264 sec
 SCC setup                      ...        0 min,  0.002 sec (  0.918%)
 Dispersion                     ...        0 min,  0.000 sec (  0.184%)
 classical contributions        ...        0 min,  0.000 sec (  0.059%)
 integral evaluation            ...        0 min,  0.042 sec ( 15.816%)
 iterations                     ...        0 min,  0.119 sec ( 44.903%)
 molecular gradient             ...        0 min,  0.100 sec ( 37.683%)
 printout                       ...        0 min,  0.001 sec (  0.415%)

         :::::::::::::::::::::::::::::::::::::::::::::::::::::
         ::                     SUMMARY                     ::
         :::::::::::::::::::::::::::::::::::::::::::::::::::::
         :: total energy             -80.128679643311 Eh    ::
         :: total w/o Gsasa/hb       -80.103232191823 Eh    ::
         :: gradient norm              0.113726146423 Eh/a0 ::
         :: HOMO-LUMO gap              0.079259158413 eV    ::
         ::.................................................::
         :: SCC energy               -80.991783071110 Eh    ::
         :: -> electrostatic           0.348201947194 Eh    ::
         :: -> Gsolv                  -0.104111192350 Eh    ::
         ::    -> Gelec               -0.078663740861 Eh    ::
         ::    -> Gsasa               -0.024519016653 Eh    ::
         ::    -> Ghb                 -0.008552713840 Eh    ::
         ::    -> Gshift               0.007624279005 Eh    ::
         :: repulsion energy           0.894401612791 Eh    ::
         :: dispersion energy         -0.031298184992 Eh    ::
         :: halogen bond corr.         0.000000000000 Eh    ::
         :: add. restraining           0.000000000000 Eh    ::
         :: total charge              -1.000000000000 e     ::
         :::::::::::::::::::::::::::::::::::::::::::::::::::::

      ----------------------------------------------------------- 
     |                   =====================                   |
     |                        A N C O P T                        |
     |                   =====================                   |
     |               Approximate Normal Coordinate               |
     |                Rational Function Optimizer                |
      ----------------------------------------------------------- 

          ...................................................
          :                      SETUP                      :
          :.................................................:
          :   optimization level            normal          :
          :   max. optcycles                   200          :
          :   ANC micro-cycles                  20          :
          :   degrees of freedom               135          :
          :.................................................:
          :   RF solver                   davidson          :
          :   write xtbopt.log                true          :
          :   linear?                        false          :
          :   energy convergence         0.5000000E-05 Eh   :
          :   grad. convergence          0.1000000E-02 Eh/α :
          :   maximium RF displ.         1.0000000          :
          :   Hlow (freq-cutoff)         0.1000000E-01      :
          :   Hmax (freq-cutoff)         5.0000000          :
          :   S6 in model hess.         20.0000000          :
          ...................................................

generating ANC from model Hessian ...
Using Lindh-Hessian (1995)
 Shifting diagonal of input Hessian by   9.797965788535243E-003
 Lowest  eigenvalues of input Hessian
    0.000000    0.000000    0.000000    0.000000    0.000000    0.000000
    0.010000    0.010071    0.010648    0.010777    0.010963    0.011688
    0.012691    0.013852    0.014725    0.015153    0.016792    0.018158
 Highest eigenvalues
    1.920005    2.018843    2.023862    2.126051    2.193322    2.273302
 

........................................................................
.............................. CYCLE    1 ..............................
........................................................................
   1    -80.9917831 -0.809918E+02  0.266E-06    0.08       0.0  T
   2    -80.9917831  0.393641E-11  0.749E-06    0.08    1947.6  T
   3    -80.9917831  0.110703E-10  0.130E-05    0.08    1126.3  T
     SCC iter.                  ...        0 min,  0.013 sec
     gradient                   ...        0 min,  0.100 sec
 * total energy  :   -80.1286796 Eh     change       -0.1330847E-09 Eh
   gradient norm :     0.1137239 Eh/α   predicted     0.0000000E+00 (-100.00%)
   displ. norm   :     0.3179288 α      lambda       -0.1642316E-01
   maximum displ.:     0.0845740 α      in ANC's #31, #3, #8, ...

........................................................................
.............................. CYCLE    2 ..............................
........................................................................
   1    -80.9727951 -0.809728E+02  0.368E-01    0.27       0.0  T
   2    -80.8171930  0.155602E+00  0.144E+00    0.44       1.0  T
   3    -80.9814238 -0.164231E+00  0.162E-01    0.17       1.0  T
   4    -80.9832504 -0.182658E-02  0.755E-02    0.14       1.0  T
   5    -80.9834773 -0.226971E-03  0.513E-02    0.13       1.0  T
   6    -80.9836552 -0.177911E-03  0.939E-03    0.13       1.6  T
   7    -80.9836469  0.830971E-05  0.105E-02    0.13       1.4  T
   8    -80.9836562 -0.926603E-05  0.154E-03    0.13       9.5  T
   9    -80.9836559  0.319699E-06  0.227E-03    0.13       6.4  T
  10    -80.9836563 -0.412541E-06  0.492E-04    0.13      29.6  T
  11    -80.9836563 -0.222372E-07  0.821E-05    0.13     177.7  T
  12    -80.9836563  0.183164E-09  0.741E-05    0.13     196.8  T
     SCC iter.                  ...        0 min,  0.050 sec
     gradient                   ...        0 min,  0.100 sec
 * total energy  :   -80.1405834 Eh     change       -0.1190375E-01 Eh
   gradient norm :     0.0603823 Eh/α   predicted    -0.9057791E-02 ( -23.91%)
   displ. norm   :     0.3877990 α      lambda       -0.8976020E-02
   maximum displ.:     0.1442694 α      in ANC's #3, #8, #9, ...

........................................................................
.............................. CYCLE    3 ..............................
........................................................................
   1    -80.9788577 -0.809789E+02  0.237E-01    0.40       0.0  T
   2    -80.8984196  0.804382E-01  0.980E-01    0.31       1.0  T
   3    -80.9814773 -0.830577E-01  0.146E-01    0.32       1.0  T
   4    -80.9832191 -0.174176E-02  0.492E-02    0.30       1.0  T
   5    -80.9833510 -0.131950E-03  0.172E-02    0.28       1.0  T
   6    -80.9833633 -0.123103E-04  0.355E-03    0.28       4.1  T
   7    -80.9833636 -0.258709E-06  0.122E-03    0.28      12.0  T
   8    -80.9833636 -0.147353E-07  0.124E-03    0.28      11.8  T
   9    -80.9833637 -0.711504E-07  0.490E-04    0.28      29.8  T
  10    -80.9833637 -0.607540E-08  0.197E-04    0.28      74.2  T
  11    -80.9833637 -0.290268E-08  0.567E-05    0.28     257.4  T
     SCC iter.                  ...        0 min,  0.041 sec
     gradient                   ...        0 min,  0.079 sec
 * total energy  :   -80.1462816 Eh     change       -0.5698222E-02 Eh
   gradient norm :     0.0264251 Eh/α   predicted    -0.5162954E-02 (  -9.39%)
   displ. norm   :     0.3488934 α      lambda       -0.2618923E-02
   maximum displ.:     0.1847505 α      in ANC's #3, #8, #9, ...

........................................................................
.............................. CYCLE    4 ..............................
........................................................................
   1    -80.9868429 -0.809868E+02  0.453E-02    0.40       0.0  T
   2    -80.9867525  0.904314E-04  0.503E-02    0.37       1.0  T
   3    -80.9866834  0.690898E-04  0.577E-02    0.39       1.0  T
   4    -80.9869592 -0.275855E-03  0.104E-02    0.38       1.4  T
   5    -80.9869591  0.130663E-06  0.285E-03    0.38       5.1  T
   6    -80.9869595 -0.415085E-06  0.564E-04    0.38      25.9  T
   7    -80.9869595 -0.227145E-07  0.198E-04    0.38      73.5  T
   8    -80.9869595 -0.662610E-09  0.604E-05    0.38     241.6  T
     SCC iter.                  ...        0 min,  0.033 sec
     gradient                   ...        0 min,  0.094 sec
 * total energy  :   -80.1483063 Eh     change       -0.2024687E-02 Eh
   gradient norm :     0.0244163 Eh/α   predicted    -0.1468968E-02 ( -27.45%)
   displ. norm   :     0.5006301 α      lambda       -0.2895734E-02
   maximum displ.:     0.2911021 α      in ANC's #3, #8, #9, ...

........................................................................
.............................. CYCLE    5 ..............................
........................................................................
   1    -80.9906097 -0.809906E+02  0.116E-01    0.47       0.0  T
   2    -80.9837889  0.682079E-02  0.300E-01    0.53       1.0  T
   3    -80.9917858 -0.799688E-02  0.272E-02    0.48       1.0  T
   4    -80.9918012 -0.154336E-04  0.150E-02    0.48       1.0  T
   5    -80.9918018 -0.644517E-06  0.455E-03    0.48       3.2  T
   6    -80.9918024 -0.562528E-06  0.539E-04    0.48      27.1  T
   7    -80.9918024 -0.110283E-07  0.215E-04    0.48      67.8  T
   8    -80.9918024 -0.426340E-09  0.888E-05    0.48     164.3  T
   9    -80.9918024 -0.361993E-09  0.237E-05    0.48     615.6  T
     SCC iter.                  ...        0 min,  0.036 sec
     gradient                   ...        0 min,  0.094 sec
 * total energy  :   -80.1504543 Eh     change       -0.2148046E-02 Eh
   gradient norm :     0.0258833 Eh/α   predicted    -0.1810764E-02 ( -15.70%)
   displ. norm   :     0.4537200 α      lambda       -0.1992629E-02
   maximum displ.:     0.2931189 α      in ANC's #3, #8, #4, ...

........................................................................
.............................. CYCLE    6 ..............................
........................................................................
   1    -80.9920642 -0.809921E+02  0.193E-01    0.50       0.0  T
   2    -80.9749418  0.171224E-01  0.480E-01    0.55       1.0  T
   3    -80.9952938 -0.203520E-01  0.505E-02    0.54       1.0  T
   4    -80.9954755 -0.181702E-03  0.155E-02    0.53       1.0  T
   5    -80.9954826 -0.715976E-05  0.546E-03    0.53       2.7  T
   6    -80.9954834 -0.810917E-06  0.183E-03    0.53       8.0  T
   7    -80.9954837 -0.261297E-06  0.234E-04    0.53      62.3  T
   8    -80.9954837 -0.112713E-08  0.904E-05    0.53     161.3  T
   9    -80.9954837 -0.788987E-10  0.314E-05    0.53     464.1  T
     SCC iter.                  ...        0 min,  0.035 sec
     gradient                   ...        0 min,  0.095 sec
 * total energy  :   -80.1519545 Eh     change       -0.1500139E-02 Eh
   gradient norm :     0.0245169 Eh/α   predicted    -0.1201420E-02 ( -19.91%)
   displ. norm   :     0.4466136 α      lambda       -0.1753491E-02
   maximum displ.:     0.3052015 α      in ANC's #3, #8, #4, ...

........................................................................
.............................. CYCLE    7 ..............................
........................................................................
   1    -80.9931904 -0.809932E+02  0.235E-01    0.53       0.0  T
   2    -80.9685843  0.246061E-01  0.575E-01    0.55       1.0  T
   3    -80.9978326 -0.292483E-01  0.579E-02    0.56       1.0  T
   4    -80.9980776 -0.245056E-03  0.177E-02    0.56       1.0  T
   5    -80.9981000 -0.224042E-04  0.341E-03    0.55       4.3  T
   6    -80.9981005 -0.497066E-06  0.119E-03    0.55      12.3  T
   7    -80.9981006 -0.254361E-07  0.371E-04    0.55      39.3  T
   8    -80.9981006 -0.569179E-08  0.135E-04    0.55     107.7  T
   9    -80.9981006 -0.855778E-09  0.354E-05    0.55     411.5  T
     SCC iter.                  ...        0 min,  0.036 sec
     gradient                   ...        0 min,  0.098 sec
 * total energy  :   -80.1533752 Eh     change       -0.1420682E-02 Eh
   gradient norm :     0.0219973 Eh/α   predicted    -0.1051626E-02 ( -25.98%)
   displ. norm   :     0.5732504 α      lambda       -0.1967032E-02
   maximum displ.:     0.3915094 α      in ANC's #3, #8, #4, ...

........................................................................
.............................. CYCLE    8 ..............................
........................................................................
   1    -80.9912569 -0.809913E+02  0.264E-01    0.58       0.0  T
   2    -80.9608893  0.303676E-01  0.640E-01    0.56       1.0  T
   3    -80.9970531 -0.361638E-01  0.538E-02    0.58       1.0  T
   4    -80.9972493 -0.196183E-03  0.177E-02    0.58       1.0  T
   5    -80.9972697 -0.203525E-04  0.407E-03    0.58       3.6  T
   6    -80.9972705 -0.776767E-06  0.140E-03    0.58      10.4  T
   7    -80.9972705 -0.600538E-07  0.483E-04    0.58      30.2  T
   8    -80.9972705 -0.827771E-08  0.188E-04    0.58      77.7  T
   9    -80.9972705 -0.168338E-08  0.489E-05    0.58     298.2  T
     SCC iter.                  ...        0 min,  0.037 sec
     gradient                   ...        0 min,  0.093 sec
 * total energy  :   -80.1550182 Eh     change       -0.1643011E-02 Eh
   gradient norm :     0.0190527 Eh/α   predicted    -0.1306723E-02 ( -20.47%)
   displ. norm   :     0.6274387 α      lambda       -0.1953362E-02
   maximum displ.:     0.4442030 α      in ANC's #3, #8, #4, ...

........................................................................
.............................. CYCLE    9 ..............................
........................................................................
   1    -80.9928684 -0.809929E+02  0.234E-01    0.63       0.0  T
   2    -80.9684575  0.244109E-01  0.573E-01    0.56       1.0  T
   3    -80.9973567 -0.288992E-01  0.297E-02    0.60       1.0  T
   4    -80.9974038 -0.470513E-04  0.109E-02    0.60       1.3  T
   5    -80.9974053 -0.153147E-05  0.518E-03    0.59       2.8  T
   6    -80.9974068 -0.153832E-05  0.113E-03    0.59      12.9  T
   7    -80.9974069 -0.287642E-07  0.332E-04    0.59      43.9  T
   8    -80.9974069 -0.260722E-08  0.109E-04    0.59     133.6  T
   9    -80.9974069 -0.219970E-09  0.312E-05    0.59     467.9  T
     SCC iter.                  ...        0 min,  0.036 sec
     gradient                   ...        0 min,  0.094 sec
 * total energy  :   -80.1565789 Eh     change       -0.1560670E-02 Eh
   gradient norm :     0.0156395 Eh/α   predicted    -0.1361187E-02 ( -12.78%)
   displ. norm   :     0.6994379 α      lambda       -0.1592461E-02
   maximum displ.:     0.4939460 α      in ANC's #3, #8, #4, ...

........................................................................
.............................. CYCLE   10 ..............................
........................................................................
   1    -80.9918865 -0.809919E+02  0.157E-01    0.66       0.0  T
   2    -80.9812491  0.106374E-01  0.383E-01    0.60       1.0  T
   3    -80.9938957 -0.126466E-01  0.130E-02    0.64       1.1  T
   4    -80.9938997 -0.400270E-05  0.705E-03    0.64       2.1  T
   5    -80.9939003 -0.552655E-06  0.273E-03    0.63       5.3  T
   6    -80.9939004 -0.148137E-06  0.573E-04    0.63      25.5  T
   7    -80.9939005 -0.201832E-07  0.162E-04    0.63      90.3  T
   8    -80.9939005 -0.307409E-09  0.640E-05    0.63     228.0  T
     SCC iter.                  ...        0 min,  0.032 sec
     gradient                   ...        0 min,  0.095 sec
 * total energy  :   -80.1577391 Eh     change       -0.1160273E-02 Eh
   gradient norm :     0.0183852 Eh/α   predicted    -0.1185766E-02 (   2.20%)
   displ. norm   :     0.5526399 α      lambda       -0.1574648E-02
   maximum displ.:     0.4197325 α      in ANC's #3, #4, #5, ...

........................................................................
.............................. CYCLE   11 ..............................
........................................................................
   1    -80.9995705 -0.809996E+02  0.800E-02    0.67       0.0  T
   2    -80.9973357  0.223474E-02  0.178E-01    0.63       1.0  T
   3    -81.0000410 -0.270526E-02  0.144E-02    0.65       1.0  T
   4    -81.0000436 -0.256290E-05  0.752E-03    0.65       1.9  T
   5    -81.0000443 -0.733289E-06  0.152E-03    0.64       9.6  T
   6    -81.0000444 -0.546056E-07  0.182E-04    0.64      80.3  T
   7    -81.0000444 -0.826716E-09  0.726E-05    0.64     201.0  T
     SCC iter.                  ...        0 min,  0.020 sec
     gradient                   ...        0 min,  0.079 sec
 * total energy  :   -80.1587630 Eh     change       -0.1023879E-02 Eh
   gradient norm :     0.0184679 Eh/α   predicted    -0.1027796E-02 (   0.38%)
   displ. norm   :     0.5921240 α      lambda       -0.1119166E-02
   maximum displ.:     0.4488091 α      in ANC's #3, #4, #8, ...

........................................................................
.............................. CYCLE   12 ..............................
........................................................................
   1    -81.0000259 -0.810000E+02  0.298E-02    0.69       0.0  T
   2    -80.9998135  0.212339E-03  0.581E-02    0.67       1.0  T
   3    -81.0000969 -0.283374E-03  0.804E-03    0.68       1.8  T
   4    -81.0000992 -0.230835E-05  0.368E-03    0.68       4.0  T
   5    -81.0000993 -0.588516E-07  0.117E-03    0.68      12.5  T
   6    -81.0000993 -0.976146E-08  0.188E-04    0.68      77.6  T
   7    -81.0000993 -0.145857E-08  0.793E-05    0.68     184.0  T
     SCC iter.                  ...        0 min,  0.027 sec
     gradient                   ...        0 min,  0.095 sec
 * total energy  :   -80.1597264 Eh     change       -0.9634113E-03 Eh
   gradient norm :     0.0173498 Eh/α   predicted    -0.7557647E-03 ( -21.55%)
   displ. norm   :     0.5814064 α      lambda       -0.1409311E-02
   maximum displ.:     0.4505641 α      in ANC's #3, #4, #5, ...

........................................................................
.............................. CYCLE   13 ..............................
........................................................................
   1    -81.0034917 -0.810035E+02  0.777E-02    0.69       0.0  T
   2    -81.0016257  0.186599E-02  0.169E-01    0.73       1.0  T
   3    -81.0039689 -0.234317E-02  0.571E-03    0.71       2.6  T
   4    -81.0039706 -0.169986E-05  0.271E-03    0.71       5.4  T
   5    -81.0039707 -0.958013E-07  0.103E-03    0.71      14.2  T
   6    -81.0039707 -0.558404E-08  0.210E-04    0.71      69.5  T
   7    -81.0039707 -0.179747E-08  0.746E-05    0.71     195.6  T
   8    -81.0039707 -0.259206E-10  0.297E-05    0.71     490.7  T
     SCC iter.                  ...        0 min,  0.031 sec
     gradient                   ...        0 min,  0.095 sec
 * total energy  :   -80.1608261 Eh     change       -0.1099648E-02 Eh
   gradient norm :     0.0121798 Eh/α   predicted    -0.9428318E-03 ( -14.26%)
   displ. norm   :     0.6786712 α      lambda       -0.1037192E-02
   maximum displ.:     0.5291259 α      in ANC's #3, #4, #5, ...

........................................................................
.............................. CYCLE   14 ..............................
........................................................................
   1    -81.0026081 -0.810026E+02  0.324E-02    0.74       0.0  T
   2    -81.0024038  0.204293E-03  0.580E-02    0.76       1.0  T
   3    -81.0026720 -0.268214E-03  0.724E-03    0.75       2.0  T
   4    -81.0026761 -0.413171E-05  0.211E-03    0.75       6.9  T
   5    -81.0026762 -0.442041E-07  0.621E-04    0.75      23.5  T
   6    -81.0026762 -0.781461E-08  0.136E-04    0.75     107.1  T
   7    -81.0026762 -0.371514E-09  0.493E-05    0.75     296.1  T
     SCC iter.                  ...        0 min,  0.028 sec
     gradient                   ...        0 min,  0.095 sec
 * total energy  :   -80.1616783 Eh     change       -0.8522129E-03 Eh
   gradient norm :     0.0124153 Eh/α   predicted    -0.7574407E-03 ( -11.12%)
   displ. norm   :     0.6498185 α      lambda       -0.9151287E-03
   maximum displ.:     0.5119467 α      in ANC's #3, #4, #5, ...

........................................................................
.............................. CYCLE   15 ..............................
........................................................................
   1    -81.0040157 -0.810040E+02  0.287E-02    0.78       0.0  T
   2    -81.0039022  0.113487E-03  0.437E-02    0.80       1.0  T
   3    -81.0040516 -0.149317E-03  0.103E-02    0.79       1.4  T
   4    -81.0040589 -0.739135E-05  0.258E-03    0.79       5.7  T
   5    -81.0040590 -0.139035E-07  0.400E-04    0.79      36.4  T
   6    -81.0040590 -0.173839E-08  0.120E-04    0.79     121.4  T
   7    -81.0040590 -0.367294E-09  0.254E-05    0.79     574.0  T
     SCC iter.                  ...        0 min,  0.027 sec
     gradient                   ...        0 min,  0.095 sec
 * total energy  :   -80.1624140 Eh     change       -0.7356868E-03 Eh
   gradient norm :     0.0107705 Eh/α   predicted    -0.6507707E-03 ( -11.54%)
   displ. norm   :     0.6892839 α      lambda       -0.8114895E-03
   maximum displ.:     0.5362197 α      in ANC's #3, #4, #5, ...

........................................................................
.............................. CYCLE   16 ..............................
........................................................................
   1    -81.0026432 -0.810026E+02  0.332E-02    0.83       0.0  T
   2    -81.0024598  0.183451E-03  0.567E-02    0.82       1.0  T
   3    -81.0027158 -0.256053E-03  0.653E-03    0.83       2.2  T
   4    -81.0027182 -0.233854E-05  0.305E-03    0.83       4.8  T
   5    -81.0027183 -0.158668E-06  0.575E-04    0.83      25.4  T
   6    -81.0027183  0.523784E-09  0.267E-04    0.83      54.6  T
   7    -81.0027183 -0.287918E-08  0.595E-05    0.83     245.2  T
   8    -81.0027183 -0.981402E-10  0.137E-05    0.83    1062.0  T
     SCC iter.                  ...        0 min,  0.031 sec
     gradient                   ...        0 min,  0.095 sec
 * total energy  :   -80.1630458 Eh     change       -0.6318556E-03 Eh
   gradient norm :     0.0106393 Eh/α   predicted    -0.5985041E-03 (  -5.28%)
   displ. norm   :     0.5888195 α      lambda       -0.8201085E-03
   maximum displ.:     0.4531522 α      in ANC's #3, #4, #5, ...

........................................................................
.............................. CYCLE   17 ..............................
........................................................................
   1    -81.0073532 -0.810074E+02  0.221E-02    0.85       0.0  T
   2    -81.0073635 -0.103088E-04  0.869E-03    0.86       1.7  T
   3    -81.0073625  0.945562E-06  0.772E-03    0.86       1.9  T
   4    -81.0073630 -0.444097E-06  0.547E-03    0.86       2.7  T
   5    -81.0073650 -0.196295E-05  0.542E-04    0.86      26.9  T
   6    -81.0073650 -0.799345E-08  0.161E-04    0.86      90.4  T
   7    -81.0073650 -0.855806E-09  0.432E-05    0.86     337.7  T
     SCC iter.                  ...        0 min,  0.027 sec
     gradient                   ...        0 min,  0.096 sec
 * total energy  :   -80.1635835 Eh     change       -0.5376993E-03 Eh
   gradient norm :     0.0100475 Eh/α   predicted    -0.5522119E-03 (   2.70%)
   displ. norm   :     0.7039776 α      lambda       -0.6357282E-03
   maximum displ.:     0.5443952 α      in ANC's #3, #4, #1, ...

........................................................................
.............................. CYCLE   18 ..............................
........................................................................
   1    -81.0044307 -0.810044E+02  0.208E-02    0.90       0.0  T
   2    -81.0044062  0.245345E-04  0.256E-02    0.89       1.0  T
   3    -81.0044482 -0.420564E-04  0.796E-03    0.90       1.8  T
   4    -81.0044511 -0.283044E-05  0.459E-03    0.89       3.2  T
   5    -81.0044515 -0.448442E-06  0.674E-04    0.89      21.6  T
   6    -81.0044515 -0.968920E-08  0.161E-04    0.89      90.3  T
   7    -81.0044515 -0.655149E-09  0.635E-05    0.89     229.7  T
     SCC iter.                  ...        0 min,  0.028 sec
     gradient                   ...        0 min,  0.105 sec
 * total energy  :   -80.1640590 Eh     change       -0.4754634E-03 Eh
   gradient norm :     0.0093261 Eh/α   predicted    -0.4753837E-03 (  -0.02%)
   displ. norm   :     0.5856260 α      lambda       -0.5305370E-03
   maximum displ.:     0.4376431 α      in ANC's #3, #4, #1, ...

........................................................................
.............................. CYCLE   19 ..............................
........................................................................
   1    -81.0051525 -0.810052E+02  0.197E-02    0.91       0.0  T
   2    -81.0051530 -0.474582E-06  0.122E-02    0.91       1.2  T
   3    -81.0051534 -0.455618E-06  0.132E-02    0.91       1.1  T
   4    -81.0051645 -0.110808E-04  0.304E-03    0.91       4.8  T
   5    -81.0051646 -0.284029E-07  0.122E-03    0.91      12.0  T
   6    -81.0051646 -0.460112E-07  0.168E-04    0.91      86.8  T
   7    -81.0051646 -0.114446E-08  0.401E-05    0.91     363.7  T
     SCC iter.                  ...        0 min,  0.027 sec
     gradient                   ...        0 min,  0.096 sec
 * total energy  :   -80.1644554 Eh     change       -0.3964693E-03 Eh
   gradient norm :     0.0107255 Eh/α   predicted    -0.3562404E-03 ( -10.15%)
   displ. norm   :     0.5286071 α      lambda       -0.5714978E-03
   maximum displ.:     0.3799819 α      in ANC's #3, #4, #1, ...

........................................................................
.............................. CYCLE   20 ..............................
........................................................................
   1    -81.0066121 -0.810066E+02  0.133E-02    0.93       0.0  T
   2    -81.0066172 -0.504408E-05  0.623E-03    0.93       2.3  T
   3    -81.0066172 -0.803028E-07  0.484E-03    0.93       3.0  T
   4    -81.0066164  0.863797E-06  0.393E-03    0.93       3.7  T
   5    -81.0066177 -0.135465E-05  0.115E-03    0.93      12.6  T
   6    -81.0066178 -0.625247E-07  0.121E-04    0.93     120.4  T
   7    -81.0066178 -0.349416E-09  0.499E-05    0.93     292.6  T
     SCC iter.                  ...        0 min,  0.027 sec
     gradient                   ...        0 min,  0.096 sec
 * total energy  :   -80.1648908 Eh     change       -0.4353854E-03 Eh
   gradient norm :     0.0088826 Eh/α   predicted    -0.3655912E-03 ( -16.03%)
   displ. norm   :     0.5610714 α      lambda       -0.4957788E-03
   maximum displ.:     0.3788159 α      in ANC's #3, #4, #1, ...
 * RMSD in coord.:     1.4646908 α      energy gain  -0.3621119E-01 Eh

generating ANC from model Hessian ...
Using Lindh-Hessian (1995)
 Shifting diagonal of input Hessian by   9.759455386981959E-003
 Lowest  eigenvalues of input Hessian
    0.000000    0.000000    0.000000    0.000000    0.000000    0.000000
    0.010000    0.010015    0.010482    0.010660    0.010872    0.011383
    0.013326    0.013501    0.014234    0.014421    0.016035    0.018034
 Highest eigenvalues
    1.881865    2.000568    2.019461    2.091904    2.170547    2.265240
 

........................................................................
.............................. CYCLE   21 ..............................
........................................................................
   1    -81.0071169 -0.810071E+02  0.133E-02    0.95       0.0  T
   2    -81.0070969  0.200354E-04  0.228E-02    0.94       1.0  T
   3    -81.0071299 -0.329771E-04  0.596E-03    0.95       2.4  T
   4    -81.0071295  0.313060E-06  0.444E-03    0.95       3.3  T
   5    -81.0071302 -0.661601E-06  0.960E-04    0.95      15.2  T
   6    -81.0071302 -0.400910E-07  0.205E-04    0.95      71.2  T
   7    -81.0071302 -0.118541E-08  0.612E-05    0.95     238.4  T
   8    -81.0071302 -0.134037E-09  0.146E-05    0.95    1002.3  T
     SCC iter.                  ...        0 min,  0.031 sec
     gradient                   ...        0 min,  0.096 sec
 * total energy  :   -80.1652700 Eh     change       -0.3791236E-03 Eh
   gradient norm :     0.0091330 Eh/α   predicted     0.0000000E+00 (-100.00%)
   displ. norm   :     0.1018405 α      lambda       -0.3078031E-03
   maximum displ.:     0.0605391 α      in ANC's #12, #6, #2, ...

........................................................................
.............................. CYCLE   22 ..............................
........................................................................
   1    -81.0089735 -0.810090E+02  0.149E-02    0.95       0.0  T
   2    -81.0089323  0.411469E-04  0.266E-02    0.94       1.0  T
   3    -81.0089891 -0.567504E-04  0.245E-03    0.95       6.0  T
   4    -81.0089891 -0.571867E-07  0.897E-04    0.95      16.3  T
   5    -81.0089891 -0.696001E-08  0.222E-04    0.95      65.8  T
   6    -81.0089891 -0.112087E-08  0.526E-05    0.95     277.1  T
   7    -81.0089891 -0.604672E-10  0.155E-05    0.95     938.7  T
     SCC iter.                  ...        0 min,  0.027 sec
     gradient                   ...        0 min,  0.096 sec
 * total energy  :   -80.1655161 Eh     change       -0.2461793E-03 Eh
   gradient norm :     0.0040564 Eh/α   predicted    -0.1554981E-03 ( -36.84%)
   displ. norm   :     0.2745452 α      lambda       -0.4745751E-03
   maximum displ.:     0.1751606 α      in ANC's #12, #6, #2, ...

........................................................................
.............................. CYCLE   23 ..............................
........................................................................
   1    -81.0099651 -0.810100E+02  0.336E-02    0.95       0.0  T
   2    -81.0097348  0.230356E-03  0.626E-02    0.94       1.0  T
   3    -81.0100507 -0.315871E-03  0.385E-03    0.95       3.8  T
   4    -81.0100507 -0.436271E-07  0.163E-03    0.95       8.9  T
   5    -81.0100507 -0.368309E-07  0.370E-04    0.95      39.4  T
   6    -81.0100507 -0.243767E-08  0.982E-05    0.95     148.6  T
   7    -81.0100507 -0.230969E-09  0.320E-05    0.95     455.1  T
     SCC iter.                  ...        0 min,  0.028 sec
     gradient                   ...        0 min,  0.096 sec
 * total energy  :   -80.1658525 Eh     change       -0.3363272E-03 Eh
   gradient norm :     0.0061113 Eh/α   predicted    -0.2551804E-03 ( -24.13%)
   displ. norm   :     0.3115385 α      lambda       -0.3346791E-03
   maximum displ.:     0.2036835 α      in ANC's #12, #6, #2, ...

........................................................................
.............................. CYCLE   24 ..............................
........................................................................
   1    -81.0087192 -0.810087E+02  0.325E-02    0.95       0.0  T
   2    -81.0084955  0.223708E-03  0.617E-02    0.94       1.0  T
   3    -81.0088016 -0.306119E-03  0.334E-03    0.95       4.4  T
   4    -81.0088016  0.230552E-07  0.141E-03    0.94      10.4  T
   5    -81.0088016 -0.495200E-07  0.350E-04    0.94      41.7  T
   6    -81.0088016 -0.338397E-08  0.899E-05    0.94     162.3  T
   7    -81.0088016 -0.205944E-09  0.279E-05    0.94     522.0  T
     SCC iter.                  ...        0 min,  0.027 sec
     gradient                   ...        0 min,  0.096 sec
 * total energy  :   -80.1660968 Eh     change       -0.2443047E-03 Eh
   gradient norm :     0.0102687 Eh/α   predicted    -0.1835841E-03 ( -24.85%)
   displ. norm   :     0.3269443 α      lambda       -0.3580667E-03
   maximum displ.:     0.1963812 α      in ANC's #12, #6, #2, ...

........................................................................
.............................. CYCLE   25 ..............................
........................................................................
   1    -81.0072601 -0.810073E+02  0.318E-02    0.95       0.0  T
   2    -81.0070362  0.223904E-03  0.620E-02    0.93       1.0  T
   3    -81.0073433 -0.307152E-03  0.303E-03    0.94       4.8  T
   4    -81.0073433 -0.231226E-07  0.161E-03    0.94       9.0  T
   5    -81.0073434 -0.632773E-07  0.491E-04    0.94      29.7  T
   6    -81.0073434 -0.888814E-08  0.105E-04    0.94     138.4  T
   7    -81.0073434 -0.340549E-09  0.301E-05    0.94     484.0  T
     SCC iter.                  ...        0 min,  0.027 sec
     gradient                   ...        0 min,  0.096 sec
 * total energy  :   -80.1663701 Eh     change       -0.2733365E-03 Eh
   gradient norm :     0.0105170 Eh/α   predicted    -0.1981870E-03 ( -27.49%)
   displ. norm   :     0.3361199 α      lambda       -0.5019887E-03
   maximum displ.:     0.1577966 α      in ANC's #12, #6, #2, ...

........................................................................
.............................. CYCLE   26 ..............................
........................................................................
   1    -81.0078044 -0.810078E+02  0.334E-02    0.94       0.0  T
   2    -81.0075611  0.243267E-03  0.653E-02    0.92       1.0  T
   3    -81.0078973 -0.336182E-03  0.534E-03    0.93       2.7  T
   4    -81.0078975 -0.212914E-06  0.256E-03    0.93       5.7  T
   5    -81.0078976 -0.141867E-06  0.686E-04    0.93      21.3  T
   6    -81.0078976 -0.176438E-07  0.101E-04    0.93     144.1  T
   7    -81.0078976 -0.256847E-09  0.324E-05    0.93     450.7  T
     SCC iter.                  ...        0 min,  0.028 sec
     gradient                   ...        0 min,  0.096 sec
 * total energy  :   -80.1667200 Eh     change       -0.3498612E-03 Eh
   gradient norm :     0.0052991 Eh/α   predicted    -0.2793513E-03 ( -20.15%)
   displ. norm   :     0.4416826 α      lambda       -0.3400403E-03
   maximum displ.:     0.2248046 α      in ANC's #12, #6, #2, ...

........................................................................
.............................. CYCLE   27 ..............................
........................................................................
   1    -81.0057634 -0.810058E+02  0.443E-02    0.94       0.0  T
   2    -81.0053076  0.455781E-03  0.893E-02    0.91       1.0  T
   3    -81.0059369 -0.629283E-03  0.681E-03    0.93       2.1  T
   4    -81.0059379 -0.101363E-05  0.345E-03    0.93       4.2  T
   5    -81.0059382 -0.339625E-06  0.119E-03    0.93      12.3  T
   6    -81.0059383 -0.549506E-07  0.171E-04    0.93      85.1  T
   7    -81.0059383 -0.121416E-08  0.511E-05    0.93     285.4  T
     SCC iter.                  ...        0 min,  0.027 sec
     gradient                   ...        0 min,  0.096 sec
 * total energy  :   -80.1669366 Eh     change       -0.2165940E-03 Eh
   gradient norm :     0.0089097 Eh/α   predicted    -0.2031975E-03 (  -6.19%)
   displ. norm   :     0.3028233 α      lambda       -0.3810248E-03
   maximum displ.:     0.1533684 α      in ANC's #6, #2, #1, ...

........................................................................
.............................. CYCLE   28 ..............................
........................................................................
   1    -81.0099295 -0.810099E+02  0.329E-02    0.94       0.0  T
   2    -81.0096774  0.252049E-03  0.671E-02    0.92       1.0  T
   3    -81.0100251 -0.347667E-03  0.806E-03    0.93       1.8  T
   4    -81.0100266 -0.150728E-05  0.281E-03    0.93       5.2  T
   5    -81.0100268 -0.185732E-06  0.483E-04    0.93      30.2  T
   6    -81.0100268 -0.615800E-08  0.735E-05    0.93     198.5  T
   7    -81.0100268 -0.184954E-09  0.271E-05    0.93     538.6  T
     SCC iter.                  ...        0 min,  0.028 sec
     gradient                   ...        0 min,  0.096 sec
 * total energy  :   -80.1671685 Eh     change       -0.2319337E-03 Eh
   gradient norm :     0.0069787 Eh/α   predicted    -0.2080124E-03 ( -10.31%)
   displ. norm   :     0.4228509 α      lambda       -0.2404857E-03
   maximum displ.:     0.2061881 α      in ANC's #6, #2, #1, ...

........................................................................
.............................. CYCLE   29 ..............................
........................................................................
   1    -81.0082014 -0.810082E+02  0.501E-02    0.94       0.0  T
   2    -81.0075914  0.609937E-03  0.103E-01    0.92       1.0  T
   3    -81.0084308 -0.839415E-03  0.873E-03    0.93       1.7  T
   4    -81.0084329 -0.209494E-05  0.457E-03    0.93       3.2  T
   5    -81.0084337 -0.740563E-06  0.945E-04    0.94      15.4  T
   6    -81.0084337 -0.331293E-07  0.189E-04    0.94      77.0  T
   7    -81.0084337 -0.174181E-08  0.563E-05    0.94     258.9  T
     SCC iter.                  ...        0 min,  0.028 sec
     gradient                   ...        0 min,  0.096 sec
 * total energy  :   -80.1673494 Eh     change       -0.1809229E-03 Eh
   gradient norm :     0.0067823 Eh/α   predicted    -0.1417470E-03 ( -21.65%)
   displ. norm   :     0.3837495 α      lambda       -0.2579229E-03
   maximum displ.:     0.1890695 α      in ANC's #6, #2, #1, ...

........................................................................
.............................. CYCLE   30 ..............................
........................................................................
   1    -81.0091537 -0.810092E+02  0.479E-02    0.95       0.0  T
   2    -81.0085896  0.564122E-03  0.988E-02    0.93       1.0  T
   3    -81.0093643 -0.774698E-03  0.780E-03    0.94       1.9  T
   4    -81.0093657 -0.146982E-05  0.472E-03    0.94       3.1  T
   5    -81.0093666 -0.856552E-06  0.930E-04    0.95      15.7  T
   6    -81.0093666 -0.318645E-07  0.179E-04    0.95      81.5  T
   7    -81.0093666 -0.143561E-08  0.581E-05    0.95     250.9  T
     SCC iter.                  ...        0 min,  0.024 sec
     gradient                   ...        0 min,  0.093 sec
 * total energy  :   -80.1675272 Eh     change       -0.1777390E-03 Eh
   gradient norm :     0.0042194 Eh/α   predicted    -0.1479552E-03 ( -16.76%)
   displ. norm   :     0.3189996 α      lambda       -0.1340913E-03
   maximum displ.:     0.1585201 α      in ANC's #6, #2, #1, ...

........................................................................
.............................. CYCLE   31 ..............................
........................................................................
   1    -81.0095200 -0.810095E+02  0.386E-02    0.96       0.0  T
   2    -81.0091523  0.367720E-03  0.794E-02    0.94       1.0  T
   3    -81.0096560 -0.503689E-03  0.565E-03    0.95       2.6  T
   4    -81.0096567 -0.768632E-06  0.341E-03    0.95       4.3  T
   5    -81.0096572 -0.441930E-06  0.692E-04    0.95      21.1  T
   6    -81.0096572 -0.187339E-07  0.133E-04    0.95     109.3  T
   7    -81.0096572 -0.699430E-09  0.466E-05    0.95     313.0  T
     SCC iter.                  ...        0 min,  0.030 sec
     gradient                   ...        0 min,  0.102 sec
 * total energy  :   -80.1676335 Eh     change       -0.1063325E-03 Eh
   gradient norm :     0.0038425 Eh/α   predicted    -0.7387391E-04 ( -30.53%)
   displ. norm   :     0.4464969 α      lambda       -0.1608091E-03
   maximum displ.:     0.2201837 α      in ANC's #6, #2, #1, ...

........................................................................
.............................. CYCLE   32 ..............................
........................................................................
   1    -81.0095898 -0.810096E+02  0.521E-02    0.97       0.0  T
   2    -81.0089155  0.674301E-03  0.107E-01    0.94       1.0  T
   3    -81.0098365 -0.921019E-03  0.723E-03    0.96       2.0  T
   4    -81.0098377 -0.120641E-05  0.455E-03    0.96       3.2  T
   5    -81.0098385 -0.766971E-06  0.103E-03    0.96      14.2  T
   6    -81.0098385 -0.439146E-07  0.161E-04    0.96      90.4  T
   7    -81.0098385 -0.983874E-09  0.605E-05    0.96     241.1  T
     SCC iter.                  ...        0 min,  0.029 sec
     gradient                   ...        0 min,  0.103 sec
 * total energy  :   -80.1677650 Eh     change       -0.1315338E-03 Eh
   gradient norm :     0.0038942 Eh/α   predicted    -0.9643671E-04 ( -26.68%)
   displ. norm   :     0.5457201 α      lambda       -0.1698143E-03
   maximum displ.:     0.2655563 α      in ANC's #6, #1, #2, ...

........................................................................
.............................. CYCLE   33 ..............................
........................................................................
   1    -81.0085396 -0.810085E+02  0.623E-02    0.98       0.0  T
   2    -81.0075687  0.970809E-03  0.128E-01    0.94       1.0  T
   3    -81.0088942 -0.132545E-02  0.879E-03    0.96       1.7  T
   4    -81.0088960 -0.182111E-05  0.551E-03    0.96       2.6  T
   5    -81.0088971 -0.109017E-05  0.132E-03    0.96      11.0  T
   6    -81.0088972 -0.734497E-07  0.212E-04    0.96      68.7  T
   7    -81.0088972 -0.174727E-08  0.814E-05    0.96     179.2  T
   8    -81.0088972 -0.133412E-09  0.283E-05    0.96     515.3  T
     SCC iter.                  ...        0 min,  0.034 sec
     gradient                   ...        0 min,  0.103 sec
 * total energy  :   -80.1678970 Eh     change       -0.1320117E-03 Eh
   gradient norm :     0.0043542 Eh/α   predicted    -0.1101981E-03 ( -16.52%)
   displ. norm   :     0.4221264 α      lambda       -0.1747781E-03
   maximum displ.:     0.2172518 α      in ANC's #1, #2, #6, ...

........................................................................
.............................. CYCLE   34 ..............................
........................................................................
   1    -81.0144712 -0.810145E+02  0.421E-02    0.97       0.0  T
   2    -81.0140758  0.395441E-03  0.820E-02    0.94       1.0  T
   3    -81.0146211 -0.545323E-03  0.590E-03    0.96       2.5  T
   4    -81.0146213 -0.210801E-06  0.290E-03    0.96       5.0  T
   5    -81.0146215 -0.142990E-06  0.602E-04    0.96      24.2  T
   6    -81.0146215 -0.113587E-07  0.913E-05    0.96     159.7  T
   7    -81.0146215 -0.102901E-09  0.384E-05    0.96     379.8  T
     SCC iter.                  ...        0 min,  0.030 sec
     gradient                   ...        0 min,  0.102 sec
 * total energy  :   -80.1679207 Eh     change       -0.2364925E-04 Eh
   gradient norm :     0.0093119 Eh/α   predicted    -0.1029614E-03 ( 335.37%)
   displ. norm   :     0.3748386 α      lambda       -0.2081563E-03
   maximum displ.:     0.1777947 α      in ANC's #6, #2, #1, ...

........................................................................
.............................. CYCLE   35 ..............................
........................................................................
   1    -81.0090894 -0.810091E+02  0.487E-02    0.97       0.0  T
   2    -81.0085157  0.573744E-03  0.995E-02    0.94       1.0  T
   3    -81.0093049 -0.789261E-03  0.936E-03    0.96       1.6  T
   4    -81.0093069 -0.194682E-05  0.418E-03    0.96       3.5  T
   5    -81.0093073 -0.472490E-06  0.105E-03    0.96      13.9  T
   6    -81.0093074 -0.448099E-07  0.159E-04    0.96      91.6  T
   7    -81.0093074 -0.929390E-09  0.492E-05    0.96     296.4  T
     SCC iter.                  ...        0 min,  0.030 sec
     gradient                   ...        0 min,  0.102 sec
 * total energy  :   -80.1680188 Eh     change       -0.9809336E-04 Eh
   gradient norm :     0.0039163 Eh/α   predicted    -0.1187078E-03 (  21.02%)
   displ. norm   :     0.0374789 α      lambda       -0.4436484E-04
   maximum displ.:     0.0190101 α      in ANC's #6, #12, #26, ...

........................................................................
.............................. CYCLE   36 ..............................
........................................................................
   1    -81.0109559 -0.810110E+02  0.307E-03    0.96       0.0  T
   2    -81.0109558  0.517736E-07  0.269E-03    0.96       5.4  T
   3    -81.0109560 -0.204464E-06  0.170E-03    0.96       8.6  T
   4    -81.0109561 -0.124966E-06  0.835E-04    0.96      17.5  T
   5    -81.0109562 -0.247511E-07  0.104E-04    0.96     140.8  T
   6    -81.0109562 -0.301753E-09  0.319E-05    0.96     457.5  T
     SCC iter.                  ...        0 min,  0.026 sec
     gradient                   ...        0 min,  0.102 sec
 * total energy  :   -80.1680506 Eh     change       -0.3181592E-04 Eh
   gradient norm :     0.0024728 Eh/α   predicted    -0.2221508E-04 ( -30.18%)
   displ. norm   :     0.2010279 α      lambda       -0.6924605E-04
   maximum displ.:     0.1205215 α      in ANC's #1, #2, #4, ...

........................................................................
.............................. CYCLE   37 ..............................
........................................................................
   1    -81.0122425 -0.810122E+02  0.223E-02    0.96       0.0  T
   2    -81.0121239  0.118521E-03  0.455E-02    0.94       1.0  T
   3    -81.0122900 -0.166074E-03  0.402E-03    0.95       3.6  T
   4    -81.0122904 -0.421786E-06  0.218E-03    0.95       6.7  T
   5    -81.0122906 -0.132468E-06  0.453E-04    0.95      32.2  T
   6    -81.0122906 -0.905095E-08  0.760E-05    0.95     192.0  T
   7    -81.0122906 -0.110319E-09  0.344E-05    0.95     423.5  T
     SCC iter.                  ...        0 min,  0.029 sec
     gradient                   ...        0 min,  0.103 sec
 * total energy  :   -80.1680965 Eh     change       -0.4590080E-04 Eh
   gradient norm :     0.0032611 Eh/α   predicted    -0.3602389E-04 ( -21.52%)
   displ. norm   :     0.2177301 α      lambda       -0.4252736E-04
   maximum displ.:     0.1309106 α      in ANC's #1, #2, #6, ...

........................................................................
.............................. CYCLE   38 ..............................
........................................................................
   1    -81.0123338 -0.810123E+02  0.243E-02    0.96       0.0  T
   2    -81.0121911  0.142635E-03  0.501E-02    0.94       1.0  T
   3    -81.0123913 -0.200199E-03  0.466E-03    0.95       3.1  T
   4    -81.0123920 -0.654850E-06  0.266E-03    0.95       5.5  T
   5    -81.0123923 -0.256276E-06  0.573E-04    0.95      25.4  T
   6    -81.0123923 -0.132612E-07  0.862E-05    0.95     169.2  T
   7    -81.0123923 -0.189971E-09  0.408E-05    0.95     357.4  T
     SCC iter.                  ...        0 min,  0.029 sec
     gradient                   ...        0 min,  0.103 sec
 * total energy  :   -80.1681277 Eh     change       -0.3121227E-04 Eh
   gradient norm :     0.0034452 Eh/α   predicted    -0.2227316E-04 ( -28.64%)
   displ. norm   :     0.1272808 α      lambda       -0.3669831E-04
   maximum displ.:     0.0829965 α      in ANC's #1, #2, #4, ...

........................................................................
.............................. CYCLE   39 ..............................
........................................................................
   1    -81.0125519 -0.810126E+02  0.837E-03    0.95       0.0  T
   2    -81.0125360  0.158868E-04  0.170E-02    0.95       1.0  T
   3    -81.0125588 -0.227998E-04  0.195E-03    0.95       7.5  T
   4    -81.0125589 -0.904617E-07  0.119E-03    0.95      12.3  T
   5    -81.0125590 -0.478664E-07  0.271E-04    0.95      53.9  T
   6    -81.0125590 -0.248119E-08  0.423E-05    0.95     344.7  T
   7    -81.0125590 -0.520401E-10  0.178E-05    0.95     819.8  T
     SCC iter.                  ...        0 min,  0.030 sec
     gradient                   ...        0 min,  0.102 sec
 * total energy  :   -80.1681582 Eh     change       -0.3045768E-04 Eh
   gradient norm :     0.0032652 Eh/α   predicted    -0.1864738E-04 ( -38.78%)
   displ. norm   :     0.1703978 α      lambda       -0.6231027E-04
   maximum displ.:     0.1114774 α      in ANC's #1, #2, #4, ...

........................................................................
.............................. CYCLE   40 ..............................
........................................................................
   1    -81.0115914 -0.810116E+02  0.403E-03    0.96       0.0  T
   2    -81.0115918 -0.395157E-06  0.172E-03    0.96       8.5  T
   3    -81.0115918 -0.207572E-07  0.109E-03    0.96      13.4  T
   4    -81.0115918  0.659864E-07  0.931E-04    0.96      15.7  T
   5    -81.0115918 -0.737225E-07  0.264E-04    0.96      55.3  T
   6    -81.0115918 -0.361642E-08  0.367E-05    0.96     397.7  T
   7    -81.0115918 -0.374740E-10  0.114E-05    0.96    1279.2  T
     SCC iter.                  ...        0 min,  0.031 sec
     gradient                   ...        0 min,  0.102 sec
 * total energy  :   -80.1682082 Eh     change       -0.5001286E-04 Eh
   gradient norm :     0.0029656 Eh/α   predicted    -0.3206152E-04 ( -35.89%)
   displ. norm   :     0.2224153 α      lambda       -0.7674428E-04
   maximum displ.:     0.1468761 α      in ANC's #1, #2, #12, ...

........................................................................
.............................. CYCLE   41 ..............................
........................................................................
   1    -81.0110427 -0.810110E+02  0.149E-02    0.96       0.0  T
   2    -81.0110018  0.409050E-04  0.266E-02    0.97       1.0  T
   3    -81.0110601 -0.583313E-04  0.149E-03    0.96       9.8  T
   4    -81.0110601 -0.104922E-07  0.655E-04    0.96      22.3  T
   5    -81.0110601 -0.496006E-08  0.108E-04    0.96     134.5  T
   6    -81.0110601 -0.123265E-09  0.306E-05    0.96     476.1  T
     SCC iter.                  ...        0 min,  0.026 sec
     gradient                   ...        0 min,  0.101 sec
 * total energy  :   -80.1682643 Eh     change       -0.5607903E-04 Eh
   gradient norm :     0.0032245 Eh/α   predicted    -0.4027584E-04 ( -28.18%)
   displ. norm   :     0.2180578 α      lambda       -0.6419106E-04
   maximum displ.:     0.1462061 α      in ANC's #1, #2, #12, ...

........................................................................
.............................. CYCLE   42 ..............................
........................................................................
   1    -81.0096545 -0.810097E+02  0.147E-02    0.97       0.0  T
   2    -81.0096135  0.409888E-04  0.266E-02    0.98       1.0  T
   3    -81.0096719 -0.583817E-04  0.127E-03    0.97      11.5  T
   4    -81.0096719 -0.488747E-08  0.530E-04    0.97      27.5  T
   5    -81.0096719 -0.115016E-08  0.937E-05    0.97     155.7  T
   6    -81.0096719 -0.154330E-09  0.293E-05    0.97     497.4  T
     SCC iter.                  ...        0 min,  0.025 sec
     gradient                   ...        0 min,  0.102 sec
 * total energy  :   -80.1683121 Eh     change       -0.4781142E-04 Eh
   gradient norm :     0.0036029 Eh/α   predicted    -0.3362330E-04 ( -29.68%)
   displ. norm   :     0.2329508 α      lambda       -0.7253634E-04
   maximum displ.:     0.1611908 α      in ANC's #1, #2, #12, ...
 * RMSD in coord.:     0.8119494 α      energy gain  -0.3421233E-02 Eh

generating ANC from model Hessian ...
Using Lindh-Hessian (1995)
 Shifting diagonal of input Hessian by   9.777129498840005E-003
 Lowest  eigenvalues of input Hessian
    0.000000    0.000000    0.000000    0.000000    0.000000    0.000000
    0.010000    0.010040    0.010507    0.010610    0.010933    0.011356
    0.012995    0.013481    0.014023    0.014722    0.015902    0.017966
 Highest eigenvalues
    1.880437    1.993849    2.015990    2.091869    2.185900    2.269547
 

........................................................................
.............................. CYCLE   43 ..............................
........................................................................
   1    -81.0099107 -0.810099E+02  0.185E-02    0.97       0.0  T
   2    -81.0098408  0.699150E-04  0.348E-02    0.98       1.0  T
   3    -81.0099402 -0.994124E-04  0.153E-03    0.98       9.5  T
   4    -81.0099402 -0.296450E-07  0.761E-04    0.98      19.2  T
   5    -81.0099402 -0.742656E-08  0.124E-04    0.98     117.8  T
   6    -81.0099402 -0.522164E-09  0.441E-05    0.98     331.0  T
     SCC iter.                  ...        0 min,  0.025 sec
     gradient                   ...        0 min,  0.102 sec
 * total energy  :   -80.1683639 Eh     change       -0.5187435E-04 Eh
   gradient norm :     0.0034745 Eh/α   predicted     0.0000000E+00 (-100.00%)
   displ. norm   :     0.0354536 α      lambda       -0.3484707E-04
   maximum displ.:     0.0167548 α      in ANC's #8, #1, #11, ...

........................................................................
.............................. CYCLE   44 ..............................
........................................................................
   1    -81.0110464 -0.810110E+02  0.426E-03    0.97       0.0  T
   2    -81.0110441  0.234490E-05  0.653E-03    0.97       2.2  T
   3    -81.0110475 -0.343656E-05  0.110E-03    0.97      13.2  T
   4    -81.0110475 -0.272296E-07  0.431E-04    0.97      33.8  T
   5    -81.0110475 -0.431726E-09  0.631E-05    0.97     231.2  T
   6    -81.0110475 -0.687379E-10  0.163E-05    0.97     893.2  T
     SCC iter.                  ...        0 min,  0.025 sec
     gradient                   ...        0 min,  0.103 sec
 * total energy  :   -80.1683922 Eh     change       -0.2825679E-04 Eh
   gradient norm :     0.0015868 Eh/α   predicted    -0.1803660E-04 ( -36.17%)
   displ. norm   :     0.1263297 α      lambda       -0.4459948E-04
   maximum displ.:     0.0601147 α      in ANC's #8, #1, #9, ...

........................................................................
.............................. CYCLE   45 ..............................
........................................................................
   1    -81.0125549 -0.810126E+02  0.131E-02    0.97       0.0  T
   2    -81.0125259  0.289427E-04  0.225E-02    0.96       1.0  T
   3    -81.0125674 -0.414924E-04  0.205E-03    0.97       7.1  T
   4    -81.0125675 -0.522799E-07  0.933E-04    0.97      15.6  T
   5    -81.0125675 -0.341663E-08  0.128E-04    0.97     114.0  T
   6    -81.0125675 -0.232475E-09  0.391E-05    0.97     372.7  T
     SCC iter.                  ...        0 min,  0.025 sec
     gradient                   ...        0 min,  0.102 sec
 * total energy  :   -80.1684260 Eh     change       -0.3379590E-04 Eh
   gradient norm :     0.0028320 Eh/α   predicted    -0.2245829E-04 ( -33.55%)
   displ. norm   :     0.0385811 α      lambda       -0.1453190E-04
   maximum displ.:     0.0219968 α      in ANC's #1, #8, #12, ...

........................................................................
.............................. CYCLE   46 ..............................
........................................................................
   1    -81.0122102 -0.810122E+02  0.382E-03    0.97       0.0  T
   2    -81.0122073  0.287070E-05  0.714E-03    0.96       2.0  T
   3    -81.0122114 -0.408633E-05  0.546E-04    0.96      26.7  T
   4    -81.0122114  0.998497E-09  0.312E-04    0.96      46.8  T
   5    -81.0122114 -0.270474E-08  0.534E-05    0.96     273.0  T
   6    -81.0122114 -0.110390E-09  0.113E-05    0.96    1287.4  T
     SCC iter.                  ...        0 min,  0.025 sec
     gradient                   ...        0 min,  0.102 sec
 * total energy  :   -80.1684392 Eh     change       -0.1323693E-04 Eh
   gradient norm :     0.0021104 Eh/α   predicted    -0.7459686E-05 ( -43.64%)
   displ. norm   :     0.1239479 α      lambda       -0.3921458E-04
   maximum displ.:     0.0721859 α      in ANC's #1, #8, #12, ...

........................................................................
.............................. CYCLE   47 ..............................
........................................................................
   1    -81.0111687 -0.810112E+02  0.130E-02    0.97       0.0  T
   2    -81.0111339  0.347743E-04  0.248E-02    0.96       1.0  T
   3    -81.0111832 -0.492962E-04  0.195E-03    0.96       7.5  T
   4    -81.0111832  0.543008E-08  0.121E-03    0.97      12.1  T
   5    -81.0111833 -0.474686E-07  0.165E-04    0.97      88.4  T
   6    -81.0111833 -0.102355E-08  0.344E-05    0.97     423.9  T
     SCC iter.                  ...        0 min,  0.025 sec
     gradient                   ...        0 min,  0.101 sec
 * total energy  :   -80.1684640 Eh     change       -0.2481231E-04 Eh
   gradient norm :     0.0009240 Eh/α   predicted    -0.1991337E-04 ( -19.74%)
   displ. norm   :     0.0925096 α      lambda       -0.9034249E-05
   maximum displ.:     0.0607279 α      in ANC's #1, #12, #4, ...

........................................................................
.............................. CYCLE   48 ..............................
........................................................................
   1    -81.0109598 -0.810110E+02  0.932E-03    0.97       0.0  T
   2    -81.0109409  0.188809E-04  0.184E-02    0.96       1.0  T
   3    -81.0109676 -0.266816E-04  0.156E-03    0.97       9.4  T
   4    -81.0109676 -0.213409E-07  0.951E-04    0.97      15.3  T
   5    -81.0109677 -0.349101E-07  0.701E-05    0.97     208.1  T
   6    -81.0109677 -0.151076E-09  0.283E-05    0.97     516.2  T
     SCC iter.                  ...        0 min,  0.027 sec
     gradient                   ...        0 min,  0.103 sec
 * total energy  :   -80.1684735 Eh     change       -0.9501372E-05 Eh
   gradient norm :     0.0013784 Eh/α   predicted    -0.4541631E-05 ( -52.20%)
   displ. norm   :     0.0595434 α      lambda       -0.8240328E-05
   maximum displ.:     0.0422560 α      in ANC's #1, #4, #12, ...

........................................................................
.............................. CYCLE   49 ..............................
........................................................................
   1    -81.0114629 -0.810115E+02  0.406E-03    0.97       0.0  T
   2    -81.0114594  0.355675E-05  0.812E-03    0.96       1.8  T
   3    -81.0114644 -0.507298E-05  0.102E-03    0.97      14.3  T
   4    -81.0114644 -0.124149E-07  0.569E-04    0.97      25.6  T
   5    -81.0114645 -0.122995E-07  0.528E-05    0.97     276.3  T
   6    -81.0114645 -0.649294E-10  0.185E-05    0.97     786.8  T
     SCC iter.                  ...        0 min,  0.021 sec
     gradient                   ...        0 min,  0.082 sec
 * total energy  :   -80.1684837 Eh     change       -0.1013076E-04 Eh
   gradient norm :     0.0009296 Eh/α   predicted    -0.4128125E-05 ( -59.25%)
   displ. norm   :     0.0856831 α      lambda       -0.9790393E-05
   maximum displ.:     0.0608398 α      in ANC's #1, #4, #12, ...

........................................................................
.............................. CYCLE   50 ..............................
........................................................................
   1    -81.0117933 -0.810118E+02  0.234E-03    0.96       0.0  T
   2    -81.0117926  0.619181E-06  0.377E-03    0.96       3.9  T
   3    -81.0117937 -0.103288E-05  0.705E-04    0.96      20.7  T
   4    -81.0117937  0.531776E-08  0.533E-04    0.96      27.4  T
   5    -81.0117937 -0.758060E-08  0.517E-05    0.96     282.0  T
   6    -81.0117937 -0.347882E-10  0.215E-05    0.96     679.8  T
     SCC iter.                  ...        0 min,  0.026 sec
     gradient                   ...        0 min,  0.082 sec
 * total energy  :   -80.1684951 Eh     change       -0.1146042E-04 Eh
   gradient norm :     0.0006324 Eh/α   predicted    -0.4913728E-05 ( -57.12%)
   displ. norm   :     0.0814520 α      lambda       -0.6767566E-05
   maximum displ.:     0.0600207 α      in ANC's #1, #4, #12, ...

........................................................................
.............................. CYCLE   51 ..............................
........................................................................
   1    -81.0119160 -0.810119E+02  0.204E-03    0.96       0.0  T
   2    -81.0119156  0.400634E-06  0.293E-03    0.96       5.0  T
   3    -81.0119163 -0.644640E-06  0.618E-04    0.96      23.6  T
   4    -81.0119163 -0.829620E-08  0.335E-04    0.96      43.6  T
   5    -81.0119163 -0.161003E-08  0.627E-05    0.96     232.6  T
   6    -81.0119163 -0.958948E-10  0.134E-05    0.96    1090.5  T
     SCC iter.                  ...        0 min,  0.025 sec
     gradient                   ...        0 min,  0.095 sec
 * total energy  :   -80.1685036 Eh     change       -0.8439192E-05 Eh
   gradient norm :     0.0006345 Eh/α   predicted    -0.3397013E-05 ( -59.75%)
   displ. norm   :     0.0650670 α      lambda       -0.5201619E-05
   maximum displ.:     0.0498410 α      in ANC's #1, #4, #5, ...

........................................................................
.............................. CYCLE   52 ..............................
........................................................................
   1    -81.0118839 -0.810119E+02  0.366E-03    0.96       0.0  T
   2    -81.0118809  0.292091E-05  0.733E-03    0.96       2.0  T
   3    -81.0118851 -0.415429E-05  0.807E-04    0.96      18.1  T
   4    -81.0118851 -0.832840E-08  0.474E-04    0.96      30.8  T
   5    -81.0118851 -0.940896E-08  0.814E-05    0.96     179.1  T
   6    -81.0118851 -0.253749E-09  0.127E-05    0.96    1150.8  T
     SCC iter.                  ...        0 min,  0.024 sec
     gradient                   ...        0 min,  0.095 sec
 * total energy  :   -80.1685106 Eh     change       -0.6984921E-05 Eh
   gradient norm :     0.0005484 Eh/α   predicted    -0.2606642E-05 ( -62.68%)
   displ. norm   :     0.0603599 α      lambda       -0.5295718E-05
   maximum displ.:     0.0468686 α      in ANC's #1, #5, #4, ...

........................................................................
.............................. CYCLE   53 ..............................
........................................................................
   1    -81.0118444 -0.810118E+02  0.558E-03    0.96       0.0  T
   2    -81.0118373  0.706177E-05  0.113E-02    0.96       1.3  T
   3    -81.0118473 -0.998392E-05  0.113E-03    0.96      12.9  T
   4    -81.0118473 -0.308407E-07  0.541E-04    0.96      27.0  T
   5    -81.0118473 -0.138532E-07  0.702E-05    0.96     207.9  T
   6    -81.0118473 -0.191037E-09  0.134E-05    0.96    1091.0  T
     SCC iter.                  ...        0 min,  0.024 sec
     gradient                   ...        0 min,  0.099 sec
 * total energy  :   -80.1685178 Eh     change       -0.7193525E-05 Eh
   gradient norm :     0.0004944 Eh/α   predicted    -0.2655441E-05 ( -63.09%)
   displ. norm   :     0.0678507 α      lambda       -0.5854789E-05
   maximum displ.:     0.0525459 α      in ANC's #1, #5, #4, ...

........................................................................
.............................. CYCLE   54 ..............................
........................................................................
   1    -81.0117506 -0.810118E+02  0.692E-03    0.96       0.0  T
   2    -81.0117396  0.109837E-04  0.141E-02    0.96       1.0  T
   3    -81.0117551 -0.155095E-04  0.137E-03    0.96      10.6  T
   4    -81.0117551 -0.502184E-07  0.642E-04    0.96      22.7  T
   5    -81.0117552 -0.193432E-07  0.406E-05    0.96     359.6  T
   6    -81.0117552 -0.652562E-10  0.145E-05    0.96    1009.4  T
     SCC iter.                  ...        0 min,  0.024 sec
     gradient                   ...        0 min,  0.099 sec
 * total energy  :   -80.1685257 Eh     change       -0.7918233E-05 Eh
   gradient norm :     0.0004291 Eh/α   predicted    -0.2934065E-05 ( -62.95%)
   displ. norm   :     0.0748819 α      lambda       -0.5942848E-05
   maximum displ.:     0.0576762 α      in ANC's #1, #5, #2, ...

........................................................................
.............................. CYCLE   55 ..............................
........................................................................
   1    -81.0117078 -0.810117E+02  0.732E-03    0.96       0.0  T
   2    -81.0116958  0.119367E-04  0.146E-02    0.96       1.0  T
   3    -81.0117127 -0.168666E-04  0.117E-03    0.96      12.5  T
   4    -81.0117127 -0.295364E-07  0.627E-04    0.96      23.3  T
   5    -81.0117127 -0.182157E-07  0.423E-05    0.96     344.8  T
   6    -81.0117127 -0.633946E-10  0.161E-05    0.96     904.6  T
     SCC iter.                  ...        0 min,  0.023 sec
     gradient                   ...        0 min,  0.100 sec
 * total energy  :   -80.1685339 Eh     change       -0.8192762E-05 Eh
   gradient norm :     0.0004163 Eh/α   predicted    -0.2983799E-05 ( -63.58%)
   displ. norm   :     0.0777905 α      lambda       -0.5964387E-05
   maximum displ.:     0.0594646 α      in ANC's #1, #5, #2, ...

........................................................................
.............................. CYCLE   56 ..............................
........................................................................
   1    -81.0116947 -0.810117E+02  0.649E-03    0.96       0.0  T
   2    -81.0116855  0.921850E-05  0.128E-02    0.96       1.1  T
   3    -81.0116985 -0.130228E-04  0.889E-04    0.96      16.4  T
   4    -81.0116985 -0.143750E-07  0.502E-04    0.96      29.0  T
   5    -81.0116985 -0.116481E-07  0.426E-05    0.96     342.4  T
   6    -81.0116985 -0.679847E-10  0.137E-05    0.96    1067.7  T
     SCC iter.                  ...        0 min,  0.024 sec
     gradient                   ...        0 min,  0.096 sec
 * total energy  :   -80.1685423 Eh     change       -0.8441407E-05 Eh
   gradient norm :     0.0004322 Eh/α   predicted    -0.2993669E-05 ( -64.54%)
   displ. norm   :     0.0865308 α      lambda       -0.6778729E-05
   maximum displ.:     0.0651384 α      in ANC's #1, #5, #2, ...

........................................................................
.............................. CYCLE   57 ..............................
........................................................................
   1    -81.0117134 -0.810117E+02  0.585E-03    0.96       0.0  T
   2    -81.0117062  0.718356E-05  0.112E-02    0.96       1.3  T
   3    -81.0117164 -0.101590E-04  0.567E-04    0.96      25.7  T
   4    -81.0117164 -0.182553E-08  0.367E-04    0.96      39.8  T
   5    -81.0117164 -0.597649E-08  0.560E-05    0.96     260.3  T
   6    -81.0117164 -0.124999E-09  0.130E-05    0.96    1119.2  T
     SCC iter.                  ...        0 min,  0.023 sec
     gradient                   ...        0 min,  0.096 sec
 * total energy  :   -80.1685521 Eh     change       -0.9821214E-05 Eh
   gradient norm :     0.0004633 Eh/α   predicted    -0.3404583E-05 ( -65.33%)
   displ. norm   :     0.1128472 α      lambda       -0.9109511E-05
   maximum displ.:     0.0833906 α      in ANC's #1, #5, #2, ...

........................................................................
.............................. CYCLE   58 ..............................
........................................................................
   1    -81.0117504 -0.810118E+02  0.607E-03    0.96       0.0  T
   2    -81.0117430  0.741873E-05  0.114E-02    0.96       1.3  T
   3    -81.0117535 -0.105164E-04  0.447E-04    0.96      32.7  T
   4    -81.0117535  0.181345E-08  0.328E-04    0.96      44.4  T
   5    -81.0117535 -0.401779E-08  0.698E-05    0.96     209.0  T
   6    -81.0117535 -0.193836E-09  0.150E-05    0.96     973.4  T
     SCC iter.                  ...        0 min,  0.023 sec
     gradient                   ...        0 min,  0.098 sec
 * total energy  :   -80.1685652 Eh     change       -0.1303878E-04 Eh
   gradient norm :     0.0004858 Eh/α   predicted    -0.4581181E-05 ( -64.86%)
   displ. norm   :     0.1467249 α      lambda       -0.1155765E-04
   maximum displ.:     0.1073187 α      in ANC's #1, #5, #2, ...

........................................................................
.............................. CYCLE   59 ..............................
........................................................................
   1    -81.0117561 -0.810118E+02  0.645E-03    0.96       0.0  T
   2    -81.0117480  0.808636E-05  0.119E-02    0.96       1.2  T
   3    -81.0117595 -0.115080E-04  0.463E-04    0.96      31.5  T
   4    -81.0117595  0.136380E-08  0.320E-04    0.96      45.6  T
   5    -81.0117595 -0.269971E-08  0.738E-05    0.96     197.6  T
   6    -81.0117595 -0.173188E-09  0.179E-05    0.96     815.1  T
     SCC iter.                  ...        0 min,  0.023 sec
     gradient                   ...        0 min,  0.096 sec
 * total energy  :   -80.1685816 Eh     change       -0.1639660E-04 Eh
   gradient norm :     0.0005174 Eh/α   predicted    -0.5835830E-05 ( -64.41%)
[...]
C3-N2-C1-H26=175.59           C3-N2-C1-H27= 54.41           C3-N2-C1-H28=295.95           C21-N2-C1-H26=354.09          
C21-N2-C1-H27=232.92          C21-N2-C1-H28=114.46          O4-C3-N2-C1=  7.08            O4-C3-N2-C21=188.59           
C5-C3-N2-C1=196.01            C5-C3-N2-C21= 17.52           O6-C5-C3-N2=156.84            O6-C5-C3-O4=346.00            
C7-C5-C3-N2=345.50            C7-C5-C3-O4=174.67            H29-O6-C5-C3=  7.96           H29-O6-C5-C7=179.03           
C8-C7-C5-C3=159.89            C8-C7-C5-O6=349.29            N19-C7-C5-C3=340.00           N19-C7-C5-O6=169.40           
O9-C8-C7-C5=189.04            O9-C8-C7-N19=  8.93           N10-C8-C7-C5=  7.09           N10-C8-C7-N19=186.98          
C11-N10-C8-C7=162.60          C11-N10-C8-O9=340.74          H30-N10-C8-C7= 23.24          H30-N10-C8-O9=201.38          
           -------------------------------------------------
          |                Final Singlepoint                |
           -------------------------------------------------

          ...................................................
          :                      SETUP                      :
          :.................................................:
          :  # basis functions                 144          :
          :  # atomic orbitals                 144          :
          :  # shells                           94          :
          :  # electrons                       136          :
          :  # halogen bonds                     0          :
          :  max. iterations                   250          :
          :  Hamiltonian                  GFN1-xTB          :
          :  restarted?                      false          :
          :  GBSA solvation                   true          :
          :  PC potential                    false          :
          :  electronic temp.          300.0000000     K    :
          :  accuracy                    1.0000000          :
          :  -> integral cutoff          0.2500000E+02      :
          :  -> integral neglect         0.1000000E-07      :
          :  -> SCF convergence          0.1000000E-05 Eh   :
          :  -> wf. convergence          0.2000000E-04 e    :
          :  Broyden damping             0.4000000          :
          ...................................................

 iter      E             dE          RMSdq      gap      omega  full diag
   1    -81.0123739 -0.810124E+02  0.119E-05    0.96       0.0  T
   2    -81.0123739 -0.125056E-11  0.674E-06    0.96    2163.0  T
   3    -81.0123739  0.130740E-11  0.738E-06    0.96    1975.9  T

   *** convergence criteria satisfied after 3 iterations ***

         #    Occupation            Energy/Eh            Energy/eV
      -------------------------------------------------------------
         1        2.0000           -0.8543133             -23.2470
       ...           ...                  ...                  ...
        62        2.0000           -0.4078256             -11.0975
        63        2.0000           -0.3970224             -10.8035
        64        2.0000           -0.3896620             -10.6032
        65        2.0000           -0.3844543             -10.4615
        66        2.0000           -0.3697670             -10.0619
        67        2.0000           -0.3590671              -9.7707
        68        2.0000           -0.2966779              -8.0730 (HOMO)
        69                         -0.2615518              -7.1172 (LUMO)
        70                         -0.2581640              -7.0250
        71                         -0.2529179              -6.8822
        72                         -0.1758697              -4.7857
        73                         -0.1335043              -3.6328
       ...                                ...                  ...
       144                          0.6846501              18.6303
      -------------------------------------------------------------
                  HL-Gap            0.0351260 Eh            0.9558 eV
             Fermi-level           -0.2791281 Eh           -7.5955 eV

 SCC (total)                   0 d,  0 h,  0 min,  0.151 sec
 SCC setup                      ...        0 min,  0.002 sec (  1.404%)
 Dispersion                     ...        0 min,  0.000 sec (  0.262%)
 classical contributions        ...        0 min,  0.000 sec (  0.087%)
 integral evaluation            ...        0 min,  0.040 sec ( 26.653%)
 iterations                     ...        0 min,  0.012 sec (  7.816%)
 molecular gradient             ...        0 min,  0.095 sec ( 63.211%)
 printout                       ...        0 min,  0.001 sec (  0.544%)

         :::::::::::::::::::::::::::::::::::::::::::::::::::::
         ::                     SUMMARY                     ::
         :::::::::::::::::::::::::::::::::::::::::::::::::::::
         :: total energy             -80.168676414265 Eh    ::
         :: total w/o Gsasa/hb       -80.144157273286 Eh    ::
         :: gradient norm              0.000155251099 Eh/a0 ::
         :: HOMO-LUMO gap              0.955827614647 eV    ::
         ::.................................................::
         :: SCC energy               -81.012373858355 Eh    ::
         :: -> electrostatic           0.342998966387 Eh    ::
         :: -> Gsolv                  -0.099647464584 Eh    ::
         ::    -> Gelec               -0.075128323606 Eh    ::
         ::    -> Gsasa               -0.023742452095 Eh    ::
         ::    -> Ghb                 -0.008400967889 Eh    ::
         ::    -> Gshift               0.007624279005 Eh    ::
         :: repulsion energy           0.876020314887 Eh    ::
         :: dispersion energy         -0.032322870797 Eh    ::
         :: halogen bond corr.         0.000000000000 Eh    ::
         :: add. restraining           0.000000000000 Eh    ::
         :: total charge              -1.000000000531 e     ::
         :::::::::::::::::::::::::::::::::::::::::::::::::::::

           -------------------------------------------------
          |                Property Printout                |
           -------------------------------------------------

    * Orbital Energies and Occupations

         #    Occupation            Energy/Eh            Energy/eV
      -------------------------------------------------------------
         1        2.0000           -0.8543133             -23.2470
       ...           ...                  ...                  ...
        56        2.0000           -0.4602505             -12.5241
        57        2.0000           -0.4569880             -12.4353
        58        2.0000           -0.4464867             -12.1495
        59        2.0000           -0.4395590             -11.9610
        60        2.0000           -0.4269365             -11.6175
        61        2.0000           -0.4107977             -11.1784
        62        2.0000           -0.4078256             -11.0975
        63        2.0000           -0.3970224             -10.8035
        64        2.0000           -0.3896620             -10.6032
        65        2.0000           -0.3844543             -10.4615
        66        2.0000           -0.3697670             -10.0619
        67        2.0000           -0.3590671              -9.7707
        68        2.0000           -0.2966779              -8.0730 (HOMO)
        69                         -0.2615518              -7.1172 (LUMO)
        70                         -0.2581640              -7.0250
        71                         -0.2529179              -6.8822
        72                         -0.1758697              -4.7857
        73                         -0.1335043              -3.6328
        74                         -0.1222136              -3.3256
        75                         -0.1092599              -2.9731
        76                         -0.1038674              -2.8264
        77                         -0.1026026              -2.7920
        78                         -0.0971020              -2.6423
        79                         -0.0952832              -2.5928
       ...                                ...                  ...
       144                          0.6846501              18.6303
      -------------------------------------------------------------
                  HL-Gap            0.0351260 Eh            0.9558 eV
             Fermi-level           -0.2791281 Eh           -7.5955 eV

  Mulliken/CM5 charges         n(s)   n(p)   n(d)
     1C     0.06214 -0.02396   0.982  2.956  0.000
     2N    -0.20574 -0.45998   1.455  3.751  0.000
     3C     0.34159  0.43959   0.968  2.690  0.000
     4O    -0.73112 -0.77679   1.751  4.980  0.000
     5C     0.15517  0.18569   1.027  2.818  0.000
     6O    -0.56499 -0.76383   1.711  4.854  0.000
     7C    -0.03026  0.03397   1.048  2.983  0.000
     8C     0.42905  0.52596   0.994  2.577  0.000
     9O    -0.65596 -0.70280   1.742  4.914  0.000
    10N    -0.38466 -0.73360   1.449  3.936  0.000
    11C     0.09806  0.05454   1.003  2.899  0.000
    12C    -0.00784 -0.01771   1.089  2.918  0.000
    13C    -0.01835 -0.07048   1.064  2.955  0.000
    14C    -0.07107 -0.12196   1.058  3.013  0.000
    15C     0.23887  0.24988   1.046  2.716  0.000
    16F    -0.28378 -0.30769   1.832  5.451  0.000
    17C    -0.07048 -0.12147   1.057  3.014  0.000
    18C    -0.03504 -0.08788   1.062  2.973  0.000
    19N    -0.32059 -0.55422   1.488  3.833  0.000
    20C     0.04940 -0.03857   0.989  2.962  0.000
    21C     0.07491  0.19806   1.043  2.882  0.000
    22C     0.15111  0.18285   1.067  2.782  0.000
    23C    -0.09720 -0.23692   1.016  3.081  0.000
    24C    -0.09592 -0.23595   1.016  3.080  0.000
    25N    -0.51910 -0.97659   1.476  4.043  0.000
    26H     0.02420  0.09672   0.976  0.000  0.000
    27H     0.03152  0.09616   0.968  0.000  0.000
    28H     0.03312  0.09739   0.967  0.000  0.000
    29H     0.37496  0.55396   0.625  0.000  0.000
    30H     0.22363  0.43013   0.776  0.000  0.000
    31H     0.02279  0.08825   0.977  0.000  0.000
    32H     0.03994  0.11066   0.960  0.000  0.000
    33H     0.04760  0.10893   0.952  0.000  0.000
    34H     0.05067  0.10777   0.949  0.000  0.000
    35H     0.05209  0.10922   0.948  0.000  0.000
    36H     0.03996  0.09724   0.960  0.000  0.000
    37H     0.00978  0.07187   0.990  0.000  0.000
    38H     0.00327  0.06670   0.997  0.000  0.000
    39H     0.00578  0.06825   0.994  0.000  0.000
    40H     0.01413  0.06938   0.986  0.000  0.000
    41H     0.03238  0.09424   0.968  0.000  0.000
    42H     0.01904  0.07666   0.981  0.000  0.000
    43H     0.02190  0.08032   0.978  0.000  0.000
    44H     0.02010  0.07560   0.980  0.000  0.000
    45H     0.02194  0.07688   0.978  0.000  0.000
    46H     0.19923  0.38950   0.801  0.000  0.000
    47H     0.20376  0.39402   0.796  0.000  0.000

Wiberg/Mayer (AO) data.
largest (>0.10) Wiberg bond orders for each atom

 ---------------------------------------------------------------------------
     #   Z sym  total        # sym  WBO       # sym  WBO       # sym  WBO
 ---------------------------------------------------------------------------
     1   6 C    3.956 --    27 H    0.983    28 H    0.979    26 H    0.978
                             2 N    0.949
     2   7 N    3.495 --    21 C    1.152     3 C    1.138     1 C    0.949
                             4 O    0.124
     3   6 C    3.925 --     4 O    1.339     5 C    1.202     2 N    1.138
                            21 C    0.124
     4   8 O    1.707 --     3 C    1.339     2 N    0.124
     5   6 C    3.892 --     7 C    1.386     3 C    1.202     6 O    1.003
                            21 C    0.129
     6   8 O    2.006 --     5 C    1.003    29 H    0.830
     7   6 C    3.918 --     5 C    1.386     8 C    1.176    19 N    0.962
                            21 C    0.122
     8   6 C    3.908 --     9 O    1.481     7 C    1.176    10 N    1.103
     9   8 O    1.823 --     8 C    1.481    10 N    0.106
    10   7 N    3.209 --     8 C    1.103    11 C    0.960    30 H    0.911
                             9 O    0.106
    11   6 C    3.968 --    12 C    0.995    31 H    0.979    32 H    0.973
                            10 N    0.960
    12   6 C    3.985 --    18 C    1.418    13 C    1.413    11 C    0.995
    13   6 C    3.991 --    14 C    1.445    12 C    1.413    33 H    0.968
                            17 C    0.111
    14   6 C    3.992 --    13 C    1.445    15 C    1.400    34 H    0.971
                            18 C    0.109
    15   6 C    3.856 --    17 C    1.404    14 C    1.400    16 F    0.915
    16   9 F    1.040 --    15 C    0.915
    17   6 C    3.992 --    18 C    1.440    15 C    1.404    35 H    0.970
                            13 C    0.111
    18   6 C    3.994 --    17 C    1.440    12 C    1.418    36 H    0.972
                            14 C    0.109
    19   7 N    3.047 --    21 C    0.976    20 C    0.964     7 C    0.962
    20   6 C    3.986 --    39 H    0.989    37 H    0.988    38 H    0.982
                            19 N    0.964
    21   6 C    3.774 --     2 N    1.152    22 C    0.981    19 N    0.976
                             5 C    0.129     3 C    0.124     7 C    0.122
    22   6 C    3.960 --    23 C    0.994    24 C    0.983    21 C    0.981
                            25 N    0.962
    23   6 C    3.996 --    22 C    0.994    40 H    0.987    42 H    0.986
                            41 H    0.979
    24   6 C    3.996 --    44 H    0.987    45 H    0.986    43 H    0.985
                            22 C    0.983
    25   7 N    2.985 --    22 C    0.962    47 H    0.951    46 H    0.950
    26   1 H    1.036 --     1 C    0.978
    27   1 H    1.016 --     1 C    0.983
    28   1 H    1.016 --     1 C    0.979
    29   1 H    0.883 --     6 O    0.830
    30   1 H    0.970 --    10 N    0.911
    31   1 H    1.010 --    11 C    0.979
    32   1 H    1.019 --    11 C    0.973
    33   1 H    1.017 --    13 C    0.968
    34   1 H    1.000 --    14 C    0.971
    35   1 H    0.999 --    17 C    0.970
    36   1 H    1.001 --    18 C    0.972
    37   1 H    1.020 --    20 C    0.988
    38   1 H    1.010 --    20 C    0.982
    39   1 H    1.027 --    20 C    0.989
    40   1 H    1.007 --    23 C    0.987
    41   1 H    1.033 --    23 C    0.979
    42   1 H    1.014 --    23 C    0.986
    43   1 H    1.010 --    24 C    0.985
    44   1 H    1.013 --    24 C    0.987
    45   1 H    1.004 --    24 C    0.986
    46   1 H    0.974 --    25 N    0.950
    47   1 H    0.966 --    25 N    0.951
 ---------------------------------------------------------------------------

Topologies differ in total number of bonds
Writing topology from bond orders to xtbtopo.mol

 dipole moment from electron density (au)
     X       Y       Z   
   0.1901   0.5121   1.2845  total (Debye):    3.548

           -------------------------------------------------
          |                Geometry Summary                 |
           -------------------------------------------------

      molecular mass/u    :      349.3806376
   center of mass at/Å    :        0.5502966      -0.0319030      -0.1261216
  moments of inertia/u·Å² :        0.1180700E+04   0.4464826E+04   0.4779645E+04
rotational constants/cm⁻¹ :        0.1427766E-01   0.3775652E-02   0.3526963E-02

 * 39 selected distances

     #   Z          #   Z                                           value/Å
     1   6 C        2   7 N                                       1.4610111
     2   7 N        3   6 C                                       1.3783060
     3   6 C        5   6 C                                       1.4218477
     5   6 C        6   8 O                                       1.3793353
     5   6 C        7   6 C                                       1.3926279
     8   6 C       10   7 N                                       1.3960266
    10   7 N       11   6 C                                       1.4574231
    12   6 C       13   6 C                                       1.3942592
    13   6 C       14   6 C                                       1.3875064
    14   6 C       15   6 C                                       1.3831300
    15   6 C       17   6 C                                       1.3824780
    12   6 C       18   6 C                                       1.3934297
    17   6 C       18   6 C                                       1.3886706
    19   7 N       20   6 C                                       1.4780307
     2   7 N       21   6 C                                       1.3796758
    22   6 C       23   6 C                                       1.5381846 (max)
    22   6 C       25   7 N                                       1.4759836
     1   6 C       26   1 H                                       1.0878906
     1   6 C       27   1 H                                       1.0926467
     1   6 C       28   1 H                                       1.0935320
     6   8 O       29   1 H                                       0.9752342 (min)
    10   7 N       30   1 H                                       1.0116189
    11   6 C       31   1 H                                       1.0939282
    11   6 C       32   1 H                                       1.0949887
    13   6 C       33   1 H                                       1.0849389
    14   6 C       34   1 H                                       1.0824181
    17   6 C       35   1 H                                       1.0819263
    18   6 C       36   1 H                                       1.0841188
    20   6 C       37   1 H                                       1.0912980
    20   6 C       38   1 H                                       1.0982957
    20   6 C       39   1 H                                       1.0906327
    23   6 C       40   1 H                                       1.0899727
    23   6 C       41   1 H                                       1.0912310
    23   6 C       42   1 H                                       1.0900073
    24   6 C       43   1 H                                       1.0897331
    24   6 C       44   1 H                                       1.0904059
    24   6 C       45   1 H                                       1.0905203
    25   7 N       46   1 H                                       1.0120689
    25   7 N       47   1 H                                       1.0107358

 * 6 distinct bonds (by element types)

   Z      Z             #   av. dist./Å        max./Å        min./Å
   1 H    6 C          18     1.0899158     1.0982957     1.0819263
   6 C    6 C           9     1.4091260     1.5381846     1.3824780
   1 H    7 N           3     1.0114745     1.0120689     1.0107358
   6 C    7 N           7     1.4323510     1.4780307     1.3783060
   1 H    8 O           1     0.9752342     0.9752342     0.9752342
   6 C    8 O           1     1.3793353     1.3793353     1.3793353


optimized geometry written to: xtbopt.xyz


           -------------------------------------------------
          | TOTAL ENERGY              -80.168676414265 Eh   |
          | GRADIENT NORM               0.000155251099 Eh/α |
          | HOMO-LUMO GAP               0.955827614647 eV   |
           -------------------------------------------------

------------------------------------------------------------------------
 * finished run on 2023/06/20 at 14:59:26.584     
------------------------------------------------------------------------
 total:
 * wall-time:     0 d,  0 h,  0 min, 12.279 sec
 *  cpu-time:     0 d,  0 h,  0 min, 12.167 sec
 * ratio c/w:     0.991 speedup
 SCF:
 * wall-time:     0 d,  0 h,  0 min,  0.265 sec
 *  cpu-time:     0 d,  0 h,  0 min,  0.238 sec
 * ratio c/w:     0.900 speedup
 ANC optimizer:
 * wall-time:     0 d,  0 h,  0 min, 11.903 sec
 *  cpu-time:     0 d,  0 h,  0 min, 11.874 sec
 * ratio c/w:     0.998 speedup

