47
 energy: -79.540500364117 gnorm: 0.000511620200 xtb: 6.5.1 (579679a)
C           -2.56398386313735       -2.29121572009290       -3.79008031171702
O           -2.95165715447711       -1.79698653046578       -2.49762528497320
C           -2.18692415221852       -1.01557358521679       -1.76300810912906
C           -0.89480181561364       -0.54273230856976       -2.08768046438649
O           -0.32844668803395       -0.85761982480137       -3.24587264292387
C           -0.25863507922835        0.24836337294348       -1.13787339895015
C            1.12219379464511        0.75052408642775       -1.39618205580227
O            1.70359174264426        0.47361131122099       -2.45006164898879
N            1.64292369901866        1.49435660682524       -0.42434801552370
C            3.00531831877212        2.01988093815962       -0.49733443241319
C            3.97106115971522        1.06248322965448        0.16730013683530
C            4.33257687239024       -0.11687445101569       -0.48183243754002
C            5.20297353916681       -1.01336705140902        0.12012087904550
C            5.70003601548318       -0.70398211189695        1.37412197817203
F            6.54221796181065       -1.56599323501753        1.96309577237308
C            5.36112481190510        0.45648080313965        2.04572023471065
C            4.48567908713392        1.34135054550809        1.43042575930924
N           -0.84747805412181        0.55147237219454        0.02635647925648
C           -2.05114074980582        0.12759367786909        0.31454994091961
C           -2.57065789488090        0.47874033748987        1.69994180686108
C           -2.46733874303924       -0.77621418568719        2.58130422180660
C           -1.70847333369117        1.60213170630344        2.29659182753550
N           -3.96065281618761        0.91373048753298        1.63422970269706
N           -2.73167402636974       -0.66049187470797       -0.57603541077656
C           -4.07959957636570       -1.19247720052464       -0.32995061896236
H           -3.40348808944084       -2.89924739462333       -4.12579181340056
H           -1.66440687408132       -2.90249186381683       -3.70829411376375
H           -2.39804450054428       -1.46316730083699       -4.48031659576493
H            0.58788207507373       -0.43240555894715       -3.26055631080850
H            1.10878733833976        1.63662228123310        0.41904455803224
H            3.25343809725591        2.14520413823975       -1.55550966299200
H            3.01504360897659        2.99251827778718       -0.00173212852751
H            3.92790435996557       -0.33545301283610       -1.46269698658837
H            5.48969162080804       -1.93452308688218       -0.37052735172225
H            5.76855363083726        0.66116368064702        3.02725931526159
H            4.20424293169429        2.25513736204955        1.93992666806429
H           -3.10771411519416       -1.57041650055602        2.20250724036385
H           -2.77657238777590       -0.52849499954265        3.59551924787888
H           -1.43788972377565       -1.13143511867000        2.60229018935221
H           -2.10792952699559        1.87843967172862        3.27080456194096
H           -0.67751611740191        1.27399070688667        2.41474534708334
H           -1.72941922261209        2.47409337427184        1.64536956919894
H           -4.01363583107562        1.79664820387165        1.14487577372975
H           -4.30301773198532        1.05671166057845        2.57502508825544
H           -4.49179697414810       -0.73625581031025        0.56525512995549
H           -4.70238508375514       -0.94994307607530       -1.18966001996228
H           -4.00995853967804       -2.27388603005889       -0.22341061302308
