42
 energy: -83.630469127973 gnorm: 0.000772772293 xtb: 6.5.1 (579679a)
C           -3.70184698452071        3.14366621941161        0.51363380553252
O           -3.64067648979292        1.74799986995376        0.54639716336879
C           -2.65139184145066        1.13025310771399       -0.47549502143270
C           -3.54575545690095        0.81554124452922       -1.73407725422561
O           -1.64202479268125        1.89155734756585       -0.73140624623885
C           -2.30773740447751       -0.24654876797422        0.20881608246672
N           -0.97442564587627       -0.50154295276304        0.35491216264598
C           -0.61111746531332       -1.63743764934936        0.90383039270049
C            0.88969648376562       -1.89578411649080        1.04383571829442
C            1.25342675123373       -1.99737914502161        2.53109897637624
C            1.25087273998887       -3.19554627982216        0.31270322960002
N            1.57653183113932       -0.76193856260342        0.42968887970943
C            2.89597761884318       -0.62039721482115        0.33265698528168
O            3.74172906629652       -1.40012690084596        0.75854494662484
C            3.25786275890083        0.63979875567992       -0.38492357016250
N            2.43423314730016        1.51373428526210       -0.87326085430404
N            3.19186106821275        2.49349696917380       -1.44846302815118
C            4.42841316588185        2.15241243475036       -1.27358396834799
C            5.63771041263032        2.88074274530028       -1.71667282508850
O            4.54076882692011        0.99175173258545       -0.60858902053066
N           -1.39536054272088       -2.61028589529245        1.36276841253236
C           -2.74127079971910       -2.43527349477561        1.24226640196231
O           -3.57986829716179       -3.28936244510606        1.62881943539711
C           -3.19327629690327       -1.19692616432869        0.63141850736868
O           -4.56475822924830       -1.08427408199950        0.52130397425853
H           -2.70527006623672        3.60197851468027        0.38630701401642
H           -4.35070345889821        3.52125160831665       -0.29739514380785
H           -4.11726635784059        3.49824201569335        1.46527688030446
H           -2.97198261062944        0.19324870414042       -2.42067619531384
H           -3.78553094392289        1.75535233438535       -2.23040182150650
H           -4.46766296733137        0.30645642523344       -1.46167378370377
H            2.30184024499437       -2.26261804542527        2.65739056181293
H            1.06585332604481       -1.04708718873847        3.03112752005036
H            0.63348018581729       -2.76732210001135        2.99012470200698
H            1.06547841680346       -3.09005486920645       -0.75628147649582
H            2.29784133155787       -3.45189145602472        0.46654951608485
H            0.62491018470604       -3.99888244295021        0.70170832565084
H            0.94801663642546       -0.04772736263665        0.04351929927785
H            5.34801994491358        3.80653359121172       -2.20697994867952
H            6.21077376545949        2.26672169957859       -2.41063959571036
H            6.27442129430009        3.10401984881560       -0.86162499063045
H           -4.92179455051421       -1.91635331780171        0.88533185099957
