
                                 *****************
                                 * O   R   C   A *
                                 *****************

                                            #,                                       
                                            ###                                      
                                            ####                                     
                                            #####                                    
                                            ######                                   
                                           ########,                                 
                                     ,,################,,,,,                         
                               ,,#################################,,                 
                          ,,##########################################,,             
                       ,#########################################, ''#####,          
                    ,#############################################,,   '####,        
                  ,##################################################,,,,####,       
                ,###########''''           ''''###############################       
              ,#####''   ,,,,##########,,,,          '''####'''          '####       
            ,##' ,,,,###########################,,,                        '##       
           ' ,,###''''                  '''############,,,                           
         ,,##''                                '''############,,,,        ,,,,,,###''
      ,#''                                            '''#######################'''  
     '                                                          ''''####''''         
             ,#######,   #######,   ,#######,      ##                                
            ,#'     '#,  ##    ##  ,#'     '#,    #''#        ######   ,####,        
            ##       ##  ##   ,#'  ##            #'  '#       #        #'  '#        
            ##       ##  #######   ##           ,######,      #####,   #    #        
            '#,     ,#'  ##    ##  '#,     ,#' ,#      #,         ##   #,  ,#        
             '#######'   ##     ##  '#######'  #'      '#     #####' # '####'        



                  #######################################################
                  #                        -***-                        #
                  #          Department of theory and spectroscopy      #
                  #    Directorship and core code : Frank Neese         #
                  #        Max Planck Institute fuer Kohlenforschung    #
                  #                Kaiser Wilhelm Platz 1               #
                  #                 D-45470 Muelheim/Ruhr               #
                  #                      Germany                        #
                  #                                                     #
                  #                  All rights reserved                #
                  #                        -***-                        #
                  #######################################################


                         Program Version 5.0.1 -  RELEASE  -


 With contributions from (in alphabetic order):
   Daniel Aravena         : Magnetic Suceptibility
   Michael Atanasov       : Ab Initio Ligand Field Theory (pilot matlab implementation)
   Alexander A. Auer      : GIAO ZORA, VPT2 properties, NMR spectrum
   Ute Becker             : Parallelization
   Giovanni Bistoni       : ED, misc. LED, open-shell LED, HFLD
   Martin Brehm           : Molecular dynamics
   Dmytro Bykov           : SCF Hessian
   Vijay G. Chilkuri      : MRCI spin determinant printing, contributions to CSF-ICE
   Dipayan Datta          : RHF DLPNO-CCSD density
   Achintya Kumar Dutta   : EOM-CC, STEOM-CC
   Dmitry Ganyushin       : Spin-Orbit,Spin-Spin,Magnetic field MRCI
   Miquel Garcia          : C-PCM and meta-GGA Hessian, CC/C-PCM, Gaussian charge scheme
   Yang Guo               : DLPNO-NEVPT2, F12-NEVPT2, CIM, IAO-localization
   Andreas Hansen         : Spin unrestricted coupled pair/coupled cluster methods
   Benjamin Helmich-Paris : MC-RPA, TRAH-SCF, COSX integrals
   Lee Huntington         : MR-EOM, pCC
   Robert Izsak           : Overlap fitted RIJCOSX, COSX-SCS-MP3, EOM
   Marcus Kettner         : VPT2
   Christian Kollmar      : KDIIS, OOCD, Brueckner-CCSD(T), CCSD density, CASPT2, CASPT2-K
   Simone Kossmann        : Meta GGA functionals, TD-DFT gradient, OOMP2, MP2 Hessian
   Martin Krupicka        : Initial AUTO-CI
   Lucas Lang             : DCDCAS
   Marvin Lechner         : AUTO-CI (C++ implementation), FIC-MRCC
   Dagmar Lenk            : GEPOL surface, SMD
   Dimitrios Liakos       : Extrapolation schemes; Compound Job, initial MDCI parallelization
   Dimitrios Manganas     : Further ROCIS development; embedding schemes
   Dimitrios Pantazis     : SARC Basis sets
   Anastasios Papadopoulos: AUTO-CI, single reference methods and gradients
   Taras Petrenko         : DFT Hessian,TD-DFT gradient, ASA, ECA, R-Raman, ABS, FL, XAS/XES, NRVS
   Peter Pinski           : DLPNO-MP2, DLPNO-MP2 Gradient
   Christoph Reimann      : Effective Core Potentials
   Marius Retegan         : Local ZFS, SOC
   Christoph Riplinger    : Optimizer, TS searches, QM/MM, DLPNO-CCSD(T), (RO)-DLPNO pert. Triples
   Tobias Risthaus        : Range-separated hybrids, TD-DFT gradient, RPA, STAB
   Michael Roemelt        : Original ROCIS implementation
   Masaaki Saitow         : Open-shell DLPNO-CCSD energy and density
   Barbara Sandhoefer     : DKH picture change effects
   Avijit Sen             : IP-ROCIS
   Kantharuban Sivalingam : CASSCF convergence, NEVPT2, FIC-MRCI
   Bernardo de Souza      : ESD, SOC TD-DFT
   Georgi Stoychev        : AutoAux, RI-MP2 NMR, DLPNO-MP2 response
   Willem Van den Heuvel  : Paramagnetic NMR
   Boris Wezisla          : Elementary symmetry handling
   Frank Wennmohs         : Technical directorship


 We gratefully acknowledge several colleagues who have allowed us to
 interface, adapt or use parts of their codes:
   Stefan Grimme, W. Hujo, H. Kruse, P. Pracht,  : VdW corrections, initial TS optimization,
                  C. Bannwarth, S. Ehlert          DFT functionals, gCP, sTDA/sTD-DF
   Ed Valeev, F. Pavosevic, A. Kumar             : LibInt (2-el integral package), F12 methods
   Garnet Chan, S. Sharma, J. Yang, R. Olivares  : DMRG
   Ulf Ekstrom                                   : XCFun DFT Library
   Mihaly Kallay                                 : mrcc  (arbitrary order and MRCC methods)
   Jiri Pittner, Ondrej Demel                    : Mk-CCSD
   Frank Weinhold                                : gennbo (NPA and NBO analysis)
   Christopher J. Cramer and Donald G. Truhlar   : smd solvation model
   Lars Goerigk                                  : TD-DFT with DH, B97 family of functionals
   V. Asgeirsson, H. Jonsson                     : NEB implementation
   FAccTs GmbH                                   : IRC, NEB, NEB-TS, DLPNO-Multilevel, CI-OPT
                                                   MM, QMMM, 2- and 3-layer-ONIOM, Crystal-QMMM,
                                                   LR-CPCM, SF, NACMEs, symmetry and pop. for TD-DFT,
                                                   nearIR, NL-DFT gradient (VV10), updates on ESD,
                                                   ML-optimized integration grids
   S Lehtola, MJT Oliveira, MAL Marques          : LibXC Library
   Liviu Ungur et al                             : ANISO software


 Your calculation uses the libint2 library for the computation of 2-el integrals
 For citations please refer to: http://libint.valeyev.net

 Your ORCA version has been built with support for libXC version: 5.1.0
 For citations please refer to: https://tddft.org/programs/libxc/

 This ORCA versions uses:
   CBLAS   interface :  Fast vector & matrix operations
   LAPACKE interface :  Fast linear algebra routines
   SCALAPACK package :  Parallel linear algebra routines
   Shared memory     :  Shared parallel matrices
   BLAS/LAPACK       :  OpenBLAS 0.3.15  USE64BITINT DYNAMIC_ARCH NO_AFFINITY Zen SINGLE_THREADED
        Core in use  :  Zen
   Copyright (c) 2011-2014, The OpenBLAS Project


Your calculation utilizes the geometrical counterpoise correction gCP
Please cite in your paper:
H.Kruse, S. Grimme J.Chem.Phys., 136, (2012), 154101 
   

Your calculation utilizes the atom-pairwise dispersion correction
based on tight binding partial charges (D4)
Cite in your paper:
E.Caldeweyher, C.Bannwarth, S.Grimme, J.Chem.Phys., (2017), 147, 034112.
E.Caldeweyher, S.Ehlert, A.Hansen, H.Neugebauer, S.Grimme, J.Chem.Phys., (2018), in progress.
   

Your calculation utilizes the SMD solvation module
Please cite in your paper:
A.V. Marenich, C.J. Cramer, D.G. Truhlar J. Phys. Chem. B, 113, (2009), 6378 

================================================================================

----- Orbital basis set information -----
Your calculation utilizes the basis: def2-mTZVPP
   Stefan Grimme, Andreas Hansen, Sebastian Ehlert, and Jan-Michael Mewes 
   J. Chem. Phys. 154, 000000 (2021). DOI: 10.1063/5.0040021

----- AuxJ basis set information -----
Your calculation utilizes the basis: def2-mTZVPP/J
   Stefan Grimme, Andreas Hansen, Sebastian Ehlert, and Jan-Michael Mewes 
   J. Chem. Phys. 154, 000000 (2021). DOI: 10.1063/5.0040021

================================================================================
                                        WARNINGS
                       Please study these warnings very carefully!
================================================================================

Using LibXC functional ID 497 : Re-regularized SCAN exchange by Furness et al
[ 1]  J. W. Furness, A. D. Kaplan, J. Ning, J. P. Perdew, and J. Sun, J. Phys. Chem. Lett. 11, 8208 (2020)
[ 2]  J. W. Furness, A. D. Kaplan, J. Ning, J. P. Perdew, and J. Sun, J. Phys. Chem. Lett. 11, 9248 (2020)
Using LibXC functional ID 498 : Re-regularized SCAN correlation by Furness et al
[ 1]  J. W. Furness, A. D. Kaplan, J. Ning, J. P. Perdew, and J. Sun, J. Phys. Chem. Lett. 11, 8208 (2020)
[ 2]  J. W. Furness, A. D. Kaplan, J. Ning, J. P. Perdew, and J. Sun, J. Phys. Chem. Lett. 11, 9248 (2020)
Using LibXC functional ID 497 : Re-regularized SCAN exchange by Furness et al
[ 1]  J. W. Furness, A. D. Kaplan, J. Ning, J. P. Perdew, and J. Sun, J. Phys. Chem. Lett. 11, 8208 (2020)
[ 2]  J. W. Furness, A. D. Kaplan, J. Ning, J. P. Perdew, and J. Sun, J. Phys. Chem. Lett. 11, 9248 (2020)
Using LibXC functional ID 498 : Re-regularized SCAN correlation by Furness et al
[ 1]  J. W. Furness, A. D. Kaplan, J. Ning, J. P. Perdew, and J. Sun, J. Phys. Chem. Lett. 11, 8208 (2020)
[ 2]  J. W. Furness, A. D. Kaplan, J. Ning, J. P. Perdew, and J. Sun, J. Phys. Chem. Lett. 11, 9248 (2020)

INFO   : the flag for use of the SHARK integral package has been found!

================================================================================
                                       INPUT FILE
================================================================================
NAME = /lustre/hpc/kemi/ree/PhD/git/ReactivityQM/calculations/R03/reac02prodE05/conf09/gfn1/orca_calc.inp
|  1> # ORCA input file 
|  2> ! SP r2SCAN-3c CPCM 
|  3> 
|  4> %maxcore 1875.0 
|  5> %pal nprocs 4 end 
|  6> %cpcm smd true SMDsolvent "DMSO" end 
|  7> 
|  8> *xyz -1 1
|  9> C      -4.612658    2.994168   -0.293405
| 10> O      -3.640486    2.019891    0.058410
| 11> C      -3.901618    0.747073   -0.370795
| 12> O      -4.934067    0.503171   -1.013096
| 13> C      -2.932975   -0.223754    0.016830
| 14> C      -2.991106   -1.552525   -0.400439
| 15> O      -4.015380   -2.016114   -1.171403
| 16> C      -1.875039   -2.436281   -0.185885
| 17> O      -1.892095   -3.689251   -0.307395
| 18> N      -0.698867   -1.752573    0.081625
| 19> C       0.546934   -2.511724   -0.000520
| 20> C      -0.634263   -0.420092    0.471063
| 21> C       0.232146    0.541272   -0.336922
| 22> C      -0.026445    1.984057    0.118795
| 23> C      -0.011417    0.431513   -1.853300
| 24> N       1.666759    0.242805   -0.126244
| 25> C       2.248302    0.227441    1.083862
| 26> O       1.677905    0.359755    2.158598
| 27> C       3.720090    0.006824    1.012432
| 28> N       4.555496   -0.071992    2.002838
| 29> N       5.791740   -0.280088    1.460695
| 30> C       5.633320   -0.316949    0.175675
| 31> C       6.670442   -0.519370   -0.859804
| 32> O       4.347864   -0.143170   -0.176305
| 33> N      -1.878792    0.139502    0.930144
| 34> C      -2.179951   -0.267593    2.319068
| 35> H      -4.694002    3.085772   -1.381466
| 36> H      -4.284464    3.942468    0.131399
| 37> H      -5.594083    2.727318    0.111943
| 38> H      -4.653290   -1.279907   -1.311859
| 39> H       1.109787   -2.399101    0.927670
| 40> H       1.160377   -2.155566   -0.829274
| 41> H       0.312012   -3.565773   -0.157296
| 42> H       0.652906    2.664487   -0.393164
| 43> H      -1.053467    2.262819   -0.114092
| 44> H       0.122228    2.073389    1.194396
| 45> H       0.611337    1.145436   -2.391132
| 46> H      -1.057668    0.646472   -2.067534
| 47> H       0.221062   -0.570782   -2.209542
| 48> H       2.259505    0.211292   -0.937780
| 49> H       7.649041   -0.580355   -0.390361
| 50> H       6.473346   -1.438797   -1.410741
| 51> H       6.654659    0.307342   -1.569046
| 52> H      -2.355223   -1.348110    2.403785
| 53> H      -1.329780    0.009963    2.943670
| 54> H      -3.070118    0.265634    2.655902
| 55> **                         ****END OF INPUT****
================================================================================

                       ****************************
                       * Single Point Calculation *
                       ****************************

---------------------------------
CARTESIAN COORDINATES (ANGSTROEM)
---------------------------------
  C     -4.612658    2.994168   -0.293405
  O     -3.640486    2.019891    0.058410
  C     -3.901618    0.747073   -0.370795
  O     -4.934067    0.503171   -1.013096
  C     -2.932975   -0.223754    0.016830
  C     -2.991106   -1.552525   -0.400439
  O     -4.015380   -2.016114   -1.171403
  C     -1.875039   -2.436281   -0.185885
  O     -1.892095   -3.689251   -0.307395
  N     -0.698867   -1.752573    0.081625
  C      0.546934   -2.511724   -0.000520
  C     -0.634263   -0.420092    0.471063
  C      0.232146    0.541272   -0.336922
  C     -0.026445    1.984057    0.118795
  C     -0.011417    0.431513   -1.853300
  N      1.666759    0.242805   -0.126244
  C      2.248302    0.227441    1.083862
  O      1.677905    0.359755    2.158598
  C      3.720090    0.006824    1.012432
  N      4.555496   -0.071992    2.002838
  N      5.791740   -0.280088    1.460695
  C      5.633320   -0.316949    0.175675
  C      6.670442   -0.519370   -0.859804
  O      4.347864   -0.143170   -0.176305
  N     -1.878792    0.139502    0.930144
  C     -2.179951   -0.267593    2.319068
  H     -4.694002    3.085772   -1.381466
  H     -4.284464    3.942468    0.131399
  H     -5.594083    2.727318    0.111943
  H     -4.653290   -1.279907   -1.311859
  H      1.109787   -2.399101    0.927670
  H      1.160377   -2.155566   -0.829274
  H      0.312012   -3.565773   -0.157296
  H      0.652906    2.664487   -0.393164
  H     -1.053467    2.262819   -0.114092
  H      0.122228    2.073389    1.194396
  H      0.611337    1.145436   -2.391132
  H     -1.057668    0.646472   -2.067534
  H      0.221062   -0.570782   -2.209542
  H      2.259505    0.211292   -0.937780
  H      7.649041   -0.580355   -0.390361
  H      6.473346   -1.438797   -1.410741
  H      6.654659    0.307342   -1.569046
  H     -2.355223   -1.348110    2.403785
  H     -1.329780    0.009963    2.943670
  H     -3.070118    0.265634    2.655902

----------------------------
CARTESIAN COORDINATES (A.U.)
----------------------------
  NO LB      ZA    FRAG     MASS         X           Y           Z
   0 C     6.0000    0    12.011   -8.716660    5.658158   -0.554455
   1 O     8.0000    0    15.999   -6.879522    3.817041    0.110379
   2 C     6.0000    0    12.011   -7.372989    1.411763   -0.700701
   3 O     8.0000    0    15.999   -9.324035    0.950855   -1.914474
   4 C     6.0000    0    12.011   -5.542520   -0.422834    0.031804
   5 C     6.0000    0    12.011   -5.652371   -2.933847   -0.756720
   6 O     8.0000    0    15.999   -7.587969   -3.809903   -2.213631
   7 C     6.0000    0    12.011   -3.543310   -4.603904   -0.351272
   8 O     8.0000    0    15.999   -3.575541   -6.971674   -0.580892
   9 N     7.0000    0    14.007   -1.320667   -3.311883    0.154249
  10 C     6.0000    0    12.011    1.033555   -4.746470   -0.000983
  11 C     6.0000    0    12.011   -1.198583   -0.793859    0.890180
  12 C     6.0000    0    12.011    0.438692    1.022856   -0.636690
  13 C     6.0000    0    12.011   -0.049974    3.749324    0.224490
  14 C     6.0000    0    12.011   -0.021575    0.815441   -3.502229
  15 N     7.0000    0    14.007    3.149718    0.458835   -0.238567
  16 C     6.0000    0    12.011    4.248675    0.429801    2.048202
  17 O     8.0000    0    15.999    3.170781    0.679838    4.079159
  18 C     6.0000    0    12.011    7.029951    0.012895    1.913219
  19 N     7.0000    0    14.007    8.608640   -0.136045    3.784815
  20 N     7.0000    0    14.007   10.944802   -0.529290    2.760314
  21 C     6.0000    0    12.011   10.645432   -0.598947    0.331978
  22 C     6.0000    0    12.011   12.605309   -0.981467   -1.624794
  23 O     8.0000    0    15.999    8.216272   -0.270552   -0.333168
  24 N     7.0000    0    14.007   -3.550402    0.263621    1.757717
  25 C     6.0000    0    12.011   -4.119510   -0.505677    4.382403
  26 H     1.0000    0     1.008   -8.870378    5.831264   -2.610592
  27 H     1.0000    0     1.008   -8.096464    7.450185    0.248308
  28 H     1.0000    0     1.008  -10.571285    5.153884    0.211542
  29 H     1.0000    0     1.008   -8.793444   -2.418674   -2.479054
  30 H     1.0000    0     1.008    2.097193   -4.533644    1.753042
  31 H     1.0000    0     1.008    2.192795   -4.073429   -1.567101
  32 H     1.0000    0     1.008    0.589617   -6.738334   -0.297246
  33 H     1.0000    0     1.008    1.233814    5.035151   -0.742972
  34 H     1.0000    0     1.008   -1.990764    4.276108   -0.215603
  35 H     1.0000    0     1.008    0.230977    3.918137    2.257081
  36 H     1.0000    0     1.008    1.155260    2.164560   -4.518585
  37 H     1.0000    0     1.008   -1.998703    1.221655   -3.907073
  38 H     1.0000    0     1.008    0.417747   -1.078622   -4.175429
  39 H     1.0000    0     1.008    4.269846    0.399284   -1.772147
  40 H     1.0000    0     1.008   14.454593   -1.096712   -0.737675
  41 H     1.0000    0     1.008   12.232851   -2.718932   -2.665914
  42 H     1.0000    0     1.008   12.575483    0.580792   -2.965067
  43 H     1.0000    0     1.008   -4.450726   -2.547559    4.542495
  44 H     1.0000    0     1.008   -2.512920    0.018827    5.562730
  45 H     1.0000    0     1.008   -5.801682    0.501976    5.018927

--------------------------------
INTERNAL COORDINATES (ANGSTROEM)
--------------------------------
 C      0   0   0     0.000000000000     0.00000000     0.00000000
 O      1   0   0     1.420601233471     0.00000000     0.00000000
 C      2   1   0     1.368383175347   115.44545365     0.00000000
 O      3   2   1     1.240157126257   120.28196003   359.53577465
 C      3   2   1     1.425141209145   114.74763899   181.39617040
 C      5   3   2     1.393960186649   122.65609331   184.12195779
 O      6   5   3     1.363245200723   121.65345649   357.53120173
 C      6   5   3     1.439674836531   120.54479096   168.83914864
 O      8   6   5     1.258963624628   125.87716572   167.13413611
 N      8   6   5     1.386505969316   112.56121412   342.41839906
 C     10   8   6     1.461190669771   117.14299191   194.25661068
 C     10   8   6     1.389727040832   124.49291520    16.95277911
 C     12  10   8     1.525688387582   118.82636874   234.70217665
 C     13  12  10     1.534983988710   109.83876691   170.56794346
 C     13  12  10     1.539731214184   112.75595304    48.22914000
 N     13  12  10     1.480399347994   110.35959466   289.64461221
 C     16  13  12     1.342678235685   123.38712042   303.31919720
 O     17  16  13     1.223894277256   126.03862242     5.36345223
 C     17  16  13     1.489944301822   112.72634659   184.56840161
 N     19  17  16     1.298082890854   127.45505608   180.73447826
 N     20  19  17     1.365841207901   106.79254287   179.95313296
 C     21  20  19     1.295272955836   106.70369474   359.91676004
 C     22  21  20     1.479463775686   127.77171055   180.02949944
 O     22  21  20     1.344055872788   111.90695285     0.00000000
 N     12  10   8     1.439705956520   114.95124022    15.81032040
 C     25  12  10     1.478354815355   111.63205140    78.65918416
 H      1   2   3     1.094936015881   110.75141928   298.29632372
 H      1   2   3     1.089698412430   107.10817508   178.71628877
 H      1   2   3     1.094856590714   110.76860949    59.06798128
 H      7   6   5     0.984204146956   108.25936088   357.68536463
 H     11  10   8     1.091340513240   109.77281848   233.49590847
 H     11  10   8     1.090868474074   110.64241107   113.39270659
 H     11  10   8     1.091231577009   109.04854113   353.38839496
 H     14  13  12     1.089313905071   110.03088501   175.01646577
 H     14  13  12     1.089366235890   109.62593923   295.03340500
 H     14  13  12     1.089495928562   110.31498282    54.56089852
 H     15  13  12     1.089390588664   110.43037767   178.94835906
 H     15  13  12     1.089378140701   109.36175288    59.22507473
 H     15  13  12     1.088829699737   110.73590922   299.33181028
 H     16  13  12     1.005450928181   117.56491750   134.39927690
 H     23  22  21     1.087084128886   109.66299655   356.56474910
 H     23  22  21     1.089827701756   110.02732903   117.06283322
 H     23  22  21     1.089369564747   109.97974029   235.87199620
 H     26  25  12     1.097913581008   112.08748449   294.59845856
 H     26  25  12     1.090850915928   108.00581286    55.06983901
 H     26  25  12     1.090956215883   108.76577500   173.89980715

---------------------------
INTERNAL COORDINATES (A.U.)
---------------------------
 C      0   0   0     0.000000000000     0.00000000     0.00000000
 O      1   0   0     2.684547276770     0.00000000     0.00000000
 C      2   1   0     2.585869447672   115.44545365     0.00000000
 O      3   2   1     2.343557331657   120.28196003   359.53577465
 C      3   2   1     2.693126587449   114.74763899   181.39617040
 C      5   3   2     2.634202994357   122.65609331   184.12195779
 O      6   5   3     2.576160082748   121.65345649   357.53120173
 C      6   5   3     2.720591162942   120.54479096   168.83914864
 O      8   6   5     2.379096463115   125.87716572   167.13413611
 N      8   6   5     2.620116565054   112.56121412   342.41839906
 C     10   8   6     2.761250195309   117.14299191   194.25661068
 C     10   8   6     2.626203508078   124.49291520    16.95277911
 C     12  10   8     2.883133218234   118.82636874   234.70217665
 C     13  12  10     2.900699358615   109.83876691   170.56794346
 C     13  12  10     2.909670314659   112.75595304    48.22914000
 N     13  12  10     2.797549336545   110.35959466   289.64461221
 C     16  13  12     2.537294151420   123.38712042   303.31919720
 O     17  16  13     2.312825000888   126.03862242     5.36345223
 C     17  16  13     2.815586685241   112.72634659   184.56840161
 N     19  17  16     2.453021162843   127.45505608   180.73447826
 N     20  19  17     2.581065825357   106.79254287   179.95313296
 C     21  20  19     2.447711155205   106.70369474   359.91676004
 C     22  21  20     2.795781361103   127.77171055   180.02949944
 O     22  21  20     2.539897508259   111.90695285     0.00000000
 N     12  10   8     2.720649971197   114.95124022    15.81032040
 C     25  12  10     2.793685729784   111.63205140    78.65918416
 H      1   2   3     2.069129204182   110.75141928   298.29632372
 H      1   2   3     2.059231568061   107.10817508   178.71628877
 H      1   2   3     2.068979112367   110.76860949    59.06798128
 H      7   6   5     1.859876297616   108.25936088   357.68536463
 H     11  10   8     2.062334688876   109.77281848   233.49590847
 H     11  10   8     2.061442664129   110.64241107   113.39270659
 H     11  10   8     2.062128829234   109.04854113   353.38839496
 H     14  13  12     2.058504954457   110.03088501   175.01646577
 H     14  13  12     2.058603845373   109.62593923   295.03340500
 H     14  13  12     2.058848929005   110.31498282    54.56089852
 H     15  13  12     2.058649865446   110.43037767   178.94835906
 H     15  13  12     2.058626342206   109.36175288    59.22507473
 H     15  13  12     2.057589938983   110.73590922   299.33181028
 H     16  13  12     1.900026895360   117.56491750   134.39927690
 H     23  22  21     2.054291288126   109.66299655   356.56474910
 H     23  22  21     2.059475889479   110.02732903   117.06283322
 H     23  22  21     2.058610136001   109.97974029   235.87199620
 H     26  25  12     2.074755986818   112.08748449   294.59845856
 H     26  25  12     2.061409484041   108.00581286    55.06983901
 H     26  25  12     2.061608472118   108.76577500   173.89980715

---------------------
BASIS SET INFORMATION
---------------------
There are 4 groups of distinct atoms

 Group   1 Type C   : 11s6p1d contracted to 5s3p1d pattern {62111/411/1}
 Group   2 Type O   : 11s6p2d contracted to 5s3p2d pattern {62111/411/11}
 Group   3 Type N   : 11s6p2d contracted to 5s3p2d pattern {62111/411/11}
 Group   4 Type H   : 4s1p contracted to 2s1p pattern {31/1}

Atom   0C    basis set group =>   1
Atom   1O    basis set group =>   2
Atom   2C    basis set group =>   1
Atom   3O    basis set group =>   2
Atom   4C    basis set group =>   1
Atom   5C    basis set group =>   1
Atom   6O    basis set group =>   2
Atom   7C    basis set group =>   1
Atom   8O    basis set group =>   2
Atom   9N    basis set group =>   3
Atom  10C    basis set group =>   1
Atom  11C    basis set group =>   1
Atom  12C    basis set group =>   1
Atom  13C    basis set group =>   1
Atom  14C    basis set group =>   1
Atom  15N    basis set group =>   3
Atom  16C    basis set group =>   1
Atom  17O    basis set group =>   2
Atom  18C    basis set group =>   1
Atom  19N    basis set group =>   3
Atom  20N    basis set group =>   3
Atom  21C    basis set group =>   1
Atom  22C    basis set group =>   1
Atom  23O    basis set group =>   2
Atom  24N    basis set group =>   3
Atom  25C    basis set group =>   1
Atom  26H    basis set group =>   4
Atom  27H    basis set group =>   4
Atom  28H    basis set group =>   4
Atom  29H    basis set group =>   4
Atom  30H    basis set group =>   4
Atom  31H    basis set group =>   4
Atom  32H    basis set group =>   4
Atom  33H    basis set group =>   4
Atom  34H    basis set group =>   4
Atom  35H    basis set group =>   4
Atom  36H    basis set group =>   4
Atom  37H    basis set group =>   4
Atom  38H    basis set group =>   4
Atom  39H    basis set group =>   4
Atom  40H    basis set group =>   4
Atom  41H    basis set group =>   4
Atom  42H    basis set group =>   4
Atom  43H    basis set group =>   4
Atom  44H    basis set group =>   4
Atom  45H    basis set group =>   4
---------------------------------
AUXILIARY/J BASIS SET INFORMATION
---------------------------------
There are 4 groups of distinct atoms

 Group   1 Type C   : 8s3p3d contracted to 6s3p3d pattern {311111/111/111}
 Group   2 Type O   : 8s3p3d contracted to 6s3p3d pattern {311111/111/111}
 Group   3 Type N   : 8s3p3d contracted to 6s3p3d pattern {311111/111/111}
 Group   4 Type H   : 5s2p1d contracted to 3s1p1d pattern {311/2/1}

Atom   0C    basis set group =>   1
Atom   1O    basis set group =>   2
Atom   2C    basis set group =>   1
Atom   3O    basis set group =>   2
Atom   4C    basis set group =>   1
Atom   5C    basis set group =>   1
Atom   6O    basis set group =>   2
Atom   7C    basis set group =>   1
Atom   8O    basis set group =>   2
Atom   9N    basis set group =>   3
Atom  10C    basis set group =>   1
Atom  11C    basis set group =>   1
Atom  12C    basis set group =>   1
Atom  13C    basis set group =>   1
Atom  14C    basis set group =>   1
Atom  15N    basis set group =>   3
Atom  16C    basis set group =>   1
Atom  17O    basis set group =>   2
Atom  18C    basis set group =>   1
Atom  19N    basis set group =>   3
Atom  20N    basis set group =>   3
Atom  21C    basis set group =>   1
Atom  22C    basis set group =>   1
Atom  23O    basis set group =>   2
Atom  24N    basis set group =>   3
Atom  25C    basis set group =>   1
Atom  26H    basis set group =>   4
Atom  27H    basis set group =>   4
Atom  28H    basis set group =>   4
Atom  29H    basis set group =>   4
Atom  30H    basis set group =>   4
Atom  31H    basis set group =>   4
Atom  32H    basis set group =>   4
Atom  33H    basis set group =>   4
Atom  34H    basis set group =>   4
Atom  35H    basis set group =>   4
Atom  36H    basis set group =>   4
Atom  37H    basis set group =>   4
Atom  38H    basis set group =>   4
Atom  39H    basis set group =>   4
Atom  40H    basis set group =>   4
Atom  41H    basis set group =>   4
Atom  42H    basis set group =>   4
Atom  43H    basis set group =>   4
Atom  44H    basis set group =>   4
Atom  45H    basis set group =>   4


           ************************************************************
           *        Program running with 4 parallel MPI-processes     *
           *              working on a common directory               *
           ************************************************************
------------------------------------------------------------------------------
                           ORCA GTO INTEGRAL CALCULATION
                           -- RI-GTO INTEGRALS CHOSEN --
------------------------------------------------------------------------------
------------------------------------------------------------------------------
                   ___                                                        
                  /   \      - P O W E R E D   B Y -                         
                 /     \                                                     
                 |  |  |   _    _      __       _____    __    __             
                 |  |  |  | |  | |    /  \     |  _  \  |  |  /  |          
                  \  \/   | |  | |   /    \    | | | |  |  | /  /          
                 / \  \   | |__| |  /  /\  \   | |_| |  |  |/  /          
                |  |  |   |  __  | /  /__\  \  |    /   |      \           
                |  |  |   | |  | | |   __   |  |    \   |  |\   \          
                \     /   | |  | | |  |  |  |  | |\  \  |  | \   \       
                 \___/    |_|  |_| |__|  |__|  |_| \__\ |__|  \__/        
                                                                              
                      - O R C A' S   B I G   F R I E N D -                    
                                      &                                       
                       - I N T E G R A L  F E E D E R -                       
                                                                              
 v1 FN, 2020, v2 2021                                                         
------------------------------------------------------------------------------


Reading SHARK input file /lustre/hpc/kemi/ree/PhD/git/ReactivityQM/calculations/R03/reac02prodE05/conf09/gfn1/orca_calc.SHARKINP.tmp ... ok
----------------------
SHARK INTEGRAL PACKAGE
----------------------

Number of atoms                             ...     46
Number of basis functions                   ...    649
Number of shells                            ...    305
Maximum angular momentum                    ...      2
Integral batch strategy                     ... SHARK/LIBINT Hybrid
RI-J (if used) integral strategy            ... SPLIT-RIJ (Revised 2003 algorithm where possible)
Printlevel                                  ...      1
Contraction scheme used                     ... SEGMENTED contraction
Coulomb Range Separation                    ... NOT USED
Exchange Range Separation                   ... NOT USED
Finite Nucleus Model                        ... NOT USED
Auxiliary Coulomb fitting basis             ... AVAILABLE
   # of basis functions in Aux-J            ...   1000
   # of shells in Aux-J                     ...    412
   Maximum angular momentum in Aux-J        ...      2
Auxiliary J/K fitting basis                 ... NOT available
Auxiliary Correlation fitting basis         ... NOT available
Auxiliary 'external' fitting basis          ... NOT available
Integral threshold                          ...     1.000000e-10
Primitive cut-off                           ...     1.000000e-11
Primitive pair pre-selection threshold      ...     1.000000e-11

Calculating pre-screening integrals         ... done (  0.2 sec) Dimension = 305
Organizing shell pair data                  ... done (  0.1 sec)
Shell pair information
Total number of shell pairs                 ...     46665
Shell pairs after pre-screening             ...     30444
Total number of primitive shell pairs       ...    168542
Primitive shell pairs kept                  ...     67827
          la=0 lb=0:   8914 shell pairs
          la=1 lb=0:  11063 shell pairs
          la=1 lb=1:   3474 shell pairs
          la=2 lb=0:   4011 shell pairs
          la=2 lb=1:   2507 shell pairs
          la=2 lb=2:    475 shell pairs

Calculating one electron integrals          ... done (  0.1 sec)
Calculating RI/J V-Matrix + Cholesky decomp.... done (  0.1 sec)
Calculating Nuclear repulsion               ... done (  0.0 sec) ENN=   2519.395764392473 Eh

SHARK setup successfully completed in   0.6 seconds

Maximum memory used throughout the entire GTOINT-calculation: 44.4 MB


           ************************************************************
           *        Program running with 4 parallel MPI-processes     *
           *              working on a common directory               *
           ************************************************************
-------------------------------------------------------------------------------
                                 ORCA SCF
-------------------------------------------------------------------------------

------------
SCF SETTINGS
------------
Hamiltonian:
 Density Functional     Method          .... DFT(GTOs)
  Functional kind                       .... Exchange
  Functional name                       .... Re-regularized SCAN exchange by Furness et al
  Functional family                     .... MGGA
  Functional refs                              
    [ 0] J. W. Furness, A. D. Kaplan, J. Ning, J. P. Perdew, and J. Sun, J. Phys. Chem. Lett. 11, 8208 (2020)
    [ 1] J. W. Furness, A. D. Kaplan, J. Ning, J. P. Perdew, and J. Sun, J. Phys. Chem. Lett. 11, 9248 (2020)
  Functional external parameters         .... 8
 Parameter  0 :         c1 parameter
 Parameter  1 :         c2 parameter
 Parameter  2 :          d parameter
 Parameter  3 :         k1 parameter
 Parameter  4 :       taur parameter
 Parameter  5 :     alphar parameter
 Parameter  6 :        eta parameter
 Parameter  7 :        dp2 parameter
  Functional kind                       .... Correlation
  Functional name                       .... Re-regularized SCAN correlation by Furness et al
  Functional family                     .... MGGA
  Functional refs                              
    [ 0] J. W. Furness, A. D. Kaplan, J. Ning, J. P. Perdew, and J. Sun, J. Phys. Chem. Lett. 11, 8208 (2020)
    [ 1] J. W. Furness, A. D. Kaplan, J. Ning, J. P. Perdew, and J. Sun, J. Phys. Chem. Lett. 11, 9248 (2020)
  Functional external parameters         .... 0
 Gradients option       PostSCFGGA      .... off
   Density functional embedding theory  .... OFF
 RI-approximation to the Coulomb term is turned on
   Number of AuxJ basis functions       .... 1000


General Settings:
 Integral files         IntName         .... /lustre/hpc/kemi/ree/PhD/git/ReactivityQM/calculations/R03/reac02prodE05/conf09/gfn1/orca_calc
 Hartree-Fock type      HFTyp           .... RHF
 Total Charge           Charge          ....   -1
 Multiplicity           Mult            ....    1
 Number of Electrons    NEL             ....  194
 Basis Dimension        Dim             ....  649
 Nuclear Repulsion      ENuc            ....   2519.3957643925 Eh

Convergence Acceleration:
 DIIS                   CNVDIIS         .... on
   Start iteration      DIISMaxIt       ....    12
   Startup error        DIISStart       ....  0.200000
   # of expansion vecs  DIISMaxEq       ....     5
   Bias factor          DIISBfac        ....   1.050
   Max. coefficient     DIISMaxC        ....  10.000
 Trust-Rad. Augm. Hess. CNVTRAH         .... auto
   Auto Start mean grad. ratio tolernc. ....  1.125000
   Auto Start start iteration           ....    20
   Auto Start num. interpolation iter.  ....    10
   Max. Number of Micro iterations      ....    16
   Max. Number of Macro iterations      .... Maxiter - #DIIS iter
   Number of Davidson start vectors     ....     2
   Converg. threshold I  (grad. norm)   ....   5.000e-05
   Converg. threshold II (energy diff.) ....   1.000e-06
   Grad. Scal. Fac. for Micro threshold ....   0.100
   Minimum threshold for Micro iter.    ....   0.010
   NR start threshold (gradient norm)   ....   0.001
   Initial trust radius                 ....   0.400
   Minimum AH scaling param. (alpha)    ....   1.000
   Maximum AH scaling param. (alpha)    .... 1000.000
   Orbital update algorithm             .... Taylor
   White noise on init. David. guess    .... on
   Maximum white noise                  ....   0.010
   Quad. conv. algorithm                .... NR
   COSX micro iterations for RIJONX calc.... off
 SOSCF                  CNVSOSCF        .... on
   Start iteration      SOSCFMaxIt      ....   150
   Startup grad/error   SOSCFStart      ....  0.003300
 Level Shifting         CNVShift        .... on
   Level shift para.    LevelShift      ....    0.2500
   Turn off err/grad.   ShiftErr        ....    0.0010
 Zerner damping         CNVZerner       .... off
 Static damping         CNVDamp         .... on
   Fraction old density DampFac         ....    0.7000
   Max. Damping (<1)    DampMax         ....    0.9800
   Min. Damping (>=0)   DampMin         ....    0.0000
   Turn off err/grad.   DampErr         ....    0.1000
 Fernandez-Rico         CNVRico         .... off

SCF Procedure:
 Maximum # iterations   MaxIter         ....   125
 SCF integral mode      SCFMode         .... Direct
   Integral package                     .... SHARK and LIBINT hybrid scheme
 Reset frequency        DirectResetFreq ....    20
 Integral Threshold     Thresh          ....  1.000e-10 Eh
 Primitive CutOff       TCut            ....  1.000e-11 Eh

Convergence Tolerance:
 Convergence Check Mode ConvCheckMode   .... Total+1el-Energy
 Convergence forced     ConvForced      .... 0
 Energy Change          TolE            ....  1.000e-06 Eh
 1-El. energy change                    ....  1.000e-03 Eh
 Orbital Gradient       TolG            ....  5.000e-05
 Orbital Rotation angle TolX            ....  5.000e-05
 DIIS Error             TolErr          ....  1.000e-06


Diagonalization of the overlap matrix:
Smallest eigenvalue                        ... 1.944e-05
Time for diagonalization                   ...    0.058 sec
Threshold for overlap eigenvalues          ... 1.000e-08
Number of eigenvalues below threshold      ... 0
Time for construction of square roots      ...    0.058 sec
Total time needed                          ...    0.118 sec

Time for model grid setup =    0.748 sec

------------------------------
INITIAL GUESS: MODEL POTENTIAL
------------------------------
Loading Hartree-Fock densities                     ... done
Calculating cut-offs                               ... done
Initializing the effective Hamiltonian             ... done
Setting up the integral package (SHARK)            ... done
Starting the Coulomb interaction                   ... done (   0.8 sec)
Reading the grid                                   ... done
Mapping shells                                     ... done
Starting the XC term evaluation                    ... done (   0.5 sec)
  promolecular density results
     # of electrons  =    193.002944405
     EX              =   -164.322742869
     EC              =     -6.555939750
     EX+EC           =   -170.878682619
Transforming the Hamiltonian                       ... done (   0.0 sec)
Diagonalizing the Hamiltonian                      ... done (   0.1 sec)
Back transforming the eigenvectors                 ... done (   0.0 sec)
Now organizing SCF variables                       ... done
                      ------------------
                      INITIAL GUESS DONE (   2.3 sec)
                      ------------------
-------------------
DFT GRID GENERATION
-------------------

General Integration Accuracy     IntAcc      ... 4.388
Radial Grid Type                 RadialGrid  ... OptM3 with GC (2021)
Angular Grid (max. ang.)         AngularGrid ... 4 (Lebedev-302)
Angular grid pruning method      GridPruning ... 4 (adaptive)
Weight generation scheme         WeightScheme... Becke
Basis function cutoff            BFCut       ... 1.0000e-10
Integration weight cutoff        WCut        ... 1.0000e-14
Angular grids for H and He will be reduced by one unit
Partially contracted basis set               ... off
Rotationally invariant grid construction     ... off

Total number of grid points                  ...   220418
Total number of batches                      ...     3463
Average number of points per batch           ...       63
Average number of grid points per atom       ...     4792
Time for grid setup =    2.587 sec


--------------------
CPCM SOLVATION MODEL
--------------------
CPCM parameters:
  Epsilon                                         ...      46.8260
  Refrac                                          ...       1.4170
  Rsolv                                           ...       1.3000
  Surface type                                    ... GAUSSIAN VDW
  Epsilon function type                           ...         CPCM
Solvent:                                     ... DMSO
SMD-CDS solvent descriptors:
  Soln                                       ...    1.4170
  Soln25                                     ...    1.4773
  Sola                                       ...    0.0000
  Solb                                       ...    0.8800
  Solg                                       ...   61.7800
  Solc                                       ...    0.0000
  Solh                                       ...    0.0000
Radii:
 Radius for C  used is    3.4960 Bohr (=   1.8500 Ang.)
 Radius for O  used is    4.3350 Bohr (=   2.2940 Ang.)
 Radius for N  used is    3.5716 Bohr (=   1.8900 Ang.)
 Radius for H  used is    2.2677 Bohr (=   1.2000 Ang.)
Calculating surface                               ...        done! (  0.0s)
GEPOL surface points                              ...         2281
GEPOL Volume                                      ...    2960.6313
GEPOL Surface-area                                ...    1445.9337
Calculating surface distance matrix               ...        done! (  0.0s)
Performing Cholesky decomposition & store         ...        done! (  0.2s)
Overall time for CPCM initialization              ...                 0.2s
--------------
SCF ITERATIONS
--------------
ITER       Energy         Delta-E        Max-DP      RMS-DP      [F,P]     Damp
               ***  Starting incremental Fock matrix formation  ***
  0  -1307.8737985682   0.000000000000 0.76212641  0.00267569  0.3243969 0.7000
  1  -1308.2316809545  -0.357882386308 0.69210607  0.00232559  0.1170813 0.7000
                               ***Turning on DIIS***
  2  -1308.3514222536  -0.119741299106 0.64511611  0.00300897  0.0346949 0.0000
  3  -1308.5626915854  -0.211269331766 0.66644345  0.00205706  0.0553579 0.0000
  4  -1308.6023891767  -0.039697591313 0.16704520  0.00059206  0.0277481 0.0000
  5  -1308.6072195277  -0.004830351047 0.07499279  0.00026590  0.0053256 0.0000
                      *** Initiating the SOSCF procedure ***
                           *** Shutting down DIIS ***
                      *** Re-Reading the Fockian *** 
                      *** Removing any level shift *** 
ITER      Energy       Delta-E        Grad      Rot      Max-DP    RMS-DP
  6  -1308.60738080  -0.0001612703  0.000660  0.000660  0.009385  0.000059
               *** Restarting incremental Fock matrix formation ***
  7  -1308.60743518  -0.0000543829  0.000603  0.012059  0.004920  0.000054
  8  -1308.60745371  -0.0000185303  0.000404  0.017664  0.008329  0.000081
  9  -1308.60745339   0.0000003261  0.001228  0.008486  0.009284  0.000046
 10  -1308.60744223   0.0000111528  0.001172  0.011340  0.007238  0.000059
 11  -1308.60746380  -0.0000215643  0.000536  0.002324  0.002953  0.000026
 12  -1308.60746536  -0.0000015638  0.000405  0.003244  0.002576  0.000018
 13  -1308.60747109  -0.0000057259  0.000081  0.001688  0.001951  0.000012
 14  -1308.60747092   0.0000001656  0.000125  0.000414  0.000799  0.000006
 15  -1308.60747207  -0.0000011468  0.000049  0.000821  0.001213  0.000007
 16  -1308.60747181   0.0000002560  0.000056  0.000098  0.000655  0.000003
                 **** Energy Check signals convergence ****
              ***Rediagonalizing the Fockian in SOSCF/NRSCF***

               *****************************************************
               *                     SUCCESS                       *
               *           SCF CONVERGED AFTER  17 CYCLES          *
               *****************************************************


SMD CDS free energy correction energy :                 0.31321     Kcal/mol
Total Energy after SMD CDS correction =             -1308.606972935 Eh

----------------
TOTAL SCF ENERGY
----------------

Total Energy       :        -1308.60697294 Eh          -35609.00606 eV

Components:
Nuclear Repulsion  :         2519.39576439 Eh           68556.24408 eV
Electronic Energy  :        -3828.00273733 Eh         -104165.25014 eV
One Electron Energy:        -6820.41024797 Eh         -185592.79820 eV
Two Electron Energy:         2992.40751064 Eh           81427.54806 eV
CPCM Dielectric    :           -0.10251953 Eh              -2.78970 eV
SMD CDS (Gcds)     :            0.00049914 Eh               0.01358 eV

Virial components:
Potential Energy   :        -2611.95184650 Eh          -71074.82312 eV
Kinetic Energy     :         1303.34487357 Eh           35465.81706 eV
Virial Ratio       :            2.00403738


DFT components:
N(Alpha)           :       97.000182558186 electrons
N(Beta)            :       97.000182558186 electrons
N(Total)           :      194.000365116372 electrons
E(X)               :     -168.426650284927 Eh       
E(C)               :       -6.444862234189 Eh       
E(XC)              :     -174.871512519116 Eh       
DFET-embed. en.    :        0.000000000000 Eh       
CPCM Solvation Model Properties:
Surface-charge          :            0.96318391
Charge-correction       :           -0.00334200 Eh              -0.09094 eV
Free-energy (cav+disp)  :            0.00049914 Eh               0.01358 eV

---------------
SCF CONVERGENCE
---------------

  Last Energy change         ...   -2.6209e-07  Tolerance :   1.0000e-06
  Last MAX-Density change    ...    9.6965e-04  Tolerance :   1.0000e-05
  Last RMS-Density change    ...    4.4526e-06  Tolerance :   1.0000e-06
  Last Orbital Gradient      ...    1.2712e-05  Tolerance :   5.0000e-05
  Last Orbital Rotation      ...    4.1448e-04  Tolerance :   5.0000e-05

             **** THE GBW FILE WAS UPDATED (/lustre/hpc/kemi/ree/PhD/git/ReactivityQM/calculations/R03/reac02prodE05/conf09/gfn1/orca_calc.gbw) ****
             **** DENSITY /lustre/hpc/kemi/ree/PhD/git/ReactivityQM/calculations/R03/reac02prodE05/conf09/gfn1/orca_calc.scfp WAS UPDATED ****
             **** ENERGY FILE WAS UPDATED (/lustre/hpc/kemi/ree/PhD/git/ReactivityQM/calculations/R03/reac02prodE05/conf09/gfn1/orca_calc.en.tmp) ****
             **** THE GBW FILE WAS UPDATED (/lustre/hpc/kemi/ree/PhD/git/ReactivityQM/calculations/R03/reac02prodE05/conf09/gfn1/orca_calc.gbw) ****
             **** DENSITY /lustre/hpc/kemi/ree/PhD/git/ReactivityQM/calculations/R03/reac02prodE05/conf09/gfn1/orca_calc.scfp WAS UPDATED ****
----------------
ORBITAL ENERGIES
----------------

  NO   OCC          E(Eh)            E(eV) 
   0   2.0000     -19.059245      -518.6284 
   1   2.0000     -18.974100      -516.3115 
   2   2.0000     -18.954538      -515.7792 
   3   2.0000     -18.918738      -514.8050 
   4   2.0000     -18.914960      -514.7022 
   5   2.0000     -18.861799      -513.2556 
   6   2.0000     -14.197256      -386.3270 
   7   2.0000     -14.192117      -386.1871 
   8   2.0000     -14.184651      -385.9840 
   9   2.0000     -14.183581      -385.9549 
  10   2.0000     -14.139467      -384.7544 
  11   2.0000     -10.141525      -275.9649 
  12   2.0000     -10.140456      -275.9358 
  13   2.0000     -10.135135      -275.7910 
  14   2.0000     -10.128089      -275.5993 
  15   2.0000     -10.077451      -274.2214 
  16   2.0000     -10.073351      -274.1098 
  17   2.0000     -10.068349      -273.9737 
  18   2.0000     -10.063839      -273.8510 
  19   2.0000     -10.042650      -273.2744 
  20   2.0000     -10.035970      -273.0926 
  21   2.0000     -10.033464      -273.0244 
  22   2.0000     -10.031358      -272.9671 
  23   2.0000     -10.024620      -272.7838 
  24   2.0000     -10.010352      -272.3955 
  25   2.0000     -10.000440      -272.1258 
  26   2.0000      -1.148017       -31.2391 
  27   2.0000      -1.042216       -28.3601 
  28   2.0000      -1.004768       -27.3411 
  29   2.0000      -0.999362       -27.1940 
  30   2.0000      -0.968344       -26.3500 
  31   2.0000      -0.953263       -25.9396 
  32   2.0000      -0.948490       -25.8097 
  33   2.0000      -0.903164       -24.5764 
  34   2.0000      -0.888628       -24.1808 
  35   2.0000      -0.843267       -22.9465 
  36   2.0000      -0.824011       -22.4225 
  37   2.0000      -0.749538       -20.3960 
  38   2.0000      -0.714515       -19.4430 
  39   2.0000      -0.708656       -19.2835 
  40   2.0000      -0.685575       -18.6554 
  41   2.0000      -0.656672       -17.8690 
  42   2.0000      -0.651855       -17.7379 
  43   2.0000      -0.644635       -17.5414 
  44   2.0000      -0.638067       -17.3627 
  45   2.0000      -0.595360       -16.2006 
  46   2.0000      -0.590527       -16.0690 
  47   2.0000      -0.585245       -15.9253 
  48   2.0000      -0.568961       -15.4822 
  49   2.0000      -0.532065       -14.4782 
  50   2.0000      -0.522952       -14.2303 
  51   2.0000      -0.516333       -14.0501 
  52   2.0000      -0.488314       -13.2877 
  53   2.0000      -0.483279       -13.1507 
  54   2.0000      -0.475126       -12.9288 
  55   2.0000      -0.457293       -12.4436 
  56   2.0000      -0.452029       -12.3003 
  57   2.0000      -0.441778       -12.0214 
  58   2.0000      -0.427549       -11.6342 
  59   2.0000      -0.419828       -11.4241 
  60   2.0000      -0.417975       -11.3737 
  61   2.0000      -0.409847       -11.1525 
  62   2.0000      -0.404034       -10.9943 
  63   2.0000      -0.402044       -10.9402 
  64   2.0000      -0.392623       -10.6838 
  65   2.0000      -0.387811       -10.5529 
  66   2.0000      -0.386104       -10.5064 
  67   2.0000      -0.378202       -10.2914 
  68   2.0000      -0.377614       -10.2754 
  69   2.0000      -0.376050       -10.2329 
  70   2.0000      -0.369768       -10.0619 
  71   2.0000      -0.357668        -9.7326 
  72   2.0000      -0.351985        -9.5780 
  73   2.0000      -0.350232        -9.5303 
  74   2.0000      -0.343181        -9.3384 
  75   2.0000      -0.341024        -9.2797 
  76   2.0000      -0.338649        -9.2151 
  77   2.0000      -0.337012        -9.1706 
  78   2.0000      -0.332246        -9.0409 
  79   2.0000      -0.324738        -8.8366 
  80   2.0000      -0.317529        -8.6404 
  81   2.0000      -0.311042        -8.4639 
  82   2.0000      -0.307960        -8.3800 
  83   2.0000      -0.302924        -8.2430 
  84   2.0000      -0.299391        -8.1468 
  85   2.0000      -0.294396        -8.0109 
  86   2.0000      -0.262493        -7.1428 
  87   2.0000      -0.255751        -6.9593 
  88   2.0000      -0.253639        -6.9019 
  89   2.0000      -0.238928        -6.5016 
  90   2.0000      -0.236045        -6.4231 
  91   2.0000      -0.231819        -6.3081 
  92   2.0000      -0.215025        -5.8511 
  93   2.0000      -0.196155        -5.3376 
  94   2.0000      -0.184882        -5.0309 
  95   2.0000      -0.170745        -4.6462 
  96   2.0000      -0.098045        -2.6679 
  97   0.0000      -0.076047        -2.0693 
  98   0.0000      -0.055324        -1.5054 
  99   0.0000      -0.014928        -0.4062 
 100   0.0000       0.036879         1.0035 
 101   0.0000       0.056548         1.5388 
 102   0.0000       0.062947         1.7129 
 103   0.0000       0.064759         1.7622 
 104   0.0000       0.083707         2.2778 
 105   0.0000       0.090896         2.4734 
 106   0.0000       0.097176         2.6443 
 107   0.0000       0.103114         2.8059 
 108   0.0000       0.110599         3.0095 
 109   0.0000       0.116384         3.1670 
 110   0.0000       0.119288         3.2460 
 111   0.0000       0.126051         3.4300 
 112   0.0000       0.132246         3.5986 
 113   0.0000       0.135227         3.6797 
 114   0.0000       0.136946         3.7265 
 115   0.0000       0.139201         3.7879 
 116   0.0000       0.146006         3.9730 
 117   0.0000       0.148275         4.0348 
 118   0.0000       0.150765         4.1025 
 119   0.0000       0.154187         4.1956 
 120   0.0000       0.155896         4.2422 
 121   0.0000       0.160112         4.3569 
 122   0.0000       0.166567         4.5325 
 123   0.0000       0.169409         4.6099 
 124   0.0000       0.175572         4.7776 
 125   0.0000       0.176110         4.7922 
 126   0.0000       0.182571         4.9680 
 127   0.0000       0.183995         5.0068 
 128   0.0000       0.191488         5.2106 
 129   0.0000       0.192915         5.2495 
 130   0.0000       0.193683         5.2704 
 131   0.0000       0.197664         5.3787 
 132   0.0000       0.199878         5.4390 
 133   0.0000       0.200801         5.4641 
 134   0.0000       0.202563         5.5120 
 135   0.0000       0.207706         5.6520 
 136   0.0000       0.211714         5.7610 
 137   0.0000       0.214620         5.8401 
 138   0.0000       0.220546         6.0014 
 139   0.0000       0.225778         6.1437 
 140   0.0000       0.229906         6.2561 
 141   0.0000       0.233412         6.3515 
 142   0.0000       0.239981         6.5302 
 143   0.0000       0.242478         6.5982 
 144   0.0000       0.245280         6.6744 
 145   0.0000       0.248957         6.7745 
 146   0.0000       0.250094         6.8054 
 147   0.0000       0.258075         7.0226 
 148   0.0000       0.259911         7.0725 
 149   0.0000       0.265182         7.2160 
 150   0.0000       0.270188         7.3522 
 151   0.0000       0.275668         7.5013 
 152   0.0000       0.279607         7.6085 
 153   0.0000       0.283065         7.7026 
 154   0.0000       0.286150         7.7865 
 155   0.0000       0.289920         7.8891 
 156   0.0000       0.292423         7.9572 
 157   0.0000       0.295131         8.0309 
 158   0.0000       0.308667         8.3993 
 159   0.0000       0.312073         8.4919 
 160   0.0000       0.315730         8.5914 
 161   0.0000       0.318086         8.6556 
 162   0.0000       0.323330         8.7983 
 163   0.0000       0.328323         8.9341 
 164   0.0000       0.333958         9.0875 
 165   0.0000       0.338127         9.2009 
 166   0.0000       0.341196         9.2844 
 167   0.0000       0.347315         9.4509 
 168   0.0000       0.351050         9.5525 
 169   0.0000       0.356803         9.7091 
 170   0.0000       0.357677         9.7329 
 171   0.0000       0.363660         9.8957 
 172   0.0000       0.367867        10.0102 
 173   0.0000       0.370656        10.0861 
 174   0.0000       0.376196        10.2368 
 175   0.0000       0.381714        10.3870 
 176   0.0000       0.385338        10.4856 
 177   0.0000       0.390483        10.6256 
 178   0.0000       0.394089        10.7237 
 179   0.0000       0.397629        10.8200 
 180   0.0000       0.400737        10.9046 
 181   0.0000       0.407479        11.0881 
 182   0.0000       0.408730        11.1221 
 183   0.0000       0.413535        11.2529 
 184   0.0000       0.419209        11.4072 
 185   0.0000       0.423190        11.5156 
 186   0.0000       0.424872        11.5614 
 187   0.0000       0.431806        11.7500 
 188   0.0000       0.433360        11.7923 
 189   0.0000       0.442568        12.0429 
 190   0.0000       0.449081        12.2201 
 191   0.0000       0.451371        12.2824 
 192   0.0000       0.457568        12.4511 
 193   0.0000       0.465525        12.6676 
 194   0.0000       0.468634        12.7522 
 195   0.0000       0.473167        12.8755 
 196   0.0000       0.479153        13.0384 
 197   0.0000       0.487685        13.2706 
 198   0.0000       0.493895        13.4396 
 199   0.0000       0.501299        13.6410 
 200   0.0000       0.505496        13.7552 
 201   0.0000       0.507601        13.8125 
 202   0.0000       0.509504        13.8643 
 203   0.0000       0.513966        13.9857 
 204   0.0000       0.520183        14.1549 
 205   0.0000       0.523171        14.2362 
 206   0.0000       0.536556        14.6004 
 207   0.0000       0.537059        14.6141 
 208   0.0000       0.544529        14.8174 
 209   0.0000       0.551920        15.0185 
 210   0.0000       0.557273        15.1642 
 211   0.0000       0.560590        15.2544 
 212   0.0000       0.564276        15.3547 
 213   0.0000       0.566339        15.4109 
 214   0.0000       0.578817        15.7504 
 215   0.0000       0.585360        15.9285 
 216   0.0000       0.586121        15.9492 
 217   0.0000       0.592339        16.1184 
 218   0.0000       0.601268        16.3613 
 219   0.0000       0.608354        16.5542 
 220   0.0000       0.613757        16.7012 
 221   0.0000       0.616893        16.7865 
 222   0.0000       0.619548        16.8588 
 223   0.0000       0.629608        17.1325 
 224   0.0000       0.637285        17.3414 
 225   0.0000       0.643335        17.5060 
 226   0.0000       0.648354        17.6426 
 227   0.0000       0.651634        17.7319 
 228   0.0000       0.661262        17.9939 
 229   0.0000       0.664306        18.0767 
 230   0.0000       0.667457        18.1624 
 231   0.0000       0.672538        18.3007 
 232   0.0000       0.678702        18.4684 
 233   0.0000       0.682285        18.5659 
 234   0.0000       0.687298        18.7023 
 235   0.0000       0.697365        18.9763 
 236   0.0000       0.705375        19.1942 
 237   0.0000       0.708006        19.2658 
 238   0.0000       0.714583        19.4448 
 239   0.0000       0.715653        19.4739 
 240   0.0000       0.725443        19.7403 
 241   0.0000       0.727236        19.7891 
 242   0.0000       0.735210        20.0061 
 243   0.0000       0.742682        20.2094 
 244   0.0000       0.745845        20.2955 
 245   0.0000       0.749662        20.3994 
 246   0.0000       0.761019        20.7084 
 247   0.0000       0.766613        20.8606 
 248   0.0000       0.771180        20.9849 
 249   0.0000       0.777412        21.1544 
 250   0.0000       0.783622        21.3234 
 251   0.0000       0.785534        21.3755 
 252   0.0000       0.790505        21.5107 
 253   0.0000       0.795066        21.6348 
 254   0.0000       0.798955        21.7407 
 255   0.0000       0.805758        21.9258 
 256   0.0000       0.809535        22.0286 
 257   0.0000       0.816392        22.2152 
 258   0.0000       0.820957        22.3394 
 259   0.0000       0.828050        22.5324 
 260   0.0000       0.839609        22.8469 
 261   0.0000       0.845447        23.0058 
 262   0.0000       0.848343        23.0846 
 263   0.0000       0.854848        23.2616 
 264   0.0000       0.859772        23.3956 
 265   0.0000       0.864528        23.5250 
 266   0.0000       0.869871        23.6704 
 267   0.0000       0.873451        23.7678 
 268   0.0000       0.888586        24.1796 
 269   0.0000       0.896345        24.3908 
 270   0.0000       0.900881        24.5142 
 271   0.0000       0.909717        24.7547 
 272   0.0000       0.909975        24.7617 
 273   0.0000       0.917864        24.9764 
 274   0.0000       0.928746        25.2725 
 275   0.0000       0.931853        25.3570 
 276   0.0000       0.940329        25.5877 
 277   0.0000       0.945624        25.7317 
 278   0.0000       0.958439        26.0805 
 279   0.0000       0.963173        26.2093 
 280   0.0000       0.967230        26.3197 
 281   0.0000       0.981297        26.7024 
 282   0.0000       0.983892        26.7731 
 283   0.0000       0.985720        26.8228 
 284   0.0000       0.992623        27.0106 
 285   0.0000       1.009848        27.4793 
 286   0.0000       1.016506        27.6605 
 287   0.0000       1.021369        27.7929 
 288   0.0000       1.034047        28.1379 
 289   0.0000       1.040885        28.3239 
 290   0.0000       1.041183        28.3320 
 291   0.0000       1.053447        28.6658 
 292   0.0000       1.056381        28.7456 
 293   0.0000       1.061554        28.8864 
 294   0.0000       1.067102        29.0373 
 295   0.0000       1.086882        29.5756 
 296   0.0000       1.093436        29.7539 
 297   0.0000       1.106209        30.1015 
 298   0.0000       1.110894        30.2290 
 299   0.0000       1.116310        30.3763 
 300   0.0000       1.130360        30.7587 
 301   0.0000       1.135349        30.8944 
 302   0.0000       1.140891        31.0452 
 303   0.0000       1.148096        31.2413 
 304   0.0000       1.150107        31.2960 
 305   0.0000       1.171527        31.8789 
 306   0.0000       1.182932        32.1892 
 307   0.0000       1.184357        32.2280 
 308   0.0000       1.193461        32.4757 
 309   0.0000       1.197400        32.5829 
 310   0.0000       1.206336        32.8261 
 311   0.0000       1.212910        33.0050 
 312   0.0000       1.221058        33.2267 
 313   0.0000       1.226251        33.3680 
 314   0.0000       1.232772        33.5454 
 315   0.0000       1.240945        33.7678 
 316   0.0000       1.251117        34.0446 
 317   0.0000       1.257036        34.2057 
 318   0.0000       1.272311        34.6213 
 319   0.0000       1.273534        34.6546 
 320   0.0000       1.282977        34.9116 
 321   0.0000       1.302744        35.4495 
 322   0.0000       1.308482        35.6056 
 323   0.0000       1.317191        35.8426 
 324   0.0000       1.320360        35.9288 
 325   0.0000       1.328447        36.1489 
 326   0.0000       1.333732        36.2927 
 327   0.0000       1.337936        36.4071 
 328   0.0000       1.342091        36.5202 
 329   0.0000       1.350577        36.7511 
 330   0.0000       1.359170        36.9849 
 331   0.0000       1.363749        37.1095 
 332   0.0000       1.370222        37.2856 
 333   0.0000       1.374743        37.4087 
 334   0.0000       1.381683        37.5975 
 335   0.0000       1.390629        37.8410 
 336   0.0000       1.394861        37.9561 
 337   0.0000       1.396759        38.0077 
 338   0.0000       1.414584        38.4928 
 339   0.0000       1.428265        38.8651 
 340   0.0000       1.443332        39.2751 
 341   0.0000       1.449998        39.4565 
 342   0.0000       1.457984        39.6738 
 343   0.0000       1.463180        39.8152 
 344   0.0000       1.469600        39.9898 
 345   0.0000       1.477531        40.2057 
 346   0.0000       1.492697        40.6184 
 347   0.0000       1.498112        40.7657 
 348   0.0000       1.511288        41.1242 
 349   0.0000       1.524845        41.4931 
 350   0.0000       1.534458        41.7547 
 351   0.0000       1.546958        42.0949 
 352   0.0000       1.561417        42.4883 
 353   0.0000       1.571855        42.7724 
 354   0.0000       1.581201        43.0267 
 355   0.0000       1.584679        43.1213 
 356   0.0000       1.589549        43.2538 
 357   0.0000       1.607449        43.7409 
 358   0.0000       1.625629        44.2356 
 359   0.0000       1.633397        44.4470 
 360   0.0000       1.652716        44.9727 
 361   0.0000       1.657210        45.0950 
 362   0.0000       1.675653        45.5968 
 363   0.0000       1.681891        45.7666 
 364   0.0000       1.686171        45.8830 
 365   0.0000       1.701969        46.3129 
 366   0.0000       1.712616        46.6026 
 367   0.0000       1.723844        46.9082 
 368   0.0000       1.731772        47.1239 
 369   0.0000       1.741992        47.4020 
 370   0.0000       1.748255        47.5724 
 371   0.0000       1.752499        47.6879 
 372   0.0000       1.766360        48.0651 
 373   0.0000       1.773255        48.2527 
 374   0.0000       1.776557        48.3426 
 375   0.0000       1.785236        48.5787 
 376   0.0000       1.789077        48.6833 
 377   0.0000       1.809652        49.2431 
 378   0.0000       1.812770        49.3280 
 379   0.0000       1.820844        49.5477 
 380   0.0000       1.829567        49.7851 
 381   0.0000       1.835814        49.9551 
 382   0.0000       1.843146        50.1546 
 383   0.0000       1.852272        50.4029 
 384   0.0000       1.862537        50.6822 
 385   0.0000       1.866359        50.7862 
 386   0.0000       1.876072        51.0505 
 387   0.0000       1.879173        51.1349 
 388   0.0000       1.882911        51.2366 
 389   0.0000       1.887722        51.3675 
 390   0.0000       1.893399        51.5220 
 391   0.0000       1.898944        51.6729 
 392   0.0000       1.908609        51.9359 
 393   0.0000       1.915168        52.1144 
 394   0.0000       1.932525        52.5867 
 395   0.0000       1.938903        52.7602 
 396   0.0000       1.947623        52.9975 
 397   0.0000       1.957509        53.2665 
 398   0.0000       1.963250        53.4228 
 399   0.0000       1.965935        53.4958 
 400   0.0000       1.978133        53.8277 
 401   0.0000       1.986173        54.0465 
 402   0.0000       2.000777        54.4439 
 403   0.0000       2.012055        54.7508 
 404   0.0000       2.024400        55.0867 
 405   0.0000       2.039281        55.4917 
 406   0.0000       2.043986        55.6197 
 407   0.0000       2.054563        55.9075 
 408   0.0000       2.062406        56.1209 
 409   0.0000       2.067718        56.2655 
 410   0.0000       2.072274        56.3894 
 411   0.0000       2.085421        56.7472 
 412   0.0000       2.095765        57.0287 
 413   0.0000       2.116082        57.5815 
 414   0.0000       2.119340        57.6702 
 415   0.0000       2.134779        58.0903 
 416   0.0000       2.142384        58.2972 
 417   0.0000       2.158205        58.7277 
 418   0.0000       2.163761        58.8789 
 419   0.0000       2.170514        59.0627 
 420   0.0000       2.177588        59.2552 
 421   0.0000       2.185202        59.4624 
 422   0.0000       2.189726        59.5855 
 423   0.0000       2.194247        59.7085 
 424   0.0000       2.201058        59.8938 
 425   0.0000       2.218305        60.3631 
 426   0.0000       2.224786        60.5395 
 427   0.0000       2.228192        60.6322 
 428   0.0000       2.238783        60.9204 
 429   0.0000       2.254115        61.3376 
 430   0.0000       2.256886        61.4130 
 431   0.0000       2.267694        61.7071 
 432   0.0000       2.271252        61.8039 
 433   0.0000       2.273402        61.8624 
 434   0.0000       2.279194        62.0200 
 435   0.0000       2.284486        62.1640 
 436   0.0000       2.291998        62.3684 
 437   0.0000       2.293571        62.4113 
 438   0.0000       2.310026        62.8590 
 439   0.0000       2.318374        63.0862 
 440   0.0000       2.326333        63.3027 
 441   0.0000       2.333209        63.4898 
 442   0.0000       2.346832        63.8606 
 443   0.0000       2.349252        63.9264 
 444   0.0000       2.362179        64.2782 
 445   0.0000       2.379051        64.7373 
 446   0.0000       2.382292        64.8255 
 447   0.0000       2.391582        65.0782 
 448   0.0000       2.395431        65.1830 
 449   0.0000       2.397920        65.2507 
 450   0.0000       2.400757        65.3279 
 451   0.0000       2.404720        65.4358 
 452   0.0000       2.409668        65.5704 
 453   0.0000       2.418742        65.8173 
 454   0.0000       2.427317        66.0506 
 455   0.0000       2.433816        66.2275 
 456   0.0000       2.440854        66.4190 
 457   0.0000       2.444967        66.5309 
 458   0.0000       2.461417        66.9786 
 459   0.0000       2.462666        67.0125 
 460   0.0000       2.469544        67.1997 
 461   0.0000       2.475390        67.3588 
 462   0.0000       2.482643        67.5561 
 463   0.0000       2.483489        67.5792 
 464   0.0000       2.498151        67.9781 
 465   0.0000       2.515412        68.4478 
 466   0.0000       2.520533        68.5872 
 467   0.0000       2.531467        68.8847 
 468   0.0000       2.546097        69.2828 
 469   0.0000       2.556065        69.5541 
 470   0.0000       2.559956        69.6600 
 471   0.0000       2.570693        69.9521 
 472   0.0000       2.578777        70.1721 
 473   0.0000       2.581981        70.2593 
 474   0.0000       2.592613        70.5486 
 475   0.0000       2.603071        70.8332 
 476   0.0000       2.608005        70.9674 
 477   0.0000       2.619442        71.2786 
 478   0.0000       2.628574        71.5271 
 479   0.0000       2.636020        71.7298 
 480   0.0000       2.638709        71.8029 
 481   0.0000       2.656451        72.2857 
 482   0.0000       2.664911        72.5159 
 483   0.0000       2.666181        72.5505 
 484   0.0000       2.673243        72.7426 
 485   0.0000       2.682270        72.9883 
 486   0.0000       2.694496        73.3210 
 487   0.0000       2.699035        73.4445 
 488   0.0000       2.699492        73.4569 
 489   0.0000       2.709548        73.7306 
 490   0.0000       2.715836        73.9017 
 491   0.0000       2.717858        73.9567 
 492   0.0000       2.727838        74.2282 
 493   0.0000       2.732351        74.3511 
 494   0.0000       2.736549        74.4653 
 495   0.0000       2.744184        74.6731 
 496   0.0000       2.752957        74.9118 
 497   0.0000       2.754086        74.9425 
 498   0.0000       2.757795        75.0434 
 499   0.0000       2.760591        75.1195 
 500   0.0000       2.761882        75.1546 
 501   0.0000       2.768659        75.3391 
 502   0.0000       2.774603        75.5008 
 503   0.0000       2.782880        75.7260 
 504   0.0000       2.786619        75.8278 
 505   0.0000       2.790325        75.9286 
 506   0.0000       2.800611        76.2085 
 507   0.0000       2.815761        76.6207 
 508   0.0000       2.816748        76.6476 
 509   0.0000       2.824719        76.8645 
 510   0.0000       2.828752        76.9742 
 511   0.0000       2.832795        77.0843 
 512   0.0000       2.846744        77.4638 
 513   0.0000       2.855675        77.7069 
 514   0.0000       2.867737        78.0351 
 515   0.0000       2.869501        78.0831 
 516   0.0000       2.874526        78.2198 
 517   0.0000       2.881842        78.4189 
 518   0.0000       2.895596        78.7932 
 519   0.0000       2.903488        79.0079 
 520   0.0000       2.905012        79.0494 
 521   0.0000       2.916439        79.3603 
 522   0.0000       2.919605        79.4465 
 523   0.0000       2.925444        79.6054 
 524   0.0000       2.935858        79.8887 
 525   0.0000       2.951859        80.3242 
 526   0.0000       2.964509        80.6684 
 527   0.0000       2.971210        80.8507 
 528   0.0000       2.980287        81.0977 
 529   0.0000       2.985807        81.2479 
 530   0.0000       2.999840        81.6298 
 531   0.0000       3.002983        81.7153 
 532   0.0000       3.005988        81.7971 
 533   0.0000       3.011609        81.9500 
 534   0.0000       3.020559        82.1936 
 535   0.0000       3.027746        82.3892 
 536   0.0000       3.030617        82.4673 
 537   0.0000       3.036582        82.6296 
 538   0.0000       3.039927        82.7206 
 539   0.0000       3.049772        82.9885 
 540   0.0000       3.055398        83.1416 
 541   0.0000       3.061917        83.3190 
 542   0.0000       3.067239        83.4638 
 543   0.0000       3.079619        83.8007 
 544   0.0000       3.085262        83.9543 
 545   0.0000       3.098969        84.3272 
 546   0.0000       3.107841        84.5687 
 547   0.0000       3.113423        84.7206 
 548   0.0000       3.123297        84.9892 
 549   0.0000       3.128534        85.1317 
 550   0.0000       3.132094        85.2286 
 551   0.0000       3.140794        85.4653 
 552   0.0000       3.151331        85.7521 
 553   0.0000       3.155877        85.8758 
 554   0.0000       3.161113        86.0183 
 555   0.0000       3.170674        86.2784 
 556   0.0000       3.173442        86.3537 
 557   0.0000       3.195100        86.9431 
 558   0.0000       3.198922        87.0471 
 559   0.0000       3.225001        87.7567 
 560   0.0000       3.231131        87.9235 
 561   0.0000       3.244135        88.2774 
 562   0.0000       3.254691        88.5646 
 563   0.0000       3.270584        88.9971 
 564   0.0000       3.282517        89.3218 
 565   0.0000       3.285520        89.4036 
 566   0.0000       3.306036        89.9618 
 567   0.0000       3.312757        90.1447 
 568   0.0000       3.323893        90.4477 
 569   0.0000       3.351694        91.2042 
 570   0.0000       3.354613        91.2837 
 571   0.0000       3.360097        91.4329 
 572   0.0000       3.362270        91.4920 
 573   0.0000       3.364711        91.5585 
 574   0.0000       3.383742        92.0763 
 575   0.0000       3.404620        92.6444 
 576   0.0000       3.423783        93.1659 
 577   0.0000       3.436997        93.5255 
 578   0.0000       3.452145        93.9376 
 579   0.0000       3.493047        95.0507 
 580   0.0000       3.498226        95.1916 
 581   0.0000       3.525067        95.9219 
 582   0.0000       3.534501        96.1787 
 583   0.0000       3.547938        96.5443 
 584   0.0000       3.555801        96.7583 
 585   0.0000       3.565709        97.0279 
 586   0.0000       3.568511        97.1041 
 587   0.0000       3.575154        97.2849 
 588   0.0000       3.586915        97.6049 
 589   0.0000       3.601134        97.9918 
 590   0.0000       3.609103        98.2087 
 591   0.0000       3.623454        98.5992 
 592   0.0000       3.630118        98.7805 
 593   0.0000       3.634106        98.8891 
 594   0.0000       3.656866        99.5084 
 595   0.0000       3.663698        99.6943 
 596   0.0000       3.674765        99.9954 
 597   0.0000       3.684507       100.2605 
 598   0.0000       3.697466       100.6132 
 599   0.0000       3.705789       100.8396 
 600   0.0000       3.718943       101.1976 
 601   0.0000       3.730991       101.5254 
 602   0.0000       3.774310       102.7042 
 603   0.0000       3.791842       103.1813 
 604   0.0000       3.851144       104.7949 
 605   0.0000       3.944910       107.3465 
 606   0.0000       3.970341       108.0385 
 607   0.0000       3.985649       108.4550 
 608   0.0000       4.017345       109.3175 
 609   0.0000       4.047117       110.1277 
 610   0.0000       4.054221       110.3210 
 611   0.0000       4.081119       111.0529 
 612   0.0000       4.154116       113.0392 
 613   0.0000       4.164933       113.3336 
 614   0.0000       4.204962       114.4228 
 615   0.0000       4.239550       115.3640 
 616   0.0000       4.340474       118.1103 
 617   0.0000       4.356613       118.5495 
 618   0.0000       4.451611       121.1345 
 619   0.0000       4.497025       122.3703 
 620   0.0000       4.521715       123.0421 
 621   0.0000       4.601519       125.2137 
 622   0.0000       4.640300       126.2690 
 623   0.0000      21.978650       598.0695 
 624   0.0000      22.017774       599.1341 
 625   0.0000      22.066583       600.4623 
 626   0.0000      22.096664       601.2808 
 627   0.0000      22.106498       601.5484 
 628   0.0000      22.178562       603.5094 
 629   0.0000      22.196526       603.9982 
 630   0.0000      22.217940       604.5809 
 631   0.0000      22.244424       605.3015 
 632   0.0000      22.255913       605.6142 
 633   0.0000      22.358260       608.3992 
 634   0.0000      22.375601       608.8711 
 635   0.0000      22.433625       610.4500 
 636   0.0000      22.495683       612.1386 
 637   0.0000      22.502048       612.3119 
 638   0.0000      31.949595       869.3927 
 639   0.0000      32.001208       870.7971 
 640   0.0000      32.244924       877.4290 
 641   0.0000      32.267207       878.0353 
 642   0.0000      32.454343       883.1276 
 643   0.0000      43.729865      1189.9501 
 644   0.0000      43.794521      1191.7095 
 645   0.0000      43.824394      1192.5224 
 646   0.0000      43.879067      1194.0101 
 647   0.0000      43.895407      1194.4548 
 648   0.0000      43.914255      1194.9676 

                    ********************************
                    * MULLIKEN POPULATION ANALYSIS *
                    ********************************

-----------------------
MULLIKEN ATOMIC CHARGES
-----------------------
   0 C :   -0.337237
   1 O :   -0.193352
   2 C :    0.195671
   3 O :   -0.504241
   4 C :   -0.115864
   5 C :    0.016443
   6 O :   -0.378632
   7 C :   -0.115913
   8 O :   -0.497896
   9 N :    0.317618
  10 C :   -0.493428
  11 C :   -0.239014
  12 C :    0.164583
  13 C :   -0.663655
  14 C :   -0.599303
  15 N :   -0.087148
  16 C :   -0.230613
  17 O :   -0.401468
  18 C :    0.443924
  19 N :   -0.183301
  20 N :   -0.290829
  21 C :    0.389072
  22 C :   -0.636472
  23 O :   -0.060593
  24 N :    0.046637
  25 C :   -0.425527
  26 H :    0.164706
  27 H :    0.165640
  28 H :    0.165679
  29 H :    0.354976
  30 H :    0.173498
  31 H :    0.176760
  32 H :    0.194383
  33 H :    0.168541
  34 H :    0.192335
  35 H :    0.193654
  36 H :    0.172565
  37 H :    0.185140
  38 H :    0.181687
  39 H :    0.312804
  40 H :    0.203463
  41 H :    0.200430
  42 H :    0.198016
  43 H :    0.154938
  44 H :    0.165828
  45 H :    0.155495
Sum of atomic charges:   -1.0000000

--------------------------------
MULLIKEN REDUCED ORBITAL CHARGES
--------------------------------
  0 C s       :     3.332678  s :     3.332678
      pz      :     1.097650  p :     2.958104
      px      :     0.935799
      py      :     0.924655
      dz2     :     0.010235  d :     0.046456
      dxz     :     0.006323
      dyz     :     0.006931
      dx2y2   :     0.011277
      dxy     :     0.011690
  1 O s       :     3.702277  s :     3.702277
[...]
      dxy     :     0.051931
  4 C s       :     2.768279  s :     2.768279
      pz      :     1.053100  p :     2.984340
      px      :     0.941429
      py      :     0.989811
      dz2     :     0.015265  d :     0.121391
      dxz     :     0.019100
      dyz     :     0.026220
      dx2y2   :     0.027216
      dxy     :     0.033590
  5 C s       :     2.774904  s :     2.774904
      pz      :     0.926826  p :     2.826304
      px      :     0.901383
      py      :     0.998095
      dz2     :     0.023425  d :     0.153861
      dxz     :     0.027790
      dyz     :     0.025530
      dx2y2   :     0.035516
      dxy     :     0.041600
  6 O s       :     3.484194  s :     3.484194
      pz      :     1.674287  p :     4.732764
      px      :     1.438202
      py      :     1.620274
      dz2     :     0.057212  d :     0.279398
      dxz     :     0.051405
      dyz     :     0.035740
      dx2y2   :     0.056112
      dxy     :     0.078929
  7 C s       :     2.709680  s :     2.709680
      pz      :     0.852894  p :     2.751184
      px      :     0.932655
      py      :     0.965635
      dz2     :     0.015587  d :     0.231392
      dxz     :     0.015624
      dyz     :     0.048116
      dx2y2   :     0.051805
      dxy     :     0.100260
  8 O s       :     3.562475  s :     3.562475
      pz      :     1.611833  p :     4.820988
      px      :     1.760337
      py      :     1.448818
      dz2     :     0.027265  d :     0.230986
      dxz     :     0.007117
      dyz     :     0.060747
      dx2y2   :     0.069831
      dxy     :     0.066026
  9 N s       :     3.087308  s :     3.087308
      pz      :     1.424708  p :     3.848400
      px      :     1.202227
      py      :     1.221466
      dz2     :     0.092036  d :     0.795470
      dxz     :     0.157063
      dyz     :     0.130133
      dx2y2   :     0.203589
      dxy     :     0.212650
 10 C s       :     2.878828  s :     2.878828
      pz      :     1.109899  p :     3.140588
      px      :     0.960450
      py      :     1.070239
      dz2     :     0.014231  d :     0.086923
      dxz     :     0.028431
      dyz     :     0.004756
      dx2y2   :     0.019557
      dxy     :     0.019947
 11 C s       :     2.741794  s :     2.741794
      pz      :     1.022384  p :     2.848415
      px      :     0.928898
      py      :     0.897134
      dz2     :     0.013648  d :     0.141322
      dxz     :     0.014194
      dyz     :     0.033810
      dx2y2   :     0.044038
      dxy     :     0.035630
 12 C s       :     2.792371  s :     2.792371
      pz      :     1.031050  p :     2.961002
      px      :     0.902569
      py      :     1.027384
      dz2     :     0.037315  d :     0.137003
      dxz     :     0.016711
      dyz     :     0.019786
      dx2y2   :     0.035628
      dxy     :     0.027564
 13 C s       :     2.959936  s :     2.959936
      pz      :     1.151968  p :     3.332489
      px      :     1.141994
      py      :     1.038527
      dz2     :     0.017618  d :     0.062710
      dxz     :     0.006111
      dyz     :     0.010705
      dx2y2   :     0.015256
      dxy     :     0.013020
 14 C s       :     2.963067  s :     2.963067
      pz      :     1.037167  p :     3.334633
      px      :     1.146927
      py      :     1.150539
      dz2     :     0.017933  d :     0.062449
      dxz     :     0.009367
      dyz     :     0.013639
      dx2y2   :     0.013467
      dxy     :     0.008043
 15 N s       :     3.107250  s :     3.107250
      pz      :     1.199990  p :     3.935775
      px      :     1.215390
      py      :     1.520395
      dz2     :     0.118063  d :     0.549548
      dxz     :     0.180137
      dyz     :     0.054103
      dx2y2   :     0.099636
      dxy     :     0.097609
 16 C s       :     2.712333  s :     2.712333
      pz      :     0.982831  p :     2.674406
      px      :     0.911503
      py      :     0.780072
      dz2     :     0.089738  d :     0.252272
      dxz     :     0.070921
      dyz     :     0.053394
      dx2y2   :     0.024310
      dxy     :     0.013911
 17 O s       :     3.546823  s :     3.546823
      pz      :     1.519154  p :     4.685151
      px      :     1.683615
      py      :     1.482383
      dz2     :     0.072317  d :     0.228859
      dxz     :     0.065316
      dyz     :     0.041764
      dx2y2   :     0.023683
      dxy     :     0.025779
 18 C s       :     2.726837  s :     2.726837
      pz      :     0.880310  p :     2.680730
      px      :     0.958576
      py      :     0.841843
      dz2     :     0.056643  d :     0.178522
      dxz     :     0.061598
      dyz     :     0.029366
      dx2y2   :     0.017985
      dxy     :     0.012929
 19 N s       :     3.178706  s :     3.178706
      pz      :     1.433105  p :     3.628959
      px      :     1.089102
      py      :     1.106752
      dz2     :     0.109719  d :     0.538145
      dxz     :     0.149722
      dyz     :     0.038963
      dx2y2   :     0.113797
      dxy     :     0.125944
 20 N s       :     3.180822  s :     3.180822
      pz      :     1.214117  p :     3.661014
      px      :     1.305100
      py      :     1.141797
      dz2     :     0.134498  d :     0.527281
      dxz     :     0.167362
      dyz     :     0.082671
      dx2y2   :     0.070969
      dxy     :     0.071782
 21 C s       :     2.734007  s :     2.734007
      pz      :     1.025660  p :     2.704110
      px      :     0.876649
      py      :     0.801802
      dz2     :     0.052602  d :     0.189210
      dxz     :     0.059542
      dyz     :     0.024895
      dx2y2   :     0.030044
      dxy     :     0.022126
 22 C s       :     2.946080  s :     2.946080
      pz      :     1.081658  p :     3.313886
      px      :     1.078167
      py      :     1.154061
      dz2     :     0.003603  d :     0.059203
      dxz     :     0.019130
      dyz     :     0.017559
      dx2y2   :     0.015439
      dxy     :     0.003473
 23 O s       :     3.436222  s :     3.436222
      pz      :     1.539357  p :     4.505831
      px      :     1.356146
      py      :     1.610328
      dz2     :     0.097849  d :     0.454654
      dxz     :     0.127231
      dyz     :     0.052395
      dx2y2   :     0.087493
      dxy     :     0.089686
 24 N s       :     3.139955  s :     3.139955
      pz      :     1.172473  p :     3.950993
      px      :     1.170355
      py      :     1.608165
      dz2     :     0.220956  d :     0.778404
      dxz     :     0.203701
      dyz     :     0.109074
      dx2y2   :     0.136703
      dxy     :     0.107971
 25 C s       :     2.901145  s :     2.901145
      pz      :     0.952544  p :     3.149412
      px      :     1.103864
      py      :     1.093003
      dz2     :     0.023850  d :     0.090089
      dxz     :     0.020669
      dyz     :     0.019002
      dx2y2   :     0.017043
      dxy     :     0.009525
 26 H s       :     0.785806  s :     0.785806
      pz      :     0.027874  p :     0.040851
      px      :     0.006637
      py      :     0.006340
 27 H s       :     0.781132  s :     0.781132
      pz      :     0.010912  p :     0.040092
      px      :     0.008378
      py      :     0.020801
 28 H s       :     0.784494  s :     0.784494
      pz      :     0.010250  p :     0.040992
      px      :     0.022930
      py      :     0.007812
 29 H s       :     0.563529  s :     0.563529
      pz      :     0.025533  p :     0.134218
      px      :     0.043882
      py      :     0.064803
 30 H s       :     0.773860  s :     0.773860
      pz      :     0.022378  p :     0.041334
      px      :     0.010786
      py      :     0.008171
 31 H s       :     0.772451  s :     0.772451
      pz      :     0.019452  p :     0.042333
      px      :     0.012122
      py      :     0.010758
 32 H s       :     0.752747  s :     0.752747
      pz      :     0.008474  p :     0.045991
      px      :     0.010128
      py      :     0.027389
 33 H s       :     0.798483  s :     0.798483
      pz      :     0.012536  p :     0.043655
      px      :     0.015980
      py      :     0.015139
 34 H s       :     0.774366  s :     0.774366
      pz      :     0.008878  p :     0.045867
      px      :     0.028266
      py      :     0.008723
 35 H s       :     0.778717  s :     0.778717
      pz      :     0.028514  p :     0.044870
      px      :     0.008588
      py      :     0.007768
 36 H s       :     0.792522  s :     0.792522
      pz      :     0.013455  p :     0.044595
      px      :     0.014501
      py      :     0.016639
 37 H s       :     0.783322  s :     0.783322
      pz      :     0.008322  p :     0.044340
      px      :     0.027195
      py      :     0.008823
 38 H s       :     0.786661  s :     0.786661
      pz      :     0.009860  p :     0.044229
      px      :     0.009074
      py      :     0.025295
 39 H s       :     0.615951  s :     0.615951
      pz      :     0.039321  p :     0.089105
      px      :     0.027183
      py      :     0.022601
 40 H s       :     0.765726  s :     0.765726
      pz      :     0.011131  p :     0.044241
      px      :     0.025150
      py      :     0.007960
 41 H s       :     0.764446  s :     0.764446
      pz      :     0.013189  p :     0.044664
      px      :     0.008032
      py      :     0.023443
 42 H s       :     0.765471  s :     0.765471
      pz      :     0.016772  p :     0.044607
      px      :     0.007341
      py      :     0.020494
 43 H s       :     0.798099  s :     0.798099
      pz      :     0.007110  p :     0.041812
      px      :     0.008170
      py      :     0.026532
 44 H s       :     0.781647  s :     0.781647
      pz      :     0.011393  p :     0.040774
      px      :     0.020251
      py      :     0.009130
 45 H s       :     0.788285  s :     0.788285
      pz      :     0.007427  p :     0.040535
      px      :     0.020452
      py      :     0.012656


                      *****************************
                      * MAYER POPULATION ANALYSIS *
                      *****************************

  NA   - Mulliken gross atomic population
  ZA   - Total nuclear charge
  QA   - Mulliken gross atomic charge
  VA   - Mayer's total valence
  BVA  - Mayer's bonded valence
  FA   - Mayer's free valence

  ATOM       NA         ZA         QA         VA         BVA        FA
  0 C      6.3372     6.0000    -0.3372     3.8039     3.8039    -0.0000
  1 O      8.1934     8.0000    -0.1934     2.0053     2.0053     0.0000
  2 C      5.8043     6.0000     0.1957     4.0613     4.0613    -0.0000
  3 O      8.5042     8.0000    -0.5042     1.9101     1.9101     0.0000
  4 C      6.1159     6.0000    -0.1159     3.3041     3.3041    -0.0000
  5 C      5.9836     6.0000     0.0164     3.6363     3.6363     0.0000
  6 O      8.3786     8.0000    -0.3786     1.9782     1.9782     0.0000
  7 C      6.1159     6.0000    -0.1159     4.3135     4.3135     0.0000
  8 O      8.4979     8.0000    -0.4979     1.9613     1.9613    -0.0000
  9 N      6.6824     7.0000     0.3176     3.2224     3.2224     0.0000
 10 C      6.4934     6.0000    -0.4934     3.7727     3.7727     0.0000
 11 C      6.2390     6.0000    -0.2390     3.5092     3.5092    -0.0000
 12 C      5.8354     6.0000     0.1646     3.4356     3.4356    -0.0000
 13 C      6.6637     6.0000    -0.6637     3.7502     3.7502    -0.0000
 14 C      6.5993     6.0000    -0.5993     3.6799     3.6799    -0.0000
 15 N      7.0871     7.0000    -0.0871     2.9688     2.9688    -0.0000
 16 C      6.2306     6.0000    -0.2306     4.0706     4.0706    -0.0000
 17 O      8.4015     8.0000    -0.4015     2.0363     2.0363    -0.0000
 18 C      5.5561     6.0000     0.4439     3.5926     3.5926    -0.0000
 19 N      7.1833     7.0000    -0.1833     3.1880     3.1880     0.0000
 20 N      7.2908     7.0000    -0.2908     3.1229     3.1229    -0.0000
 21 C      5.6109     6.0000     0.3891     3.6033     3.6033    -0.0000
 22 C      6.6365     6.0000    -0.6365     3.8095     3.8095     0.0000
 23 O      8.0606     8.0000    -0.0606     2.3038     2.3038     0.0000
 24 N      6.9534     7.0000     0.0466     2.8088     2.8088    -0.0000
 25 C      6.4255     6.0000    -0.4255     3.7985     3.7985    -0.0000
 26 H      0.8353     1.0000     0.1647     0.9513     0.9513    -0.0000
 27 H      0.8344     1.0000     0.1656     0.9533     0.9533     0.0000
 28 H      0.8343     1.0000     0.1657     0.9516     0.9516    -0.0000
 29 H      0.6450     1.0000     0.3550     0.8968     0.8968     0.0000
 30 H      0.8265     1.0000     0.1735     0.9500     0.9500    -0.0000
 31 H      0.8232     1.0000     0.1768     0.9483     0.9483     0.0000
 32 H      0.8056     1.0000     0.1944     0.9565     0.9565     0.0000
 33 H      0.8315     1.0000     0.1685     0.9553     0.9553    -0.0000
 34 H      0.8077     1.0000     0.1923     0.9524     0.9524    -0.0000
 35 H      0.8063     1.0000     0.1937     0.9506     0.9506    -0.0000
 36 H      0.8274     1.0000     0.1726     0.9560     0.9560    -0.0000
 37 H      0.8149     1.0000     0.1851     0.9554     0.9554    -0.0000
 38 H      0.8183     1.0000     0.1817     0.9542     0.9542    -0.0000
 39 H      0.6872     1.0000     0.3128     0.8937     0.8937     0.0000
 40 H      0.7965     1.0000     0.2035     0.9484     0.9484    -0.0000
 41 H      0.7996     1.0000     0.2004     0.9442     0.9442     0.0000
 42 H      0.8020     1.0000     0.1980     0.9455     0.9455     0.0000
 43 H      0.8451     1.0000     0.1549     0.9615     0.9615     0.0000
 44 H      0.8342     1.0000     0.1658     0.9558     0.9558    -0.0000
 45 H      0.8445     1.0000     0.1555     0.9603     0.9603    -0.0000

  Mayer bond orders larger than 0.100000
B(  0-C ,  1-O ) :   0.8421 B(  0-C , 26-H ) :   0.9625 B(  0-C , 27-H ) :   0.9659 
B(  0-C , 28-H ) :   0.9628 B(  1-O ,  2-C ) :   1.0905 B(  2-C ,  3-O ) :   1.6582 
B(  2-C ,  4-C ) :   1.2750 B(  3-O , 29-H ) :   0.1017 B(  4-C ,  5-C ) :   1.2089 
B(  4-C , 11-C ) :   0.1228 B(  4-C , 24-N ) :   0.7353 B(  5-C ,  6-O ) :   1.1036 
B(  5-C ,  7-C ) :   1.1503 B(  5-C , 11-C ) :   0.1369 B(  6-O , 29-H ) :   0.7734 
B(  7-C ,  8-O ) :   1.8912 B(  7-C ,  9-N ) :   1.0398 B(  7-C , 11-C ) :   0.1005 
B(  9-N , 10-C ) :   0.8620 B(  9-N , 11-C ) :   1.1138 B( 10-C , 30-H ) :   0.9520 
B( 10-C , 31-H ) :   0.9377 B( 10-C , 32-H ) :   0.9532 B( 11-C , 12-C ) :   0.8510 
B( 11-C , 24-N ) :   1.1130 B( 12-C , 13-C ) :   0.8443 B( 12-C , 14-C ) :   0.8699 
B( 12-C , 15-N ) :   0.8211 B( 12-C , 24-N ) :  -0.1124 B( 13-C , 33-H ) :   0.9745 
B( 13-C , 34-H ) :   0.9575 B( 13-C , 35-H ) :   0.9861 B( 14-C , 36-H ) :   0.9729 
B( 14-C , 37-H ) :   0.9732 B( 14-C , 38-H ) :   0.9676 B( 15-N , 16-C ) :   1.1683 
B( 15-N , 39-H ) :   0.8924 B( 16-C , 17-O ) :   1.9717 B( 16-C , 18-C ) :   0.7302 
B( 17-O , 18-C ) :  -0.1303 B( 18-C , 19-N ) :   1.7307 B( 18-C , 21-C ) :   0.1142 
B( 18-C , 23-O ) :   1.0764 B( 19-N , 20-N ) :   1.2712 B( 20-N , 21-C ) :   1.6410 
B( 21-C , 22-C ) :   0.8248 B( 21-C , 23-O ) :   1.0643 B( 22-C , 40-H ) :   0.9914 
B( 22-C , 41-H ) :   0.9406 B( 22-C , 42-H ) :   0.9471 B( 24-N , 25-C ) :   0.8722 
B( 25-C , 43-H ) :   0.9637 B( 25-C , 44-H ) :   0.9736 B( 25-C , 45-H ) :   0.9654 


-------
TIMINGS
-------

Total SCF time: 0 days 0 hours 2 min 11 sec 

Total time                  ....     132.000 sec
Sum of individual times     ....     130.279 sec  ( 98.7%)

Fock matrix formation       ....     122.520 sec  ( 92.8%)
  Split-RI-J                ....      19.865 sec  ( 16.2% of F)
  XC integration            ....      55.851 sec  ( 45.6% of F)
    Basis function eval.    ....       8.541 sec  ( 15.3% of XC)
    Density eval.           ....      22.024 sec  ( 39.4% of XC)
    XC-Functional eval.     ....       4.896 sec  (  8.8% of XC)
    XC-Potential eval.      ....      18.258 sec  ( 32.7% of XC)
Diagonalization             ....       1.062 sec  (  0.8%)
Density matrix formation    ....       0.102 sec  (  0.1%)
Population analysis         ....       0.125 sec  (  0.1%)
Initial guess               ....       1.506 sec  (  1.1%)
Orbital Transformation      ....       0.000 sec  (  0.0%)
Orbital Orthonormalization  ....       0.000 sec  (  0.0%)
DIIS solution               ....       0.423 sec  (  0.3%)
SOSCF solution              ....       1.205 sec  (  0.9%)
Grid generation             ....       3.335 sec  (  2.5%)

Maximum memory used throughout the entire SCF-calculation: 163.5 MB


-------------------------------------------------------------------------------
                          DFT DISPERSION CORRECTION                            
                                                                               
                                 DFTD4 V2.5                                    
-------------------------------------------------------------------------------
The R2SCAN3C composite method is recognized
Using three-body term ABC
Active option DFTDOPT                   ...         5   

Starting D4
-------------------------   ----------------
Dispersion correction           -0.022785618
-------------------------   ----------------

------------------   -----------------
gCP correction             0.045126486
------------------   -----------------

-------------------------   --------------------
FINAL SINGLE POINT ENERGY     -1308.584632067311
-------------------------   --------------------


                            ***************************************
                            *     ORCA property calculations      *
                            ***************************************

                                    ---------------------
                                    Active property flags
                                    ---------------------
   (+) Dipole Moment


------------------------------------------------------------------------------
                       ORCA ELECTRIC PROPERTIES CALCULATION
------------------------------------------------------------------------------

Dipole Moment Calculation                       ... on
Quadrupole Moment Calculation                   ... off
Polarizability Calculation                      ... off
GBWName                                         ... /lustre/hpc/kemi/ree/PhD/git/ReactivityQM/calculations/R03/reac02prodE05/conf09/gfn1/orca_calc.gbw
Electron density                                ... /lustre/hpc/kemi/ree/PhD/git/ReactivityQM/calculations/R03/reac02prodE05/conf09/gfn1/orca_calc.scfp
The origin for moment calculation is the CENTER OF MASS  = (-0.027657, -0.419501  0.307612)

-------------
DIPOLE MOMENT
-------------
                                X             Y             Z
Electronic contribution:      5.13829      -6.48649       4.60646
Nuclear contribution   :     -0.60909       9.77060      -7.55411
                        -----------------------------------------
Total Dipole Moment    :      4.52920       3.28411      -2.94765
                        -----------------------------------------
Magnitude (a.u.)       :      6.32358
Magnitude (Debye)      :     16.07326



--------------------
Rotational spectrum 
--------------------
 
Rotational constants in cm-1:     0.014364     0.003597     0.003272 
Rotational constants in MHz :   430.609656   107.833010    98.095594 

 Dipole components along the rotational axes: 
x,y,z [a.u.] :    -4.094177    -2.926636     3.828862 
x,y,z [Debye]:   -10.406571    -7.438917     9.732195 

 

Timings for individual modules:

Sum of individual times         ...      133.028 sec (=   2.217 min)
GTO integral calculation        ...        0.814 sec (=   0.014 min)   0.6 %
SCF iterations                  ...      132.214 sec (=   2.204 min)  99.4 %
                             ****ORCA TERMINATED NORMALLY****
TOTAL RUN TIME: 0 days 0 hours 2 minutes 13 seconds 882 msec
