      -----------------------------------------------------------      
     |                   =====================                   |     
     |                           x T B                           |     
     |                   =====================                   |     
     |                         S. Grimme                         |     
     |          Mulliken Center for Theoretical Chemistry        |     
     |                    University of Bonn                     |     
      -----------------------------------------------------------      

   * xtb version 6.5.1 (579679a) compiled by 'ehlert@majestix' on 2022-07-11

   xtb is free software: you can redistribute it and/or modify it under
   the terms of the GNU Lesser General Public License as published by
   the Free Software Foundation, either version 3 of the License, or
   (at your option) any later version.
   
   xtb is distributed in the hope that it will be useful,
   but WITHOUT ANY WARRANTY; without even the implied warranty of
   MERCHANTABILITY or FITNESS FOR A PARTICULAR PURPOSE.  See the
   GNU Lesser General Public License for more details.
   
   Cite this work as:
   * C. Bannwarth, E. Caldeweyher, S. Ehlert, A. Hansen, P. Pracht,
     J. Seibert, S. Spicher, S. Grimme, WIREs Comput. Mol. Sci., 2020, 11,
     e01493. DOI: 10.1002/wcms.1493
   
   for GFN2-xTB:
   * C. Bannwarth, S. Ehlert and S. Grimme., J. Chem. Theory Comput., 2019,
     15, 1652-1671. DOI: 10.1021/acs.jctc.8b01176
   for GFN1-xTB:
   * S. Grimme, C. Bannwarth, P. Shushkov, J. Chem. Theory Comput., 2017,
     13, 1989-2009. DOI: 10.1021/acs.jctc.7b00118
   for GFN0-xTB:
   * P. Pracht, E. Caldeweyher, S. Ehlert, S. Grimme, ChemRxiv, 2019, preprint.
     DOI: 10.26434/chemrxiv.8326202.v1
   for GFN-FF:
   * S. Spicher and S. Grimme, Angew. Chem. Int. Ed., 2020, 59, 15665-15673.
     DOI: 10.1002/anie.202004239
   
   for ALPB and GBSA implicit solvation:
   * S. Ehlert, M. Stahn, S. Spicher, S. Grimme, J. Chem. Theory Comput.,
     2021, 17, 4250-4261. DOI: 10.1021/acs.jctc.1c00471
   
   for DFT-D4:
   * E. Caldeweyher, C. Bannwarth and S. Grimme, J. Chem. Phys., 2017,
     147, 034112. DOI: 10.1063/1.4993215
   * E. Caldeweyher, S. Ehlert, A. Hansen, H. Neugebauer, S. Spicher,
     C. Bannwarth and S. Grimme, J. Chem. Phys., 2019, 150, 154122.
     DOI: 10.1063/1.5090222
   * E. Caldeweyher, J.-M. Mewes, S. Ehlert and S. Grimme, Phys. Chem. Chem. Phys.
     2020, 22, 8499-8512. DOI: 10.1039/D0CP00502A
   
   for sTDA-xTB:
   * S. Grimme and C. Bannwarth, J. Chem. Phys., 2016, 145, 054103.
     DOI: 10.1063/1.4959605
   
   in the mass-spec context:
   * V. Asgeirsson, C. Bauer and S. Grimme, Chem. Sci., 2017, 8, 4879.
     DOI: 10.1039/c7sc00601b
   * J. Koopman and S. Grimme, ACS Omega 2019, 4, 12, 15120-15133.
     DOI: 10.1021/acsomega.9b02011
   
   for metadynamics refer to:
   * S. Grimme, J. Chem. Theory Comput., 2019, 155, 2847-2862
     DOI: 10.1021/acs.jctc.9b00143
   
   for SPH calculations refer to:
   * S. Spicher and S. Grimme, J. Chem. Theory Comput., 2021, 17, 1701-1714
     DOI: 10.1021/acs.jctc.0c01306
   
   with help from (in alphabetical order)
   P. Atkinson, C. Bannwarth, F. Bohle, G. Brandenburg, E. Caldeweyher
   M. Checinski, S. Dohm, S. Ehlert, S. Ehrlich, I. Gerasimov, C. Hölzer
   A. Katbashev, J. Koopman, C. Lavigne, S. Lehtola, F. März, M. Müller,
   F. Musil, H. Neugebauer, J. Pisarek, C. Plett, P. Pracht, F. Pultar,
   J. Seibert, P. Shushkov, S. Spicher, M. Stahn, M. Steiner, T. Strunk,
   J. Stückrath, T. Rose, and J. Unsleber
   
 * started run on 2023/06/21 at 17:18:11.097     

           -------------------------------------------------
          |                Calculation Setup                |
           -------------------------------------------------

          program call               : /lustre/hpc/kemi/ree/PhD/git/ReactivityQM/dep/xtb-6.5.1/bin/xtb --gfn 1 /lustre/hpc/kemi/ree/PhD/git/ReactivityQM/calculations/R02oxygendeprot/reac01prodN02/conf07/R02oxygendeprot_reac01prodN02_conf07_gfn1.xyz --opt --vfukui --chrg 0 --uhf 0 --alpb DMSO
          hostname                   : node070
          coordinate file            : /lustre/hpc/kemi/ree/PhD/git/ReactivityQM/calculations/R02oxygendeprot/reac01prodN02/conf07/R02oxygendeprot_reac01prodN02_conf07_gfn1.xyz
          omp threads                :                     1

   ID    Z sym.   atoms
    1    6 C      1, 3, 5, 7-10, 12, 14, 15, 18, 19, 22, 24
    2    8 O      2, 4, 13, 20, 23, 25
    3    7 N      6, 11, 16, 17, 21
    4    1 H      26-42

           -------------------------------------------------
          |                 G F N 1 - x T B                 |
           -------------------------------------------------

        Reference                      10.1021/acs.jctc.7b00118
      * Hamiltonian:
        H0-scaling (s, p, d)           1.850000    2.250000    2.000000
        zeta-weighting                 0.000000
      * Dispersion:
        s8                             2.400000
        a1                             0.630000
        a2                             5.000000
        s9                             0.000000
      * Repulsion:
        kExp                           1.500000
        rExp                           1.000000
      * Coulomb:
        alpha                          2.000000
        third order                    atomic
        anisotropic                    false
      * Halogen bond correction:
        rad-scale                      1.300000
        damping                        0.440000

      * Solvation model:               ALPB
        Solvent                        DMSO
        Parameter file                 internal GFN1-xTB/ALPB
        Dielectric constant                4.6680E+01
        Reference state                gsolv [1 M gas/solution]
        Free energy shift                  7.6243E-03 Eh       4.7843E+00 kcal/mol
        Temperature                        2.9815E+02 K
        Density                            1.1000E+00 kg/L
        Solvent mass                       7.8130E+01 g/mol
        Interaction kernel             P16
        Born radius scaling (c1)           1.7672E+00
        Born radii integrator          GBOBC
        Born offset                        0.0000E+00 a0       0.0000E+00 AA
        H-bond correction              true
        Ion screening                  false
        Surface tension                    1.0000E-05 Eh       1.5569E+01 dyn/cm
        Grid points                               230 per atom

          ...................................................
          :                      SETUP                      :
          :.................................................:
          :  # basis functions                 134          :
          :  # atomic orbitals                 134          :
          :  # shells                           84          :
          :  # electrons                       134          :
          :  # halogen bonds                     0          :
          :  max. iterations                   250          :
          :  Hamiltonian                  GFN1-xTB          :
          :  restarted?                      false          :
          :  GBSA solvation                   true          :
          :  PC potential                    false          :
          :  electronic temp.          300.0000000     K    :
          :  accuracy                    1.0000000          :
          :  -> integral cutoff          0.2500000E+02      :
          :  -> integral neglect         0.1000000E-07      :
          :  -> SCF convergence          0.1000000E-05 Eh   :
          :  -> wf. convergence          0.2000000E-04 e    :
          :  Broyden damping             0.4000000          :
          ...................................................

 iter      E             dE          RMSdq      gap      omega  full diag
   1    -83.2965323 -0.832965E+02  0.850E+00    2.57       0.0  T
   2    -83.6652062 -0.368674E+00  0.510E+00    0.49       1.0  T
   3    -83.3329868  0.332219E+00  0.241E+00    0.47       1.0  T
   4    -83.5986802 -0.265693E+00  0.132E+00    2.44       1.0  T
   5    -83.6769222 -0.782420E-01  0.590E-01    1.54       1.0  T
   6    -83.6850444 -0.812228E-02  0.401E-01    0.85       1.0  T
   7    -83.6905276 -0.548319E-02  0.252E-01    0.28       1.0  T
   8    -83.3691202  0.321407E+00  0.165E+00    0.34       1.0  T
   9    -83.6908450 -0.321725E+00  0.245E-01    0.25       1.0  T
  10    -83.6898040  0.104096E-02  0.266E-01    0.31       1.0  T
  11    -83.6911493 -0.134526E-02  0.233E-01    0.24       1.0  T
  12    -83.6948806 -0.373134E-02  0.138E-01    0.15       1.0  T
  13    -83.6971405 -0.225993E-02  0.242E-03    0.10       6.4  T
  14    -83.6970299  0.110663E-03  0.303E-02    0.11       1.0  T
  15    -83.6971207 -0.908494E-04  0.128E-02    0.10       1.2  T
  16    -83.6971392 -0.184350E-04  0.366E-03    0.10       4.2  T
  17    -83.6971404 -0.121148E-05  0.182E-03    0.10       8.5  T
  18    -83.6971407 -0.304918E-06  0.904E-04    0.10      17.1  T
  19    -83.6971408 -0.995753E-07  0.228E-05    0.10     675.9  T
  20    -83.6971408  0.613596E-09  0.744E-05    0.10     207.4  T

   *** convergence criteria satisfied after 20 iterations ***

         #    Occupation            Energy/Eh            Energy/eV
      -------------------------------------------------------------
         1        2.0000           -0.8847367             -24.0749
       ...           ...                  ...                  ...
        61        2.0000           -0.4736300             -12.8881
        62        2.0000           -0.4693353             -12.7713
        63        2.0000           -0.4675007             -12.7213
        64        2.0000           -0.4557223             -12.4008
        65        2.0000           -0.4446725             -12.1002
        66        2.0000           -0.3979930             -10.8299
        67        1.7558           -0.3826314             -10.4119 (HOMO)
        68        0.2442           -0.3788833             -10.3099 (LUMO)
        69                         -0.2916738              -7.9368
        70                         -0.2861070              -7.7854
        71                         -0.2673659              -7.2754
        72                         -0.2508542              -6.8261
       ...                                ...                  ...
       134                          0.7925327              21.5659
      -------------------------------------------------------------
                  HL-Gap            0.0037481 Eh            0.1020 eV
             Fermi-level           -0.3807573 Eh          -10.3609 eV

 SCC (total)                   0 d,  0 h,  0 min,  0.215 sec
 SCC setup                      ...        0 min,  0.002 sec (  0.821%)
 Dispersion                     ...        0 min,  0.000 sec (  0.139%)
 classical contributions        ...        0 min,  0.000 sec (  0.045%)
 integral evaluation            ...        0 min,  0.033 sec ( 15.451%)
 iterations                     ...        0 min,  0.115 sec ( 53.682%)
 molecular gradient             ...        0 min,  0.063 sec ( 29.169%)
 printout                       ...        0 min,  0.001 sec (  0.676%)

         :::::::::::::::::::::::::::::::::::::::::::::::::::::
         ::                     SUMMARY                     ::
         :::::::::::::::::::::::::::::::::::::::::::::::::::::
         :: total energy             -82.941650744861 Eh    ::
         :: total w/o Gsasa/hb       -82.919742660591 Eh    ::
         :: gradient norm              0.137456896979 Eh/a0 ::
         :: HOMO-LUMO gap              0.101991136017 eV    ::
         ::.................................................::
         :: SCC energy               -83.697140770008 Eh    ::
         :: -> electrostatic           0.402340070183 Eh    ::
         :: -> Gsolv                  -0.095071824249 Eh    ::
         ::    -> Gelec               -0.073163739978 Eh    ::
         ::    -> Gsasa               -0.025109081078 Eh    ::
         ::    -> Ghb                 -0.004423282198 Eh    ::
         ::    -> Gshift               0.007624279005 Eh    ::
         :: repulsion energy           0.781006023338 Eh    ::
         :: dispersion energy         -0.025515998191 Eh    ::
         :: halogen bond corr.         0.000000000000 Eh    ::
         :: add. restraining           0.000000000000 Eh    ::
         :: total charge               0.000000000001 e     ::
         :::::::::::::::::::::::::::::::::::::::::::::::::::::

      ----------------------------------------------------------- 
     |                   =====================                   |
     |                        A N C O P T                        |
     |                   =====================                   |
     |               Approximate Normal Coordinate               |
     |                Rational Function Optimizer                |
      ----------------------------------------------------------- 

          ...................................................
          :                      SETUP                      :
          :.................................................:
          :   optimization level            normal          :
          :   max. optcycles                   200          :
          :   ANC micro-cycles                  20          :
          :   degrees of freedom               120          :
          :.................................................:
          :   RF solver                   davidson          :
          :   write xtbopt.log                true          :
          :   linear?                        false          :
          :   energy convergence         0.5000000E-05 Eh   :
          :   grad. convergence          0.1000000E-02 Eh/α :
          :   maximium RF displ.         1.0000000          :
          :   Hlow (freq-cutoff)         0.1000000E-01      :
          :   Hmax (freq-cutoff)         5.0000000          :
          :   S6 in model hess.         20.0000000          :
          ...................................................

generating ANC from model Hessian ...
Using Lindh-Hessian (1995)
 Shifting diagonal of input Hessian by   9.827280829121003E-003
 Lowest  eigenvalues of input Hessian
    0.000000    0.000000    0.000000    0.000000    0.000000    0.000000
    0.010000    0.010234    0.010300    0.010817    0.012010    0.012316
    0.012578    0.013084    0.013215    0.014500    0.014872    0.015416
 Highest eigenvalues
    2.034768    2.095789    2.132945    2.234241    2.357773    2.455493
 

........................................................................
.............................. CYCLE    1 ..............................
........................................................................
   1    -83.6971408 -0.836971E+02  0.166E-05    0.10       0.0  T
   2    -83.6971408  0.249167E-08  0.144E-04    0.10     107.1  T
   3    -83.6971408 -0.252545E-08  0.113E-06    0.10   13700.1  T
     SCC iter.                  ...        0 min,  0.018 sec
     gradient                   ...        0 min,  0.063 sec
 * total energy  :   -82.9416507 Eh     change       -0.6688623E-09 Eh
   gradient norm :     0.1374653 Eh/α   predicted     0.0000000E+00 (-100.00%)
   displ. norm   :     0.3491654 α      lambda       -0.2332773E-01
   maximum displ.:     0.1426456 α      in ANC's #23, #22, #31, ...

........................................................................
.............................. CYCLE    2 ..............................
........................................................................
   1    -83.7146093 -0.837146E+02  0.232E-01    0.48       0.0  T
   2    -83.4307324  0.283877E+00  0.155E+00    0.11       1.0  T
   3    -83.7168625 -0.286130E+00  0.189E-01    0.35       1.0  T
   4    -83.7172113 -0.348803E-03  0.167E-01    0.30       1.0  T
   5    -83.7187416 -0.153021E-02  0.115E-01    0.20       1.0  T
   6    -83.7202182 -0.147663E-02  0.171E-02    0.12       1.0  T
   7    -83.7202532 -0.349926E-04  0.265E-03    0.13       5.8  T
   8    -83.7202489  0.425644E-05  0.625E-03    0.13       2.5  T
   9    -83.7202533 -0.442558E-05  0.272E-04    0.13      56.7  T
  10    -83.7202531  0.222792E-06  0.140E-03    0.13      11.1  T
  11    -83.7202533 -0.223553E-06  0.810E-05    0.13     190.5  T
  12    -83.7202533  0.545654E-09  0.919E-05    0.13     167.9  T
     SCC iter.                  ...        0 min,  0.068 sec
     gradient                   ...        0 min,  0.061 sec
 * total energy  :   -82.9593707 Eh     change       -0.1771992E-01 Eh
   gradient norm :     0.0792408 Eh/α   predicted    -0.1310986E-01 ( -26.02%)
   displ. norm   :     0.3843437 α      lambda       -0.1348822E-01
   maximum displ.:     0.1491407 α      in ANC's #23, #22, #21, ...

........................................................................
.............................. CYCLE    3 ..............................
........................................................................
   1    -83.7382428 -0.837382E+02  0.177E-01    0.60       0.0  T
   2    -83.7406160 -0.237324E-02  0.860E-02    0.19       1.0  T
   3    -83.7408839 -0.267897E-03  0.306E-02    0.21       1.0  T
   4    -83.7403917  0.492252E-03  0.712E-02    0.15       1.0  T
   5    -83.7409241 -0.532437E-03  0.135E-02    0.20       1.1  T
   6    -83.7409249 -0.732879E-06  0.489E-03    0.19       3.2  T
   7    -83.7409261 -0.123874E-05  0.996E-04    0.19      15.5  T
   8    -83.7409260  0.734787E-07  0.112E-03    0.19      13.8  T
   9    -83.7409261 -0.109709E-06  0.345E-04    0.19      44.7  T
  10    -83.7409261 -0.110127E-07  0.617E-05    0.19     250.1  T
  11    -83.7409261 -0.196849E-09  0.343E-05    0.19     449.9  T
     SCC iter.                  ...        0 min,  0.064 sec
     gradient                   ...        0 min,  0.062 sec
 * total energy  :   -82.9670334 Eh     change       -0.7662702E-02 Eh
   gradient norm :     0.0254738 Eh/α   predicted    -0.7742589E-02 (   1.04%)
   displ. norm   :     0.2598529 α      lambda       -0.1941946E-02
   maximum displ.:     0.1085243 α      in ANC's #5, #22, #23, ...

........................................................................
.............................. CYCLE    4 ..............................
........................................................................
   1    -83.7408402 -0.837408E+02  0.406E-02    0.25       0.0  T
   2    -83.7407579  0.823447E-04  0.446E-02    0.17       1.0  T
   3    -83.7409591 -0.201217E-03  0.138E-02    0.22       1.1  T
   4    -83.7409728 -0.137551E-04  0.516E-03    0.21       3.0  T
   5    -83.7409734 -0.557093E-06  0.274E-03    0.20       5.6  T
   6    -83.7409741 -0.752429E-06  0.314E-04    0.21      49.2  T
   7    -83.7409741 -0.822425E-09  0.141E-04    0.21     109.2  T
   8    -83.7409741 -0.822766E-09  0.505E-05    0.21     305.8  T
     SCC iter.                  ...        0 min,  0.044 sec
     gradient                   ...        0 min,  0.062 sec
 * total energy  :   -82.9685074 Eh     change       -0.1474072E-02 Eh
   gradient norm :     0.0146846 Eh/α   predicted    -0.1036671E-02 ( -29.67%)
   displ. norm   :     0.3571290 α      lambda       -0.1491413E-02
   maximum displ.:     0.1620961 α      in ANC's #5, #12, #8, ...

........................................................................
.............................. CYCLE    5 ..............................
........................................................................
   1    -83.7412235 -0.837412E+02  0.299E-02    0.24       0.0  T
   2    -83.7412403 -0.167972E-04  0.181E-02    0.20       1.0  T
   3    -83.7412678 -0.275476E-04  0.878E-03    0.23       1.8  T
   4    -83.7412726 -0.475705E-05  0.337E-03    0.22       4.6  T
   5    -83.7412727 -0.765001E-07  0.861E-04    0.22      17.9  T
   6    -83.7412727 -0.181525E-07  0.195E-04    0.22      79.2  T
   7    -83.7412727 -0.162679E-08  0.723E-05    0.22     213.4  T
     SCC iter.                  ...        0 min,  0.040 sec
     gradient                   ...        0 min,  0.060 sec
 * total energy  :   -82.9694889 Eh     change       -0.9814601E-03 Eh
   gradient norm :     0.0082617 Eh/α   predicted    -0.8408389E-03 ( -14.33%)
   displ. norm   :     0.2730142 α      lambda       -0.5155607E-03
   maximum displ.:     0.1310971 α      in ANC's #5, #12, #8, ...

........................................................................
.............................. CYCLE    6 ..............................
........................................................................
   1    -83.7431667 -0.837432E+02  0.132E-02    0.23       0.0  T
   2    -83.7431714 -0.473564E-05  0.827E-03    0.22       1.9  T
   3    -83.7431768 -0.536841E-05  0.330E-03    0.23       4.7  T
   4    -83.7431773 -0.508712E-06  0.151E-03    0.22      10.2  T
   5    -83.7431773 -0.731943E-08  0.472E-04    0.22      32.7  T
   6    -83.7431773 -0.193707E-08  0.558E-05    0.22     276.5  T
   7    -83.7431773 -0.637073E-10  0.231E-05    0.22     668.0  T
     SCC iter.                  ...        0 min,  0.040 sec
     gradient                   ...        0 min,  0.062 sec
 * total energy  :   -82.9698773 Eh     change       -0.3883497E-03 Eh
   gradient norm :     0.0080352 Eh/α   predicted    -0.2769958E-03 ( -28.67%)
   displ. norm   :     0.3367398 α      lambda       -0.4691393E-03
   maximum displ.:     0.1595469 α      in ANC's #5, #8, #12, ...

........................................................................
.............................. CYCLE    7 ..............................
........................................................................
   1    -83.7456994 -0.837457E+02  0.843E-03    0.22       0.0  T
   2    -83.7457023 -0.282105E-05  0.411E-03    0.22       3.8  T
   3    -83.7457025 -0.243782E-06  0.224E-03    0.23       6.9  T
   4    -83.7457025  0.326865E-07  0.135E-03    0.22      11.4  T
   5    -83.7457026 -0.787842E-07  0.452E-04    0.23      34.1  T
   6    -83.7457026 -0.110686E-07  0.583E-05    0.22     264.5  T
   7    -83.7457026 -0.787281E-10  0.148E-05    0.22    1041.4  T
     SCC iter.                  ...        0 min,  0.039 sec
     gradient                   ...        0 min,  0.060 sec
 * total energy  :   -82.9702186 Eh     change       -0.3413142E-03 Eh
   gradient norm :     0.0068514 Eh/α   predicted    -0.2611693E-03 ( -23.48%)
   displ. norm   :     0.3060953 α      lambda       -0.3043528E-03
   maximum displ.:     0.1455786 α      in ANC's #4, #5, #8, ...

........................................................................
.............................. CYCLE    8 ..............................
........................................................................
   1    -83.7474487 -0.837474E+02  0.694E-03    0.22       0.0  T
   2    -83.7474505 -0.181920E-05  0.428E-03    0.23       3.6  T
   3    -83.7474515 -0.998755E-06  0.227E-03    0.22       6.8  T
   4    -83.7474516 -0.111292E-06  0.109E-03    0.22      14.1  T
   5    -83.7474517 -0.141370E-07  0.333E-04    0.22      46.3  T
   6    -83.7474517 -0.551285E-08  0.495E-05    0.22     311.9  T
   7    -83.7474517 -0.443805E-10  0.178E-05    0.22     868.1  T
     SCC iter.                  ...        0 min,  0.039 sec
     gradient                   ...        0 min,  0.062 sec
 * total energy  :   -82.9704461 Eh     change       -0.2275732E-03 Eh
   gradient norm :     0.0060265 Eh/α   predicted    -0.1664351E-03 ( -26.87%)
   displ. norm   :     0.2779920 α      lambda       -0.2208905E-03
   maximum displ.:     0.1484034 α      in ANC's #4, #8, #5, ...

........................................................................
.............................. CYCLE    9 ..............................
........................................................................
   1    -83.7482911 -0.837483E+02  0.769E-03    0.22       0.0  T
   2    -83.7482932 -0.211878E-05  0.484E-03    0.23       3.2  T
   3    -83.7482951 -0.182605E-05  0.202E-03    0.22       7.6  T
   4    -83.7482952 -0.149087E-06  0.962E-04    0.22      16.0  T
   5    -83.7482952 -0.921744E-09  0.349E-04    0.22      44.2  T
   6    -83.7482952 -0.400667E-08  0.458E-05    0.22     336.8  T
   7    -83.7482952 -0.433289E-10  0.182E-05    0.22     846.6  T
     SCC iter.                  ...        0 min,  0.040 sec
     gradient                   ...        0 min,  0.061 sec
 * total energy  :   -82.9706058 Eh     change       -0.1596851E-03 Eh
   gradient norm :     0.0055445 Eh/α   predicted    -0.1190277E-03 ( -25.46%)
   displ. norm   :     0.2052850 α      lambda       -0.1473676E-03
   maximum displ.:     0.1191710 α      in ANC's #4, #2, #8, ...

........................................................................
.............................. CYCLE   10 ..............................
........................................................................
   1    -83.7485111 -0.837485E+02  0.641E-03    0.22       0.0  T
   2    -83.7485129 -0.175884E-05  0.323E-03    0.22       4.8  T
   3    -83.7485135 -0.600249E-06  0.162E-03    0.22       9.5  T
   4    -83.7485136 -0.112589E-06  0.762E-04    0.22      20.2  T
   5    -83.7485136 -0.635576E-08  0.323E-04    0.22      47.8  T
   6    -83.7485136 -0.170138E-08  0.357E-05    0.22     431.7  T
   7    -83.7485136 -0.327560E-10  0.130E-05    0.22    1186.9  T
     SCC iter.                  ...        0 min,  0.038 sec
     gradient                   ...        0 min,  0.061 sec
 * total energy  :   -82.9707154 Eh     change       -0.1095629E-03 Eh
   gradient norm :     0.0044021 Eh/α   predicted    -0.7678972E-04 ( -29.91%)
   displ. norm   :     0.1730242 α      lambda       -0.1138800E-03
   maximum displ.:     0.0999210 α      in ANC's #4, #2, #9, ...

........................................................................
.............................. CYCLE   11 ..............................
........................................................................
   1    -83.7481487 -0.837481E+02  0.473E-03    0.22       0.0  T
   2    -83.7481498 -0.106393E-05  0.213E-03    0.22       7.3  T
   3    -83.7481499 -0.826193E-07  0.924E-04    0.22      16.7  T
   4    -83.7481499  0.538745E-08  0.663E-04    0.22      23.3  T
   5    -83.7481499 -0.129206E-07  0.260E-04    0.22      59.4  T
   6    -83.7481499 -0.341322E-08  0.282E-05    0.22     547.0  T
   7    -83.7481499 -0.267164E-10  0.903E-06    0.22    1708.0  T
     SCC iter.                  ...        0 min,  0.039 sec
     gradient                   ...        0 min,  0.061 sec
 * total energy  :   -82.9707994 Eh     change       -0.8401717E-04 Eh
   gradient norm :     0.0032770 Eh/α   predicted    -0.5864646E-04 ( -30.20%)
   displ. norm   :     0.1599615 α      lambda       -0.8821252E-04
   maximum displ.:     0.0940116 α      in ANC's #2, #4, #12, ...

........................................................................
.............................. CYCLE   12 ..............................
........................................................................
   1    -83.7476902 -0.837477E+02  0.368E-03    0.23       0.0  T
   2    -83.7476907 -0.490578E-06  0.249E-03    0.22       6.2  T
   3    -83.7476910 -0.354304E-06  0.104E-03    0.23      14.8  T
   4    -83.7476911 -0.197558E-07  0.525E-04    0.22      29.4  T
   5    -83.7476911 -0.335464E-08  0.181E-04    0.22      85.4  T
   6    -83.7476911 -0.123269E-08  0.242E-05    0.22     637.5  T
     SCC iter.                  ...        0 min,  0.035 sec
     gradient                   ...        0 min,  0.061 sec
 * total energy  :   -82.9708659 Eh     change       -0.6644913E-04 Eh
   gradient norm :     0.0034258 Eh/α   predicted    -0.4523817E-04 ( -31.92%)
   displ. norm   :     0.1703701 α      lambda       -0.7736587E-04
   maximum displ.:     0.1053470 α      in ANC's #2, #4, #9, ...

........................................................................
.............................. CYCLE   13 ..............................
........................................................................
   1    -83.7472108 -0.837472E+02  0.376E-03    0.23       0.0  T
   2    -83.7472114 -0.560491E-06  0.252E-03    0.22       6.1  T
   3    -83.7472118 -0.460619E-06  0.953E-04    0.23      16.2  T
   4    -83.7472118 -0.200970E-07  0.479E-04    0.23      32.2  T
   5    -83.7472119 -0.153680E-08  0.150E-04    0.23     102.5  T
   6    -83.7472119 -0.776055E-09  0.224E-05    0.23     688.6  T
     SCC iter.                  ...        0 min,  0.034 sec
     gradient                   ...        0 min,  0.061 sec
 * total energy  :   -82.9709271 Eh     change       -0.6121753E-04 Eh
   gradient norm :     0.0037637 Eh/α   predicted    -0.3980943E-04 ( -34.97%)
   displ. norm   :     0.2340412 α      lambda       -0.9330280E-04
   maximum displ.:     0.1478410 α      in ANC's #2, #4, #9, ...

........................................................................
.............................. CYCLE   14 ..............................
........................................................................
   1    -83.7468607 -0.837469E+02  0.458E-03    0.23       0.0  T
   2    -83.7468617 -0.987101E-06  0.239E-03    0.23       6.5  T
   3    -83.7468620 -0.345873E-06  0.111E-03    0.23      13.9  T
   4    -83.7468620 -0.336007E-07  0.547E-04    0.23      28.2  T
   5    -83.7468620 -0.265456E-08  0.202E-04    0.23      76.2  T
   6    -83.7468620 -0.120551E-08  0.311E-05    0.23     495.6  T
   7    -83.7468620 -0.123066E-10  0.125E-05    0.23    1233.0  T
     SCC iter.                  ...        0 min,  0.038 sec
     gradient                   ...        0 min,  0.056 sec
 * total energy  :   -82.9710043 Eh     change       -0.7727523E-04 Eh
   gradient norm :     0.0037558 Eh/α   predicted    -0.4920876E-04 ( -36.32%)
   displ. norm   :     0.3587198 α      lambda       -0.1273709E-03
   maximum displ.:     0.2273426 α      in ANC's #2, #4, #1, ...

........................................................................
.............................. CYCLE   15 ..............................
........................................................................
   1    -83.7462175 -0.837462E+02  0.558E-03    0.23       0.0  T
   2    -83.7462188 -0.132800E-05  0.254E-03    0.23       6.1  T
   3    -83.7462191 -0.209200E-06  0.132E-03    0.23      11.7  T
   4    -83.7462191 -0.131154E-07  0.711E-04    0.23      21.7  T
   5    -83.7462191 -0.176348E-07  0.244E-04    0.23      63.2  T
   6    -83.7462191 -0.234769E-08  0.445E-05    0.23     347.0  T
   7    -83.7462191 -0.163425E-10  0.157E-05    0.23     985.1  T
     SCC iter.                  ...        0 min,  0.035 sec
     gradient                   ...        0 min,  0.055 sec
 * total energy  :   -82.9711099 Eh     change       -0.1055545E-03 Eh
   gradient norm :     0.0040555 Eh/α   predicted    -0.7188119E-04 ( -31.90%)
   displ. norm   :     0.4336604 α      lambda       -0.1440918E-03
   maximum displ.:     0.2768449 α      in ANC's #2, #4, #1, ...

........................................................................
.............................. CYCLE   16 ..............................
........................................................................
   1    -83.7459599 -0.837460E+02  0.506E-03    0.23       0.0  T
   2    -83.7459608 -0.887321E-06  0.232E-03    0.23       6.6  T
   3    -83.7459609 -0.730294E-07  0.116E-03    0.23      13.3  T
   4    -83.7459609 -0.375405E-08  0.364E-04    0.23      42.4  T
   5    -83.7459609 -0.749651E-09  0.958E-05    0.23     161.0  T
   6    -83.7459609 -0.127301E-09  0.508E-05    0.23     304.0  T
     SCC iter.                  ...        0 min,  0.030 sec
     gradient                   ...        0 min,  0.053 sec
 * total energy  :   -82.9712062 Eh     change       -0.9632670E-04 Eh
   gradient norm :     0.0049293 Eh/α   predicted    -0.8559675E-04 ( -11.14%)
   displ. norm   :     0.1920635 α      lambda       -0.9097382E-04
   maximum displ.:     0.1240760 α      in ANC's #2, #4, #1, ...

........................................................................
.............................. CYCLE   17 ..............................
........................................................................
   1    -83.7480992 -0.837481E+02  0.394E-03    0.23       0.0  T
   2    -83.7480994 -0.229010E-06  0.210E-03    0.23       7.3  T
   3    -83.7480994 -0.214946E-07  0.122E-03    0.23      12.6  T
   4    -83.7480995 -0.140222E-07  0.455E-04    0.23      33.9  T
   5    -83.7480995 -0.124191E-07  0.152E-04    0.23     101.7  T
   6    -83.7480995 -0.137645E-08  0.274E-05    0.23     562.5  T
     SCC iter.                  ...        0 min,  0.019 sec
     gradient                   ...        0 min,  0.033 sec
 * total energy  :   -82.9712702 Eh     change       -0.6399679E-04 Eh
   gradient norm :     0.0035774 Eh/α   predicted    -0.4716763E-04 ( -26.30%)
   displ. norm   :     0.2637894 α      lambda       -0.8533700E-04
   maximum displ.:     0.1590130 α      in ANC's #2, #4, #1, ...

........................................................................
.............................. CYCLE   18 ..............................
........................................................................
   1    -83.7478871 -0.837479E+02  0.498E-03    0.23       0.0  T
   2    -83.7478880 -0.881834E-06  0.259E-03    0.23       6.0  T
   3    -83.7478881 -0.116288E-06  0.136E-03    0.23      11.4  T
   4    -83.7478881  0.123990E-07  0.752E-04    0.23      20.5  T
   5    -83.7478881 -0.290939E-07  0.175E-04    0.23      88.3  T
   6    -83.7478881 -0.163325E-08  0.401E-05    0.23     384.8  T
     SCC iter.                  ...        0 min,  0.031 sec
     gradient                   ...        0 min,  0.052 sec
 * total energy  :   -82.9713156 Eh     change       -0.4534068E-04 Eh
   gradient norm :     0.0036596 Eh/α   predicted    -0.4564286E-04 (   0.67%)
   displ. norm   :     0.0813355 α      lambda       -0.5158457E-04
   maximum displ.:     0.0406229 α      in ANC's #1, #2, #6, ...

........................................................................
.............................. CYCLE   19 ..............................
........................................................................
   1    -83.7497137 -0.837497E+02  0.563E-03    0.23       0.0  T
   2    -83.7497145 -0.790797E-06  0.270E-03    0.23       5.7  T
   3    -83.7497146 -0.623088E-07  0.146E-03    0.23      10.6  T
   4    -83.7497146 -0.576472E-08  0.329E-04    0.23      47.0  T
   5    -83.7497146 -0.946244E-09  0.108E-04    0.23     142.9  T
   6    -83.7497146 -0.471658E-09  0.474E-05    0.23     325.5  T
     SCC iter.                  ...        0 min,  0.029 sec
     gradient                   ...        0 min,  0.051 sec
 * total energy  :   -82.9713378 Eh     change       -0.2221838E-04 Eh
   gradient norm :     0.0028658 Eh/α   predicted    -0.2597099E-04 (  16.89%)
   displ. norm   :     0.0791213 α      lambda       -0.2075833E-04
   maximum displ.:     0.0462594 α      in ANC's #2, #4, #1, ...

........................................................................
.............................. CYCLE   20 ..............................
........................................................................
   1    -83.7487207 -0.837487E+02  0.229E-03    0.23       0.0  T
   2    -83.7487207 -0.797514E-07  0.112E-03    0.23      13.7  T
   3    -83.7487208 -0.116084E-07  0.654E-04    0.23      23.6  T
   4    -83.7487207  0.769774E-09  0.262E-04    0.23      58.9  T
   5    -83.7487208 -0.451979E-08  0.728E-05    0.23     211.9  T
   6    -83.7487208 -0.327290E-09  0.122E-05    0.23    1268.8  T
     SCC iter.                  ...        0 min,  0.030 sec
     gradient                   ...        0 min,  0.052 sec
 * total energy  :   -82.9713530 Eh     change       -0.1522256E-04 Eh
   gradient norm :     0.0014108 Eh/α   predicted    -0.1044623E-04 ( -31.38%)
   displ. norm   :     0.1646896 α      lambda       -0.2142048E-04
   maximum displ.:     0.0936346 α      in ANC's #2, #1, #4, ...
 * RMSD in coord.:     0.5589882 α      energy gain  -0.2970226E-01 Eh

generating ANC from model Hessian ...
Using Lindh-Hessian (1995)
 Shifting diagonal of input Hessian by   9.807632085594237E-003
 Lowest  eigenvalues of input Hessian
    0.000000    0.000000    0.000000    0.000000    0.000000    0.000000
    0.010000    0.010270    0.010346    0.010854    0.011949    0.012434
    0.012816    0.013427    0.013780    0.014410    0.015479    0.015727
 Highest eigenvalues
    2.099290    2.221473    2.241292    2.344298    2.348102    2.356282
 

........................................................................
.............................. CYCLE   21 ..............................
........................................................................
   1    -83.7472873 -0.837473E+02  0.379E-03    0.23       0.0  T
   2    -83.7472876 -0.296764E-06  0.231E-03    0.23       6.7  T
   3    -83.7472878 -0.172921E-06  0.120E-03    0.23      12.8  T
   4    -83.7472878 -0.105646E-07  0.440E-04    0.23      35.1  T
   5    -83.7472878 -0.982838E-08  0.130E-04    0.23     118.3  T
   6    -83.7472878 -0.793108E-09  0.208E-05    0.23     742.5  T
     SCC iter.                  ...        0 min,  0.029 sec
     gradient                   ...        0 min,  0.054 sec
 * total energy  :   -82.9713657 Eh     change       -0.1273611E-04 Eh
   gradient norm :     0.0023477 Eh/α   predicted     0.0000000E+00 (-100.00%)
   displ. norm   :     0.0186782 α      lambda       -0.1377072E-04
   maximum displ.:     0.0093813 α      in ANC's #1, #4, #6, ...

........................................................................
.............................. CYCLE   22 ..............................
........................................................................
   1    -83.7481651 -0.837482E+02  0.182E-03    0.23       0.0  T
   2    -83.7481652 -0.452566E-07  0.952E-04    0.23      16.2  T
   3    -83.7481652 -0.115243E-08  0.473E-04    0.23      32.6  T
   4    -83.7481652 -0.725620E-09  0.169E-04    0.23      91.4  T
   5    -83.7481652 -0.137540E-08  0.561E-05    0.23     275.1  T
     SCC iter.                  ...        0 min,  0.025 sec
     gradient                   ...        0 min,  0.054 sec
 * total energy  :   -82.9713758 Eh     change       -0.1004581E-04 Eh
   gradient norm :     0.0008902 Eh/α   predicted    -0.6893588E-05 ( -31.38%)
   displ. norm   :     0.0560049 α      lambda       -0.1067783E-04
   maximum displ.:     0.0291358 α      in ANC's #1, #4, #6, ...

........................................................................
.............................. CYCLE   23 ..............................
........................................................................
   1    -83.7492649 -0.837493E+02  0.251E-03    0.23       0.0  T
   2    -83.7492650 -0.148389E-06  0.129E-03    0.23      12.0  T
   3    -83.7492650 -0.114253E-07  0.727E-04    0.23      21.2  T
   4    -83.7492650 -0.124334E-08  0.361E-04    0.23      42.8  T
   5    -83.7492651 -0.608547E-08  0.886E-05    0.23     174.3  T
   6    -83.7492651 -0.407411E-09  0.176E-05    0.23     878.9  T
     SCC iter.                  ...        0 min,  0.030 sec
     gradient                   ...        0 min,  0.051 sec
 * total energy  :   -82.9713857 Eh     change       -0.9864893E-05 Eh
   gradient norm :     0.0014206 Eh/α   predicted    -0.5346551E-05 ( -45.80%)
   displ. norm   :     0.0719239 α      lambda       -0.9434755E-05
   maximum displ.:     0.0363116 α      in ANC's #1, #4, #6, ...

........................................................................
.............................. CYCLE   24 ..............................
........................................................................
   1    -83.7494278 -0.837494E+02  0.114E-03    0.23       0.0  T
   2    -83.7494278 -0.501921E-07  0.566E-04    0.23      27.3  T
   3    -83.7494278 -0.778073E-08  0.251E-04    0.23      61.6  T
   4    -83.7494278 -0.134776E-09  0.162E-04    0.23      95.4  T
   5    -83.7494278 -0.805812E-09  0.492E-05    0.23     313.9  T
     SCC iter.                  ...        0 min,  0.024 sec
     gradient                   ...        0 min,  0.052 sec
 * total energy  :   -82.9713993 Eh     change       -0.1360123E-04 Eh
   gradient norm :     0.0018485 Eh/α   predicted    -0.4743969E-05 ( -65.12%)
   displ. norm   :     0.4770228 α      lambda       -0.6558286E-04
   maximum displ.:     0.2308632 α      in ANC's #1, #4, #6, ...

........................................................................
.............................. CYCLE   25 ..............................
........................................................................
   1    -83.7472987 -0.837473E+02  0.848E-03    0.22       0.0  T
   2    -83.7472999 -0.122805E-05  0.458E-03    0.23       3.4  T
   3    -83.7473001 -0.201185E-06  0.262E-03    0.23       5.9  T
   4    -83.7473002 -0.756586E-07  0.120E-03    0.23      12.8  T
   5    -83.7473003 -0.789457E-07  0.277E-04    0.23      55.7  T
   6    -83.7473003 -0.277038E-08  0.773E-05    0.23     199.6  T
   7    -83.7473003 -0.464553E-10  0.171E-05    0.23     901.0  T
     SCC iter.                  ...        0 min,  0.033 sec
     gradient                   ...        0 min,  0.052 sec
 * total energy  :   -82.9714210 Eh     change       -0.2175791E-04 Eh
   gradient norm :     0.0065727 Eh/α   predicted    -0.3610781E-04 (  65.95%)
   displ. norm   :     0.1189489 α      lambda       -0.6265214E-04
   maximum displ.:     0.0538847 α      in ANC's #4, #1, #11, ...

........................................................................
.............................. CYCLE   26 ..............................
........................................................................
   1    -83.7486305 -0.837486E+02  0.454E-03    0.23       0.0  T
   2    -83.7486307 -0.244288E-06  0.247E-03    0.23       6.3  T
   3    -83.7486307 -0.147268E-07  0.151E-03    0.23      10.2  T
   4    -83.7486308 -0.605064E-07  0.546E-04    0.23      28.3  T
   5    -83.7486308 -0.147002E-07  0.122E-04    0.23     126.2  T
   6    -83.7486308 -0.463061E-09  0.312E-05    0.23     493.9  T
     SCC iter.                  ...        0 min,  0.028 sec
     gradient                   ...        0 min,  0.049 sec
 * total energy  :   -82.9714545 Eh     change       -0.3346403E-04 Eh
   gradient norm :     0.0032533 Eh/α   predicted    -0.3179697E-04 (  -4.98%)
   displ. norm   :     0.0479367 α      lambda       -0.1854428E-04
   maximum displ.:     0.0299067 α      in ANC's #1, #4, #6, ...

........................................................................
.............................. CYCLE   27 ..............................
........................................................................
   1    -83.7489083 -0.837489E+02  0.150E-03    0.23       0.0  T
   2    -83.7489084 -0.477613E-07  0.868E-04    0.23      17.8  T
   3    -83.7489084 -0.232397E-07  0.490E-04    0.23      31.5  T
   4    -83.7489084 -0.656372E-08  0.199E-04    0.23      77.6  T
   5    -83.7489084 -0.815234E-09  0.398E-05    0.23     387.4  T
     SCC iter.                  ...        0 min,  0.015 sec
     gradient                   ...        0 min,  0.032 sec
 * total energy  :   -82.9714707 Eh     change       -0.1625801E-04 Eh
   gradient norm :     0.0023869 Eh/α   predicted    -0.9296147E-05 ( -42.82%)
   displ. norm   :     0.1928594 α      lambda       -0.5215356E-04
   maximum displ.:     0.1163582 α      in ANC's #1, #4, #11, ...

........................................................................
.............................. CYCLE   28 ..............................
........................................................................
   1    -83.7490865 -0.837491E+02  0.337E-03    0.23       0.0  T
   2    -83.7490868 -0.375305E-06  0.205E-03    0.23       7.5  T
   3    -83.7490870 -0.200419E-06  0.910E-04    0.23      17.0  T
   4    -83.7490871 -0.174479E-07  0.462E-04    0.23      33.4  T
   5    -83.7490871 -0.372860E-08  0.108E-04    0.23     143.1  T
   6    -83.7490871 -0.254772E-09  0.262E-05    0.23     588.9  T
     SCC iter.                  ...        0 min,  0.018 sec
     gradient                   ...        0 min,  0.032 sec
 * total energy  :   -82.9715042 Eh     change       -0.3343798E-04 Eh
   gradient norm :     0.0010980 Eh/α   predicted    -0.2705426E-04 ( -19.09%)
   displ. norm   :     0.1441494 α      lambda       -0.1147456E-04
   maximum displ.:     0.0888585 α      in ANC's #1, #4, #11, ...

........................................................................
.............................. CYCLE   29 ..............................
........................................................................
   1    -83.7485821 -0.837486E+02  0.214E-03    0.23       0.0  T
   2    -83.7485822 -0.139992E-06  0.114E-03    0.23      13.6  T
   3    -83.7485823 -0.302748E-07  0.526E-04    0.23      29.3  T
   4    -83.7485823 -0.252811E-10  0.307E-04    0.23      50.3  T
   5    -83.7485823 -0.410922E-08  0.752E-05    0.23     205.1  T
   6    -83.7485823 -0.175561E-09  0.185E-05    0.23     835.3  T
     SCC iter.                  ...        0 min,  0.019 sec
     gradient                   ...        0 min,  0.033 sec
 * total energy  :   -82.9715133 Eh     change       -0.9115695E-05 Eh
   gradient norm :     0.0010559 Eh/α   predicted    -0.5816093E-05 ( -36.20%)
   displ. norm   :     0.0406727 α      lambda       -0.5763628E-05
   maximum displ.:     0.0228800 α      in ANC's #1, #5, #6, ...

........................................................................
.............................. CYCLE   30 ..............................
........................................................................
   1    -83.7487688 -0.837488E+02  0.119E-03    0.23       0.0  T
   2    -83.7487688 -0.427348E-07  0.558E-04    0.23      27.6  T
   3    -83.7487688 -0.763396E-08  0.258E-04    0.23      59.8  T
   4    -83.7487688  0.720433E-09  0.131E-04    0.23     117.5  T
   5    -83.7487688 -0.112939E-08  0.366E-05    0.23     421.8  T
     SCC iter.                  ...        0 min,  0.016 sec
     gradient                   ...        0 min,  0.032 sec
 * total energy  :   -82.9715198 Eh     change       -0.6526121E-05 Eh
   gradient norm :     0.0009649 Eh/α   predicted    -0.2886824E-05 ( -55.77%)
   displ. norm   :     0.0903117 α      lambda       -0.9866538E-05
   maximum displ.:     0.0512880 α      in ANC's #1, #5, #6, ...

........................................................................
.............................. CYCLE   31 ..............................
........................................................................
   1    -83.7486556 -0.837487E+02  0.159E-03    0.23       0.0  T
   2    -83.7486557 -0.884506E-07  0.856E-04    0.23      18.0  T
   3    -83.7486557 -0.448092E-07  0.382E-04    0.23      40.4  T
   4    -83.7486557 -0.387661E-08  0.191E-04    0.23      80.7  T
   5    -83.7486557 -0.570537E-09  0.493E-05    0.23     312.9  T
     SCC iter.                  ...        0 min,  0.016 sec
     gradient                   ...        0 min,  0.033 sec
 * total energy  :   -82.9715294 Eh     change       -0.9614115E-05 Eh
   gradient norm :     0.0010327 Eh/α   predicted    -0.4953432E-05 ( -48.48%)
   displ. norm   :     0.0773823 α      lambda       -0.5519414E-05
   maximum displ.:     0.0503480 α      in ANC's #1, #5, #8, ...

........................................................................
.............................. CYCLE   32 ..............................
........................................................................
   1    -83.7485590 -0.837486E+02  0.102E-03    0.23       0.0  T
   2    -83.7485591 -0.467091E-07  0.499E-04    0.23      30.9  T
   3    -83.7485591 -0.642800E-08  0.226E-04    0.23      68.4  T
   4    -83.7485591  0.200870E-09  0.144E-04    0.23     107.3  T
   5    -83.7485591 -0.815888E-09  0.380E-05    0.23     406.6  T
     SCC iter.                  ...        0 min,  0.016 sec
     gradient                   ...        0 min,  0.032 sec
 * total energy  :   -82.9715353 Eh     change       -0.5872493E-05 Eh
   gradient norm :     0.0009266 Eh/α   predicted    -0.2769484E-05 ( -52.84%)
   displ. norm   :     0.0785505 α      lambda       -0.4991028E-05
   maximum displ.:     0.0544190 α      in ANC's #1, #8, #2, ...

........................................................................
.............................. CYCLE   33 ..............................
........................................................................
   1    -83.7485432 -0.837485E+02  0.136E-03    0.23       0.0  T
   2    -83.7485433 -0.769985E-07  0.658E-04    0.23      23.5  T
   3    -83.7485433 -0.279231E-07  0.299E-04    0.23      51.6  T
   4    -83.7485433 -0.265086E-08  0.132E-04    0.23     117.0  T
   5    -83.7485433 -0.102432E-09  0.568E-05    0.23     271.6  T
     SCC iter.                  ...        0 min,  0.015 sec
     gradient                   ...        0 min,  0.032 sec
 * total energy  :   -82.9715411 Eh     change       -0.5749574E-05 Eh
   gradient norm :     0.0005649 Eh/α   predicted    -0.2506491E-05 ( -56.41%)
   displ. norm   :     0.0879270 α      lambda       -0.5188936E-05
   maximum displ.:     0.0646333 α      in ANC's #1, #2, #8, ...

........................................................................
.............................. CYCLE   34 ..............................
........................................................................
   1    -83.7484930 -0.837485E+02  0.168E-03    0.23       0.0  T
   2    -83.7484930 -0.970441E-07  0.929E-04    0.23      16.6  T
   3    -83.7484931 -0.651242E-07  0.374E-04    0.23      41.3  T
   4    -83.7484931 -0.439358E-08  0.163E-04    0.23      94.4  T
   5    -83.7484931 -0.114426E-09  0.524E-05    0.23     294.7  T
     SCC iter.                  ...        0 min,  0.015 sec
     gradient                   ...        0 min,  0.032 sec
 * total energy  :   -82.9715473 Eh     change       -0.6287181E-05 Eh
   gradient norm :     0.0007749 Eh/α   predicted    -0.2603823E-05 ( -58.59%)
   displ. norm   :     0.1198027 α      lambda       -0.6627208E-05
   maximum displ.:     0.0896104 α      in ANC's #1, #2, #8, ...

........................................................................
.............................. CYCLE   35 ..............................
........................................................................
   1    -83.7484495 -0.837484E+02  0.166E-03    0.23       0.0  T
   2    -83.7484496 -0.848443E-07  0.979E-04    0.23      15.8  T
   3    -83.7484497 -0.743886E-07  0.369E-04    0.23      41.9  T
   4    -83.7484497 -0.398396E-08  0.156E-04    0.23      98.6  T
   5    -83.7484497 -0.219146E-09  0.412E-05    0.23     374.8  T
     SCC iter.                  ...        0 min,  0.015 sec
     gradient                   ...        0 min,  0.032 sec
 * total energy  :   -82.9715545 Eh     change       -0.7147863E-05 Eh
   gradient norm :     0.0011715 Eh/α   predicted    -0.3335828E-05 ( -53.33%)
   displ. norm   :     0.0778664 α      lambda       -0.4608060E-05
   maximum displ.:     0.0594189 α      in ANC's #1, #2, #3, ...

........................................................................
.............................. CYCLE   36 ..............................
........................................................................
   1    -83.7486998 -0.837487E+02  0.959E-04    0.23       0.0  T
   2    -83.7486998 -0.180272E-07  0.524E-04    0.23      29.5  T
   3    -83.7486998 -0.622569E-08  0.311E-04    0.23      49.7  T
   4    -83.7486998 -0.233628E-08  0.117E-04    0.23     131.4  T
   5    -83.7486998 -0.628845E-09  0.263E-05    0.23     587.2  T
     SCC iter.                  ...        0 min,  0.015 sec
     gradient                   ...        0 min,  0.032 sec
 * total energy  :   -82.9715596 Eh     change       -0.5143472E-05 Eh
   gradient norm :     0.0009593 Eh/α   predicted    -0.2312919E-05 ( -55.03%)
   displ. norm   :     0.0954058 α      lambda       -0.4830541E-05
   maximum displ.:     0.0695078 α      in ANC's #1, #2, #13, ...

........................................................................
.............................. CYCLE   37 ..............................
........................................................................
   1    -83.7487172 -0.837487E+02  0.126E-03    0.23       0.0  T
   2    -83.7487173 -0.595972E-07  0.606E-04    0.23      25.5  T
   3    -83.7487173 -0.165827E-07  0.294E-04    0.23      52.5  T
   4    -83.7487173 -0.150493E-08  0.142E-04    0.23     108.5  T
   5    -83.7487173 -0.659128E-09  0.481E-05    0.23     320.9  T
     SCC iter.                  ...        0 min,  0.016 sec
     gradient                   ...        0 min,  0.034 sec
 * total energy  :   -82.9715645 Eh     change       -0.4920209E-05 Eh
   gradient norm :     0.0007134 Eh/α   predicted    -0.2425887E-05 ( -50.70%)
   displ. norm   :     0.0635719 α      lambda       -0.3443658E-05
   maximum displ.:     0.0445171 α      in ANC's #1, #3, #5, ...

   *** GEOMETRY OPTIMIZATION CONVERGED AFTER 37 ITERATIONS ***

------------------------------------------------------------------------
 total energy gain   :        -0.0299138 Eh      -18.7712 kcal/mol
 total RMSD          :         0.6319049 a0        0.3344 Å
 total power (kW/mol):        -2.1226671 (step)  -20.1879 (real)
------------------------------------------------------------------------

 ANCopt (total)                0 d,  0 h,  0 min,  3.890 sec
 optimizer setup                ...        0 min,  0.001 sec (  0.022%)
 model hessian                  ...        0 min,  0.039 sec (  0.995%)
 ANC generation                 ...        0 min,  0.005 sec (  0.136%)
 coordinate transformation      ...        0 min,  0.001 sec (  0.021%)
 single point calculation       ...        0 min,  3.832 sec ( 98.503%)
 optimization log               ...        0 min,  0.007 sec (  0.169%)
 hessian update                 ...        0 min,  0.001 sec (  0.019%)
 rational function              ...        0 min,  0.003 sec (  0.085%)

================
 final structure:
================
42
 xtb: 6.5.1 (579679a)
C            5.84965136014867       -0.50733919480569        2.20246630548243
O            4.70227524518664       -0.54871492552508        1.36225471003050
C            4.65474126598647       -1.58523602432287        0.47546696141214
O            5.55209602246599       -2.40906701291787        0.43549207814394
C            3.45646997628439       -1.55312330175283       -0.35303511735457
N            2.58731301778224       -0.51363864519866       -0.09307550317481
C            1.50555232280821       -0.38681186265095       -0.76390874932293
C            0.55743777079668        0.75988928739907       -0.48935575832445
C            0.52409322912395        1.71261272488339       -1.69003468273955
C            0.96495313738892        1.47833800413775        0.79730916098359
N           -0.78683998191207        0.15558867785028       -0.30539545004768
C           -1.91148805262533        0.78932713651015       -0.09102156285502
O           -1.91156913342295        2.08594927944998       -0.01452770833935
C           -3.09875809315967        2.86350831729766        0.20908982380335
C           -3.07737852093013       -0.05140590008696        0.04803280223895
N           -3.04209907421691       -1.35628500902730       -0.00067191895003
N           -4.30488768619701       -1.78848552822949        0.16827477262070
C           -5.05448680443023       -0.72984659166518        0.31144731258869
C           -6.51405496783963       -0.67583550647282        0.51612011192600
O           -4.33118868488482        0.39669213877900        0.24549960065664
N            1.15530754439128       -1.26310741712048       -1.77419790514505
C            1.92473495572810       -2.34529084184178       -2.14010942593161
O            1.54852839183736       -3.07513340512887       -3.04883487980130
C            3.20731680976941       -2.53128042506171       -1.35556467269805
O            3.93747242365083       -3.49419164980117       -1.63307857140117
H            5.92091286139067       -1.41830422769947        2.80552973905090
H            5.73362965440339        0.35793706695089        2.85343230954335
H            6.76191288377254       -0.40307615410242        1.60605928821726
H           -0.08796233518284        2.58519986855974       -1.47891207335296
H            1.54015638461036        2.04053161842367       -1.90567140811060
H            0.12167143464534        1.20201797152234       -2.56262537056845
H            0.89871921407956        0.79385884521804        1.64162996629766
H            0.32534669919332        2.33749579796247        0.97933754790444
H            1.99680501234265        1.81274150775175        0.69629910176609
H           -0.85447874890166       -0.85686173762494       -0.34414058648645
H           -3.80625871297493        2.70701312331223       -0.60513828477242
H           -2.76471263852297        3.89908907423732        0.23046196156704
H           -3.55300422019752        2.58833825703733        1.16091125949538
H           -6.74483090140528       -0.04306442156106        1.37291969746765
H           -6.99151864130252       -0.23737006449605       -0.36120534714413
H           -6.90204773331224       -1.67944516328031        0.67703619020311
H            0.31046531363021       -1.11321368691707       -2.29640272487086
 
 Bond Distances (Angstroems)
 ---------------------------
C1-O2=1.4227         C1-H26=1.0948        C1-H27=1.0890        C1-H28=1.0949        O2-C1=1.4227         O2-C3=1.3649         
C3-O2=1.3649         C3-O4=1.2188         C3-C5=1.4572         O4-C3=1.2188         C5-C3=1.4572         C5-N6=1.3797         
C5-C24=1.4227        N6-C5=1.3797         N6-C7=1.2792         C7-N6=1.2792         C7-C8=1.5130         C7-N21=1.3825        
C8-C7=1.5130         C8-C9=1.5331         C8-C10=1.5290        C8-N11=1.4853        C9-C8=1.5331         C9-H29=1.0866        
C9-H30=1.0892        C9-H31=1.0881        C10-C8=1.5290        C10-H32=1.0889       C10-H33=1.0865       C10-H34=1.0894       
N11-C8=1.4853        N11-C12=1.3086       N11-H35=1.0154       C12-N11=1.3086       C12-O13=1.2989       C12-C15=1.4441       
O13-C12=1.2989       O13-C14=1.4367       C14-O13=1.4367       C14-H36=1.0900       C14-H37=1.0883       C14-H38=1.0900       
C15-C12=1.4441       C15-N16=1.3063       C15-O20=1.3460       N16-C15=1.3063       N16-N17=1.3454       N17-N16=1.3454       
N17-C18=1.3050       C18-N17=1.3050       C18-C19=1.4748       C18-O20=1.3404       C19-C18=1.4748       C19-H39=1.0898       
C19-H40=1.0908       C19-H41=1.0880       O20-C15=1.3460       O20-C18=1.3404       N21-C7=1.3825        N21-C22=1.3773       
N21-H42=1.0045       C22-N21=1.3773       C22-O23=1.2247       C22-C24=1.5150       O23-C22=1.2247       C24-C5=1.4227        
C24-C22=1.5150       C24-O25=1.2399       O25-C24=1.2399       H26-C1=1.0948        H27-C1=1.0890        H28-C1=1.0949        
H29-C9=1.0866        H30-C9=1.0892        H31-C9=1.0881        H32-C10=1.0889       H33-C10=1.0865       H34-C10=1.0894       
H35-N11=1.0154       H36-C14=1.0900       H37-C14=1.0883       H38-C14=1.0900       H39-C19=1.0898       H40-C19=1.0908       
H41-C19=1.0880       H42-N21=1.0045       
 C  H  Rav=1.0896 sigma=0.0024  Rmin=1.0865  Rmax=1.0949    15
 C  C  Rav=1.4861 sigma=0.0393  Rmin=1.4227  Rmax=1.5331     8
 N  H  Rav=1.0099 sigma=0.0055  Rmin=1.0045  Rmax=1.0154     2
 N  C  Rav=1.3530 sigma=0.0628  Rmin=1.2792  Rmax=1.4853     8
 N  N  Rav=1.3454 sigma=0.0000  Rmin=1.3454  Rmax=1.3454     1
 O  C  Rav=1.3215 sigma=0.0770  Rmin=1.2188  Rmax=1.4367     9
 
 selected bond angles (degree)
 --------------------
H26-C1-O2=110.71               H27-C1-O2=106.87               H27-C1-H26=109.80              H28-C1-O2=110.67               
H28-C1-H26=108.97              H28-C1-H27=109.80              C3-O2-C1=115.71                O4-C3-O2=120.59                
C5-C3-O2=112.41                C5-C3-O4=126.99                N6-C5-C3=115.31                C24-C5-C3=121.97               
C24-C5-N6=122.72               C7-N6-C5=120.57                C8-C7-N6=120.66                N21-C7-N6=122.32               
N21-C7-C8=117.02               C9-C8-C7=110.03                C10-C8-C7=109.99               C10-C8-C9=111.89               
N11-C8-C7=106.34               N11-C8-C9=109.28               N11-C8-C10=109.16              H29-C9-C8=111.05               
H30-C9-C8=108.77               H30-C9-H29=108.79              H31-C9-C8=110.15               H31-C9-H29=108.92              
H31-C9-H30=109.12              H32-C10-C8=109.93              H33-C10-C8=110.83              H33-C10-H32=109.35             
H34-C10-C8=108.58              H34-C10-H32=108.81             H34-C10-H33=109.29             
 
 selected dihedral angles (degree)
 ---------------------------------
C3-O2-C1-H26=300.30           C3-O2-C1-H27=180.75           C3-O2-C1-H28= 61.23           O4-C3-O2-C1=  0.29            
C5-C3-O2-C1=180.38            N6-C5-C3-O2=359.23            N6-C5-C3-O4=179.32            C24-C5-C3-O2=179.36           
C24-C5-C3-O4=359.45           C7-N6-C5-C3=179.80            C7-N6-C5-C24=359.67           C8-C7-N6-C5=180.59            
N21-C7-N6-C5=359.63           C9-C8-C7-N6=113.02            C9-C8-C7-N21=293.93           C10-C8-C7-N6=349.32           
C10-C8-C7-N21=170.23          N11-C8-C7-N6=231.25           N11-C8-C7-N21= 52.16          H29-C9-C8-C7=184.70           
H29-C9-C8-C10=307.29          H29-C9-C8-N11= 68.30          H30-C9-C8-C7=304.40           H30-C9-C8-C10= 66.98          
H30-C9-C8-N11=188.00          H31-C9-C8-C7= 63.95           H31-C9-C8-C10=186.53          H31-C9-C8-N11=307.55          
H32-C10-C8-C7=297.95          H32-C10-C8-C9=175.34          H32-C10-C8-N11= 54.26         H33-C10-C8-C7=176.95          
H33-C10-C8-C9= 54.34          H33-C10-C8-N11=293.25         H34-C10-C8-C7= 56.88          H34-C10-C8-C9=294.28          
H34-C10-C8-N11=173.19         
           -------------------------------------------------
          |                Final Singlepoint                |
           -------------------------------------------------

          ...................................................
          :                      SETUP                      :
          :.................................................:
          :  # basis functions                 134          :
          :  # atomic orbitals                 134          :
          :  # shells                           84          :
          :  # electrons                       134          :
          :  # halogen bonds                     0          :
          :  max. iterations                   250          :
          :  Hamiltonian                  GFN1-xTB          :
          :  restarted?                      false          :
          :  GBSA solvation                   true          :
          :  PC potential                    false          :
          :  electronic temp.          300.0000000     K    :
          :  accuracy                    1.0000000          :
          :  -> integral cutoff          0.2500000E+02      :
          :  -> integral neglect         0.1000000E-07      :
          :  -> SCF convergence          0.1000000E-05 Eh   :
          :  -> wf. convergence          0.2000000E-04 e    :
          :  Broyden damping             0.4000000          :
          ...................................................

 iter      E             dE          RMSdq      gap      omega  full diag
   1    -83.7487173 -0.837487E+02  0.120E-05    0.23       0.0  T
   2    -83.7487173 -0.108002E-11  0.595E-06    0.23    2591.4  T
   3    -83.7487173  0.497380E-12  0.365E-06    0.23    4232.9  T

   *** convergence criteria satisfied after 3 iterations ***

         #    Occupation            Energy/Eh            Energy/eV
      -------------------------------------------------------------
         1        2.0000           -0.8982908             -24.4437
       ...           ...                  ...                  ...
        61        2.0000           -0.4716393             -12.8340
        62        2.0000           -0.4686038             -12.7514
        63        2.0000           -0.4539451             -12.3525
        64        2.0000           -0.4462646             -12.1435
        65        2.0000           -0.4320730             -11.7573
        66        2.0000           -0.3893144             -10.5938
        67        1.9768           -0.3782603             -10.2930 (HOMO)
        68        0.0232           -0.3698107             -10.0631 (LUMO)
        69                         -0.2850391              -7.7563
        70                         -0.2807278              -7.6390
        71                         -0.2564943              -6.9796
        72                         -0.2499870              -6.8025
       ...                                ...                  ...
       134                          0.7629894              20.7620
      -------------------------------------------------------------
                  HL-Gap            0.0084496 Eh            0.2299 eV
             Fermi-level           -0.3740355 Eh          -10.1780 eV

 SCC (total)                   0 d,  0 h,  0 min,  0.059 sec
 SCC setup                      ...        0 min,  0.001 sec (  1.803%)
 Dispersion                     ...        0 min,  0.000 sec (  0.250%)
 classical contributions        ...        0 min,  0.000 sec (  0.112%)
 integral evaluation            ...        0 min,  0.015 sec ( 25.840%)
 iterations                     ...        0 min,  0.010 sec ( 16.195%)
 molecular gradient             ...        0 min,  0.032 sec ( 54.715%)
 printout                       ...        0 min,  0.001 sec (  1.064%)

         :::::::::::::::::::::::::::::::::::::::::::::::::::::
         ::                     SUMMARY                     ::
         :::::::::::::::::::::::::::::::::::::::::::::::::::::
         :: total energy             -82.971564549769 Eh    ::
         :: total w/o Gsasa/hb       -82.949457347065 Eh    ::
         :: gradient norm              0.000713863216 Eh/a0 ::
         :: HOMO-LUMO gap              0.229924486173 eV    ::
         ::.................................................::
         :: SCC energy               -83.748717327492 Eh    ::
         :: -> electrostatic           0.439313748932 Eh    ::
         :: -> Gsolv                  -0.114967782631 Eh    ::
         ::    -> Gelec               -0.092860579927 Eh    ::
         ::    -> Gsasa               -0.025339729348 Eh    ::
         ::    -> Ghb                 -0.004391752361 Eh    ::
         ::    -> Gshift               0.007624279005 Eh    ::
         :: repulsion energy           0.802589551373 Eh    ::
         :: dispersion energy         -0.025436773650 Eh    ::
         :: halogen bond corr.         0.000000000000 Eh    ::
         :: add. restraining           0.000000000000 Eh    ::
         :: total charge               0.000000000000 e     ::
         :::::::::::::::::::::::::::::::::::::::::::::::::::::

           -------------------------------------------------
          |                Property Printout                |
           -------------------------------------------------

    * Orbital Energies and Occupations

         #    Occupation            Energy/Eh            Energy/eV
      -------------------------------------------------------------
         1        2.0000           -0.8982908             -24.4437
       ...           ...                  ...                  ...
        55        2.0000           -0.5124563             -13.9446
        56        2.0000           -0.5053133             -13.7503
        57        2.0000           -0.5005413             -13.6204
        58        2.0000           -0.4922510             -13.3948
        59        2.0000           -0.4844126             -13.1815
        60        2.0000           -0.4803489             -13.0710
        61        2.0000           -0.4716393             -12.8340
        62        2.0000           -0.4686038             -12.7514
        63        2.0000           -0.4539451             -12.3525
        64        2.0000           -0.4462646             -12.1435
        65        2.0000           -0.4320730             -11.7573
        66        2.0000           -0.3893144             -10.5938
        67        1.9768           -0.3782603             -10.2930 (HOMO)
        68        0.0232           -0.3698107             -10.0631 (LUMO)
        69                         -0.2850391              -7.7563
        70                         -0.2807278              -7.6390
        71                         -0.2564943              -6.9796
        72                         -0.2499870              -6.8025
        73                         -0.2066587              -5.6235
        74                         -0.1565770              -4.2607
        75                         -0.1529536              -4.1621
        76                         -0.1379023              -3.7525
        77                         -0.1355360              -3.6881
        78                         -0.1259668              -3.4277
       ...                                ...                  ...
       134                          0.7629894              20.7620
      -------------------------------------------------------------
                  HL-Gap            0.0084496 Eh            0.2299 eV
             Fermi-level           -0.3740355 Eh          -10.1780 eV

  Mulliken/CM5 charges         n(s)   n(p)   n(d)
     1C     0.17056  0.05107   0.972  2.857  0.000
     2O    -0.44559 -0.52591   1.693  4.753  0.000
     3C     0.55032  0.61481   0.976  2.474  0.000
     4O    -0.60101 -0.64607   1.731  4.870  0.000
     5C    -0.01376  0.06254   1.038  2.976  0.000
     6N    -0.37171 -0.55775   1.531  3.841  0.000
     7C     0.23007  0.38054   0.996  2.774  0.000
     8C     0.14314  0.18078   1.076  2.781  0.000
     9C    -0.11034 -0.25015   1.022  3.088  0.000
    10C    -0.09753 -0.23561   1.017  3.081  0.000
    11N    -0.25390 -0.60956   1.440  3.813  0.000
    12C     0.44299  0.55145   0.978  2.579  0.000
    13O    -0.35467 -0.44800   1.662  4.693  0.000
    14C     0.15085  0.02903   0.995  2.855  0.000
    15C     0.33458  0.45771   0.979  2.687  0.000
    16N    -0.19641 -0.30704   1.562  3.635  0.000
    17N    -0.22541 -0.33179   1.555  3.670  0.000
    18C     0.40657  0.51359   1.017  2.576  0.000
    19C    -0.11190 -0.24913   1.015  3.097  0.000
    20O    -0.33246 -0.39235   1.691  4.641  0.000
    21N    -0.32760 -0.67429   1.437  3.891  0.000
    22C     0.43209  0.53484   1.012  2.556  0.000
    23O    -0.59519 -0.63301   1.733  4.862  0.000
    24C     0.29558  0.34117   1.033  2.671  0.000
    25O    -0.61509 -0.65344   1.741  4.875  0.000
    26H     0.03664  0.09832   0.963  0.000  0.000
    27H     0.03588  0.09619   0.964  0.000  0.000
    28H     0.03672  0.09821   0.963  0.000  0.000
    29H     0.06083  0.12117   0.939  0.000  0.000
    30H     0.06218  0.11704   0.938  0.000  0.000
    31H     0.05433  0.11292   0.946  0.000  0.000
    32H     0.05143  0.11006   0.949  0.000  0.000
    33H     0.05206  0.11184   0.948  0.000  0.000
    34H     0.05974  0.11808   0.940  0.000  0.000
    35H     0.28071  0.48932   0.719  0.000  0.000
    36H     0.07620  0.13962   0.924  0.000  0.000
    37H     0.08477  0.14542   0.915  0.000  0.000
    38H     0.07500  0.13861   0.925  0.000  0.000
    39H     0.09244  0.14720   0.908  0.000  0.000
    40H     0.09569  0.15003   0.904  0.000  0.000
    41H     0.08283  0.13850   0.917  0.000  0.000
    42H     0.25840  0.46409   0.742  0.000  0.000

Wiberg/Mayer (AO) data.
largest (>0.10) Wiberg bond orders for each atom

 ---------------------------------------------------------------------------
     #   Z sym  total        # sym  WBO       # sym  WBO       # sym  WBO
 ---------------------------------------------------------------------------
     1   6 C    3.895 --    27 H    0.987    28 H    0.980    26 H    0.980
                             2 O    0.922
     2   8 O    2.142 --     3 C    1.035     1 C    0.922     4 O    0.112
     3   6 C    3.850 --     4 O    1.604     5 C    1.104     2 O    1.035
     4   8 O    1.875 --     3 C    1.604     2 O    0.112
     5   6 C    3.900 --    24 C    1.256     6 N    1.166     3 C    1.104
                            25 O    0.125
     6   7 N    3.035 --     7 C    1.629     5 C    1.166
     7   6 C    3.927 --     6 N    1.629    21 N    1.088     8 C    0.977
     8   6 C    3.893 --    10 C    0.989     9 C    0.980     7 C    0.977
                            11 N    0.873
     9   6 C    3.984 --    31 H    0.983    30 H    0.982    29 H    0.981
                             8 C    0.980
    10   6 C    3.985 --     8 C    0.989    33 H    0.984    32 H    0.984
                            34 H    0.979
    11   7 N    3.468 --    12 C    1.451    35 H    0.875     8 C    0.873
                            13 O    0.110
    12   6 C    3.884 --    11 N    1.451    13 O    1.199    15 C    1.085
    13   8 O    2.279 --    12 C    1.199    14 C    0.858    11 N    0.110
    14   6 C    3.826 --    37 H    0.981    38 H    0.975    36 H    0.975
                            13 O    0.858
    15   6 C    3.886 --    16 N    1.542    12 C    1.085    20 O    1.055
    16   7 N    3.023 --    15 C    1.542    17 N    1.252
    17   7 N    2.989 --    18 C    1.554    16 N    1.252
    18   6 C    3.849 --    17 N    1.554    20 O    1.083    19 C    1.039
    19   6 C    3.979 --    18 C    1.039    41 H    0.979    39 H    0.960
                            40 H    0.951
    20   8 O    2.336 --    18 C    1.083    15 C    1.055
    21   7 N    3.412 --    22 C    1.143     7 C    1.088    42 H    0.896
                            23 O    0.134
    22   6 C    3.871 --    23 O    1.598    21 N    1.143    24 C    0.961
    23   8 O    1.873 --    22 C    1.598    21 N    0.134
    24   6 C    3.938 --    25 O    1.542     5 C    1.256    22 C    0.961
    25   8 O    1.838 --    24 C    1.542     5 C    0.125
    26   1 H    1.013 --     1 C    0.980
    27   1 H    1.015 --     1 C    0.987
    28   1 H    1.012 --     1 C    0.980
    29   1 H    1.003 --     9 C    0.981
    30   1 H    1.000 --     9 C    0.982
    31   1 H    0.999 --     9 C    0.983
    32   1 H    1.005 --    10 C    0.984
    33   1 H    1.004 --    10 C    0.984
    34   1 H    1.011 --    10 C    0.979
    35   1 H    0.940 --    11 N    0.875
    36   1 H    1.002 --    14 C    0.975
    37   1 H    1.003 --    14 C    0.981
    38   1 H    1.002 --    14 C    0.975
    39   1 H    0.992 --    19 C    0.960
    40   1 H    0.991 --    19 C    0.951
    41   1 H    0.995 --    19 C    0.979
    42   1 H    0.941 --    21 N    0.896
 ---------------------------------------------------------------------------

Topologies differ in total number of bonds
Writing topology from bond orders to xtbtopo.mol

 dipole moment from electron density (au)
     X       Y       Z   
 -12.4495   8.5990   2.5987  total (Debye):   39.021

           -------------------------------------------------
          |                Geometry Summary                 |
           -------------------------------------------------

      molecular mass/u    :      351.3152409
   center of mass at/Å    :        0.3364155      -0.5634632      -0.2673696
  moments of inertia/u·Å² :        0.1257140E+04   0.4923675E+04   0.5463668E+04
rotational constants/cm⁻¹ :        0.1340951E-01   0.3423790E-02   0.3085406E-02

 * 37 selected distances

     #   Z          #   Z                                           value/Å
     1   6 C        2   8 O                                       1.4227227
     2   8 O        3   6 C                                       1.3649280
     3   6 C        4   8 O                                       1.2188278
     6   7 N        7   6 C                                       1.2791829
     8   6 C        9   6 C                                       1.5331093 (max)
     8   6 C       10   6 C                                       1.5289684
    11   7 N       12   6 C                                       1.3085924
    12   6 C       13   8 O                                       1.2988767
    13   8 O       14   6 C                                       1.4366701
    12   6 C       15   6 C                                       1.4441153
    15   6 C       16   7 N                                       1.3062644
    17   7 N       18   6 C                                       1.3050341
    18   6 C       19   6 C                                       1.4748382
    15   6 C       20   8 O                                       1.3460406
    18   6 C       20   8 O                                       1.3403728
     7   6 C       21   7 N                                       1.3824796
    21   7 N       22   6 C                                       1.3773275
    22   6 C       23   8 O                                       1.2247382
     5   6 C       24   6 C                                       1.4226505
    24   6 C       25   8 O                                       1.2398950
     1   6 C       26   1 H                                       1.0948156
     1   6 C       27   1 H                                       1.0890000
     1   6 C       28   1 H                                       1.0948943
     9   6 C       29   1 H                                       1.0865511
     9   6 C       30   1 H                                       1.0892266
     9   6 C       31   1 H                                       1.0881475
    10   6 C       32   1 H                                       1.0889336
    10   6 C       33   1 H                                       1.0864544
    10   6 C       34   1 H                                       1.0893793
    11   7 N       35   1 H                                       1.0154468
    14   6 C       36   1 H                                       1.0899612
    14   6 C       37   1 H                                       1.0883340
    14   6 C       38   1 H                                       1.0899644
    19   6 C       39   1 H                                       1.0898452
    19   6 C       40   1 H                                       1.0908362
    19   6 C       41   1 H                                       1.0879637
    21   7 N       42   1 H                                       1.0044524 (min)

 * 5 distinct bonds (by element types)

   Z      Z             #   av. dist./Å        max./Å        min./Å
   1 H    6 C          15     1.0896205     1.0948943     1.0864544
   6 C    6 C           5     1.4807364     1.5331093     1.4226505
   1 H    7 N           2     1.0099496     1.0154468     1.0044524
   6 C    7 N           6     1.3264801     1.3824796     1.2791829
   6 C    8 O           9     1.3214524     1.4366701     1.2188278


optimized geometry written to: xtbopt.xyz


           -------------------------------------------------
          | TOTAL ENERGY              -82.971564549769 Eh   |
          | GRADIENT NORM               0.000713863216 Eh/α |
          | HOMO-LUMO GAP               0.229924486173 eV   |
           -------------------------------------------------

------------------------------------------------------------------------
 * finished run on 2023/06/21 at 17:18:15.334     
------------------------------------------------------------------------
 total:
 * wall-time:     0 d,  0 h,  0 min,  4.237 sec
 *  cpu-time:     0 d,  0 h,  0 min,  4.178 sec
 * ratio c/w:     0.986 speedup
 SCF:
 * wall-time:     0 d,  0 h,  0 min,  0.216 sec
 *  cpu-time:     0 d,  0 h,  0 min,  0.208 sec
 * ratio c/w:     0.965 speedup
 ANC optimizer:
 * wall-time:     0 d,  0 h,  0 min,  3.955 sec
 *  cpu-time:     0 d,  0 h,  0 min,  3.942 sec
 * ratio c/w:     0.997 speedup

