      -----------------------------------------------------------      
     |                   =====================                   |     
     |                           x T B                           |     
     |                   =====================                   |     
     |                         S. Grimme                         |     
     |          Mulliken Center for Theoretical Chemistry        |     
     |                    University of Bonn                     |     
      -----------------------------------------------------------      

   * xtb version 6.5.1 (579679a) compiled by 'ehlert@majestix' on 2022-07-11

   xtb is free software: you can redistribute it and/or modify it under
   the terms of the GNU Lesser General Public License as published by
   the Free Software Foundation, either version 3 of the License, or
   (at your option) any later version.
   
   xtb is distributed in the hope that it will be useful,
   but WITHOUT ANY WARRANTY; without even the implied warranty of
   MERCHANTABILITY or FITNESS FOR A PARTICULAR PURPOSE.  See the
   GNU Lesser General Public License for more details.
   
   Cite this work as:
   * C. Bannwarth, E. Caldeweyher, S. Ehlert, A. Hansen, P. Pracht,
     J. Seibert, S. Spicher, S. Grimme, WIREs Comput. Mol. Sci., 2020, 11,
     e01493. DOI: 10.1002/wcms.1493
   
   for GFN2-xTB:
   * C. Bannwarth, S. Ehlert and S. Grimme., J. Chem. Theory Comput., 2019,
     15, 1652-1671. DOI: 10.1021/acs.jctc.8b01176
   for GFN1-xTB:
   * S. Grimme, C. Bannwarth, P. Shushkov, J. Chem. Theory Comput., 2017,
     13, 1989-2009. DOI: 10.1021/acs.jctc.7b00118
   for GFN0-xTB:
   * P. Pracht, E. Caldeweyher, S. Ehlert, S. Grimme, ChemRxiv, 2019, preprint.
     DOI: 10.26434/chemrxiv.8326202.v1
   for GFN-FF:
   * S. Spicher and S. Grimme, Angew. Chem. Int. Ed., 2020, 59, 15665-15673.
     DOI: 10.1002/anie.202004239
   
   for ALPB and GBSA implicit solvation:
   * S. Ehlert, M. Stahn, S. Spicher, S. Grimme, J. Chem. Theory Comput.,
     2021, 17, 4250-4261. DOI: 10.1021/acs.jctc.1c00471
   
   for DFT-D4:
   * E. Caldeweyher, C. Bannwarth and S. Grimme, J. Chem. Phys., 2017,
     147, 034112. DOI: 10.1063/1.4993215
   * E. Caldeweyher, S. Ehlert, A. Hansen, H. Neugebauer, S. Spicher,
     C. Bannwarth and S. Grimme, J. Chem. Phys., 2019, 150, 154122.
     DOI: 10.1063/1.5090222
   * E. Caldeweyher, J.-M. Mewes, S. Ehlert and S. Grimme, Phys. Chem. Chem. Phys.
     2020, 22, 8499-8512. DOI: 10.1039/D0CP00502A
   
   for sTDA-xTB:
   * S. Grimme and C. Bannwarth, J. Chem. Phys., 2016, 145, 054103.
     DOI: 10.1063/1.4959605
   
   in the mass-spec context:
   * V. Asgeirsson, C. Bauer and S. Grimme, Chem. Sci., 2017, 8, 4879.
     DOI: 10.1039/c7sc00601b
   * J. Koopman and S. Grimme, ACS Omega 2019, 4, 12, 15120-15133.
     DOI: 10.1021/acsomega.9b02011
   
   for metadynamics refer to:
   * S. Grimme, J. Chem. Theory Comput., 2019, 155, 2847-2862
     DOI: 10.1021/acs.jctc.9b00143
   
   for SPH calculations refer to:
   * S. Spicher and S. Grimme, J. Chem. Theory Comput., 2021, 17, 1701-1714
     DOI: 10.1021/acs.jctc.0c01306
   
   with help from (in alphabetical order)
   P. Atkinson, C. Bannwarth, F. Bohle, G. Brandenburg, E. Caldeweyher
   M. Checinski, S. Dohm, S. Ehlert, S. Ehrlich, I. Gerasimov, C. Hölzer
   A. Katbashev, J. Koopman, C. Lavigne, S. Lehtola, F. März, M. Müller,
   F. Musil, H. Neugebauer, J. Pisarek, C. Plett, P. Pracht, F. Pultar,
   J. Seibert, P. Shushkov, S. Spicher, M. Stahn, M. Steiner, T. Strunk,
   J. Stückrath, T. Rose, and J. Unsleber
   
 * started run on 2023/06/20 at 14:52:35.583     

           -------------------------------------------------
          |                Calculation Setup                |
           -------------------------------------------------

          program call               : /lustre/hpc/kemi/ree/PhD/git/ReactivityQM/dep/xtb-6.5.1/bin/xtb --gfn 1 /lustre/hpc/kemi/ree/PhD/git/ReactivityQM/calculations/R01/reac01prodE01/conf08/R01_reac01prodE01_conf08_gfn1.xyz --opt --vfukui --chrg -1 --uhf 0 --alpb DMSO
          hostname                   : node312
          coordinate file            : /lustre/hpc/kemi/ree/PhD/git/ReactivityQM/calculations/R01/reac01prodE01/conf08/R01_reac01prodE01_conf08_gfn1.xyz
          omp threads                :                     1

   ID    Z sym.   atoms
    1    6 C      1, 3, 4, 6, 9, 10
    2    8 O      2, 5, 11
    3    7 N      7, 8
    4    1 H      12-20

           -------------------------------------------------
          |                 G F N 1 - x T B                 |
           -------------------------------------------------

        Reference                      10.1021/acs.jctc.7b00118
      * Hamiltonian:
        H0-scaling (s, p, d)           1.850000    2.250000    2.000000
        zeta-weighting                 0.000000
      * Dispersion:
        s8                             2.400000
        a1                             0.630000
        a2                             5.000000
        s9                             0.000000
      * Repulsion:
        kExp                           1.500000
        rExp                           1.000000
      * Coulomb:
        alpha                          2.000000
        third order                    atomic
        anisotropic                    false
      * Halogen bond correction:
        rad-scale                      1.300000
        damping                        0.440000

      * Solvation model:               ALPB
        Solvent                        DMSO
        Parameter file                 internal GFN1-xTB/ALPB
        Dielectric constant                4.6680E+01
        Reference state                gsolv [1 M gas/solution]
        Free energy shift                  7.6243E-03 Eh       4.7843E+00 kcal/mol
        Temperature                        2.9815E+02 K
        Density                            1.1000E+00 kg/L
        Solvent mass                       7.8130E+01 g/mol
        Interaction kernel             P16
        Born radius scaling (c1)           1.7672E+00
        Born radii integrator          GBOBC
        Born offset                        0.0000E+00 a0       0.0000E+00 AA
        H-bond correction              true
        Ion screening                  false
        Surface tension                    1.0000E-05 Eh       1.5569E+01 dyn/cm
        Grid points                               230 per atom

          ...................................................
          :                      SETUP                      :
          :.................................................:
          :  # basis functions                  62          :
          :  # atomic orbitals                  62          :
          :  # shells                           40          :
          :  # electrons                        62          :
          :  # halogen bonds                     0          :
          :  max. iterations                   250          :
          :  Hamiltonian                  GFN1-xTB          :
          :  restarted?                      false          :
          :  GBSA solvation                   true          :
          :  PC potential                    false          :
          :  electronic temp.          300.0000000     K    :
          :  accuracy                    1.0000000          :
          :  -> integral cutoff          0.2500000E+02      :
          :  -> integral neglect         0.1000000E-07      :
          :  -> SCF convergence          0.1000000E-05 Eh   :
          :  -> wf. convergence          0.2000000E-04 e    :
          :  Broyden damping             0.4000000          :
          ...................................................

 iter      E             dE          RMSdq      gap      omega  full diag
   1    -38.4946869 -0.384947E+02  0.819E+00    4.55       0.0  T
   2    -38.6172483 -0.122561E+00  0.489E+00    3.54       1.0  T
   3    -38.6131025  0.414577E-02  0.157E+00    2.44       1.0  T
   4    -38.6280754 -0.149729E-01  0.269E-01    2.19       1.0  T
   5    -38.6289959 -0.920509E-03  0.495E-02    2.55       1.0  T
   6    -38.6290305 -0.345879E-04  0.110E-02    2.55       2.0  T
   7    -38.6290315 -0.103974E-05  0.340E-03    2.55       6.6  T
   8    -38.6290316 -0.104559E-06  0.179E-03    2.55      12.5  T
   9    -38.6290316 -0.154273E-07  0.596E-04    2.55      37.5  T
  10    -38.6290316 -0.163523E-08  0.957E-05    2.55     233.8  T
  11    -38.6290316 -0.857483E-10  0.295E-05    2.55     757.4  T

   *** convergence criteria satisfied after 11 iterations ***

         #    Occupation            Energy/Eh            Energy/eV
      -------------------------------------------------------------
         1        2.0000           -0.8205260             -22.3276
       ...           ...                  ...                  ...
        25        2.0000           -0.4455340             -12.1236
        26        2.0000           -0.4398155             -11.9680
        27        2.0000           -0.4117681             -11.2048
        28        2.0000           -0.4042165             -10.9993
        29        2.0000           -0.4020257             -10.9397
        30        2.0000           -0.3481400              -9.4734
        31        2.0000           -0.3350918              -9.1183 (HOMO)
        32                         -0.2413093              -6.5664 (LUMO)
        33                         -0.2139774              -5.8226
        34                         -0.1321137              -3.5950
        35                         -0.0975958              -2.6557
        36                         -0.0832364              -2.2650
       ...                                ...                  ...
        62                          0.5433338              14.7849
      -------------------------------------------------------------
                  HL-Gap            0.0937825 Eh            2.5520 eV
             Fermi-level           -0.2882005 Eh           -7.8423 eV

 SCC (total)                   0 d,  0 h,  0 min,  0.045 sec
 SCC setup                      ...        0 min,  0.001 sec (  1.817%)
 Dispersion                     ...        0 min,  0.000 sec (  0.301%)
 classical contributions        ...        0 min,  0.000 sec (  0.105%)
 integral evaluation            ...        0 min,  0.011 sec ( 24.074%)
 iterations                     ...        0 min,  0.010 sec ( 22.035%)
 molecular gradient             ...        0 min,  0.023 sec ( 50.884%)
 printout                       ...        0 min,  0.000 sec (  0.704%)

         :::::::::::::::::::::::::::::::::::::::::::::::::::::
         ::                     SUMMARY                     ::
         :::::::::::::::::::::::::::::::::::::::::::::::::::::
         :: total energy             -38.330126995512 Eh    ::
         :: total w/o Gsasa/hb       -38.322626143686 Eh    ::
         :: gradient norm              0.102588683900 Eh/a0 ::
         :: HOMO-LUMO gap              2.551951115077 eV    ::
         ::.................................................::
         :: SCC energy               -38.629031622671 Eh    ::
         :: -> electrostatic           0.316535733993 Eh    ::
         :: -> Gsolv                  -0.104318342164 Eh    ::
         ::    -> Gelec               -0.096817490338 Eh    ::
         ::    -> Gsasa               -0.014234465043 Eh    ::
         ::    -> Ghb                 -0.000890665787 Eh    ::
         ::    -> Gshift               0.007624279005 Eh    ::
         :: repulsion energy           0.307541923508 Eh    ::
         :: dispersion energy         -0.008637296349 Eh    ::
         :: halogen bond corr.         0.000000000000 Eh    ::
         :: add. restraining           0.000000000000 Eh    ::
         :: total charge              -1.000000000000 e     ::
         :::::::::::::::::::::::::::::::::::::::::::::::::::::

      ----------------------------------------------------------- 
     |                   =====================                   |
     |                        A N C O P T                        |
     |                   =====================                   |
     |               Approximate Normal Coordinate               |
     |                Rational Function Optimizer                |
      ----------------------------------------------------------- 

          ...................................................
          :                      SETUP                      :
          :.................................................:
          :   optimization level            normal          :
          :   max. optcycles                   200          :
          :   ANC micro-cycles                  20          :
          :   degrees of freedom                54          :
          :.................................................:
          :   RF solver                   davidson          :
          :   write xtbopt.log                true          :
          :   linear?                        false          :
          :   energy convergence         0.5000000E-05 Eh   :
          :   grad. convergence          0.1000000E-02 Eh/α :
          :   maximium RF displ.         1.0000000          :
          :   Hlow (freq-cutoff)         0.1000000E-01      :
          :   Hmax (freq-cutoff)         5.0000000          :
          :   S6 in model hess.         20.0000000          :
          ...................................................

generating ANC from model Hessian ...
Using Lindh-Hessian (1995)
 Shifting diagonal of input Hessian by   8.602512796281223E-003
 Lowest  eigenvalues of input Hessian
    0.000000    0.000000    0.000000    0.000000    0.000000    0.000000
    0.010000    0.011190    0.013572    0.014386    0.015966    0.018029
    0.022955    0.025531    0.031916    0.036004    0.038217    0.050967
 Highest eigenvalues
    1.506493    1.607570    1.678285    1.752304    1.924799    2.041746
 

........................................................................
.............................. CYCLE    1 ..............................
........................................................................
   1    -38.6290316 -0.386290E+02  0.523E-06    2.55       0.0  T
   2    -38.6290316 -0.426326E-13  0.274E-06    2.55    8149.1  T
   3    -38.6290316 -0.213163E-13  0.939E-07    2.55   23808.7  T
     SCC iter.                  ...        0 min,  0.003 sec
     gradient                   ...        0 min,  0.023 sec
 * total energy  :   -38.3301270 Eh     change       -0.3687717E-11 Eh
   gradient norm :     0.1025887 Eh/α   predicted     0.0000000E+00 (-100.00%)
   displ. norm   :     0.2973531 α      lambda       -0.1187704E-01
   maximum displ.:     0.1968663 α      in ANC's #8, #1, #12, ...

........................................................................
.............................. CYCLE    2 ..............................
........................................................................
   1    -38.6399871 -0.386400E+02  0.129E-01    2.83       0.0  T
   2    -38.6403400 -0.352969E-03  0.551E-02    2.90       1.0  T
   3    -38.6403814 -0.413737E-04  0.175E-02    2.93       1.3  T
   4    -38.6403820 -0.547607E-06  0.877E-03    2.93       2.5  T
   5    -38.6403821 -0.843785E-07  0.168E-03    2.94      13.3  T
   6    -38.6403821 -0.152833E-07  0.382E-04    2.93      58.5  T
   7    -38.6403821 -0.115849E-08  0.118E-04    2.93     188.9  T
   8    -38.6403821 -0.926264E-10  0.337E-05    2.93     663.1  T
     SCC iter.                  ...        0 min,  0.007 sec
     gradient                   ...        0 min,  0.023 sec
 * total energy  :   -38.3384215 Eh     change       -0.8294545E-02 Eh
   gradient norm :     0.0586206 Eh/α   predicted    -0.6471383E-02 ( -21.98%)
   displ. norm   :     0.3003185 α      lambda       -0.5580786E-02
   maximum displ.:     0.2233157 α      in ANC's #8, #1, #5, ...

........................................................................
.............................. CYCLE    3 ..............................
........................................................................
   1    -38.6495850 -0.386496E+02  0.129E-01    3.11       0.0  T
   2    -38.6500115 -0.426506E-03  0.515E-02    3.20       1.0  T
   3    -38.6500456 -0.340840E-04  0.182E-02    3.24       1.2  T
   4    -38.6500464 -0.819751E-06  0.109E-02    3.25       2.1  T
   5    -38.6500465 -0.119989E-06  0.191E-03    3.25      11.7  T
   6    -38.6500465 -0.169983E-07  0.418E-04    3.25      53.5  T
   7    -38.6500465 -0.124859E-08  0.814E-05    3.25     274.7  T
   8    -38.6500465 -0.409415E-10  0.240E-05    3.25     930.6  T
     SCC iter.                  ...        0 min,  0.007 sec
     gradient                   ...        0 min,  0.023 sec
 * total energy  :   -38.3418566 Eh     change       -0.3435069E-02 Eh
   gradient norm :     0.0203574 Eh/α   predicted    -0.3042067E-02 ( -11.44%)
   displ. norm   :     0.1770258 α      lambda       -0.1055260E-02
   maximum displ.:     0.1170579 α      in ANC's #8, #5, #1, ...

........................................................................
.............................. CYCLE    4 ..............................
........................................................................
   1    -38.6516732 -0.386517E+02  0.469E-02    3.25       0.0  T
   2    -38.6517256 -0.523438E-04  0.179E-02    3.30       1.2  T
   3    -38.6517278 -0.224964E-05  0.870E-03    3.31       2.6  T
   4    -38.6517280 -0.150725E-06  0.480E-03    3.31       4.7  T
   5    -38.6517280 -0.339135E-07  0.467E-04    3.31      47.9  T
   6    -38.6517280 -0.247039E-08  0.148E-04    3.31     151.4  T
   7    -38.6517280 -0.192721E-09  0.369E-05    3.31     606.7  T
     SCC iter.                  ...        0 min,  0.006 sec
     gradient                   ...        0 min,  0.023 sec
 * total energy  :   -38.3425705 Eh     change       -0.7139003E-03 Eh
   gradient norm :     0.0104835 Eh/α   predicted    -0.5441663E-03 ( -23.78%)
   displ. norm   :     0.1485944 α      lambda       -0.4027681E-03
   maximum displ.:     0.0900786 α      in ANC's #5, #8, #1, ...

........................................................................
.............................. CYCLE    5 ..............................
........................................................................
   1    -38.6516425 -0.386516E+02  0.235E-02    3.29       0.0  T
   2    -38.6516510 -0.851223E-05  0.933E-03    3.31       2.4  T
   3    -38.6516511 -0.165097E-06  0.467E-03    3.31       4.8  T
   4    -38.6516512 -0.190698E-08  0.144E-03    3.31      15.5  T
   5    -38.6516512 -0.125281E-07  0.186E-04    3.31     120.4  T
   6    -38.6516512 -0.410324E-09  0.657E-05    3.31     340.3  T
     SCC iter.                  ...        0 min,  0.005 sec
     gradient                   ...        0 min,  0.023 sec
 * total energy  :   -38.3428312 Eh     change       -0.2606812E-03 Eh
   gradient norm :     0.0061992 Eh/α   predicted    -0.2058396E-03 ( -21.04%)
   displ. norm   :     0.1033147 α      lambda       -0.1267027E-03
   maximum displ.:     0.0702149 α      in ANC's #5, #1, #4, ...

........................................................................
.............................. CYCLE    6 ..............................
........................................................................
   1    -38.6517097 -0.386517E+02  0.114E-02    3.30       0.0  T
   2    -38.6517121 -0.241125E-05  0.440E-03    3.30       5.1  T
   3    -38.6517123 -0.155691E-06  0.198E-03    3.30      11.3  T
   4    -38.6517123 -0.655977E-08  0.871E-04    3.30      25.7  T
   5    -38.6517123 -0.132162E-08  0.131E-04    3.30     171.3  T
   6    -38.6517123 -0.131699E-09  0.448E-05    3.30     499.6  T
     SCC iter.                  ...        0 min,  0.005 sec
     gradient                   ...        0 min,  0.023 sec
 * total energy  :   -38.3429224 Eh     change       -0.9119837E-04 Eh
   gradient norm :     0.0043286 Eh/α   predicted    -0.6402809E-04 ( -29.79%)
   displ. norm   :     0.1053651 α      lambda       -0.8845635E-04
   maximum displ.:     0.0718315 α      in ANC's #5, #1, #7, ...

........................................................................
.............................. CYCLE    7 ..............................
........................................................................
   1    -38.6519943 -0.386520E+02  0.109E-02    3.30       0.0  T
   2    -38.6519966 -0.231429E-05  0.473E-03    3.30       4.7  T
   3    -38.6519968 -0.229878E-06  0.184E-03    3.30      12.1  T
   4    -38.6519968 -0.531669E-08  0.751E-04    3.30      29.8  T
   5    -38.6519968 -0.897437E-09  0.135E-04    3.30     165.4  T
   6    -38.6519968 -0.114831E-09  0.494E-05    3.30     452.5  T
     SCC iter.                  ...        0 min,  0.005 sec
     gradient                   ...        0 min,  0.023 sec
 * total energy  :   -38.3429815 Eh     change       -0.5912092E-04 Eh
   gradient norm :     0.0027862 Eh/α   predicted    -0.4471931E-04 ( -24.36%)
   displ. norm   :     0.0605619 α      lambda       -0.3263069E-04
   maximum displ.:     0.0385344 α      in ANC's #5, #7, #1, ...

........................................................................
.............................. CYCLE    8 ..............................
........................................................................
   1    -38.6523340 -0.386523E+02  0.637E-03    3.30       0.0  T
   2    -38.6523346 -0.589843E-06  0.315E-03    3.30       7.1  T
   3    -38.6523347 -0.719326E-07  0.158E-03    3.30      14.2  T
   4    -38.6523347 -0.230600E-08  0.348E-04    3.30      64.3  T
   5    -38.6523347 -0.299607E-09  0.810E-05    3.30     276.1  T
   6    -38.6523347 -0.543920E-10  0.273E-05    3.30     818.2  T
     SCC iter.                  ...        0 min,  0.005 sec
     gradient                   ...        0 min,  0.023 sec
 * total energy  :   -38.3430031 Eh     change       -0.2163843E-04 Eh
   gradient norm :     0.0018551 Eh/α   predicted    -0.1637578E-04 ( -24.32%)
   displ. norm   :     0.0531061 α      lambda       -0.1233070E-04
   maximum displ.:     0.0264297 α      in ANC's #5, #1, #7, ...

........................................................................
.............................. CYCLE    9 ..............................
........................................................................
   1    -38.6526054 -0.386526E+02  0.474E-03    3.30       0.0  T
   2    -38.6526057 -0.275282E-06  0.246E-03    3.30       9.1  T
   3    -38.6526057 -0.262543E-07  0.136E-03    3.30      16.4  T
   4    -38.6526057 -0.310185E-08  0.322E-04    3.30      69.3  T
   5    -38.6526057 -0.125205E-09  0.700E-05    3.30     319.5  T
   6    -38.6526057 -0.422702E-10  0.189E-05    3.30    1180.7  T
     SCC iter.                  ...        0 min,  0.005 sec
     gradient                   ...        0 min,  0.023 sec
 * total energy  :   -38.3430137 Eh     change       -0.1058930E-04 Eh
   gradient norm :     0.0014096 Eh/α   predicted    -0.6174817E-05 ( -41.69%)
   displ. norm   :     0.0363983 α      lambda       -0.6414493E-05
   maximum displ.:     0.0201843 α      in ANC's #2, #1, #4, ...

........................................................................
.............................. CYCLE   10 ..............................
........................................................................
   1    -38.6525883 -0.386526E+02  0.200E-03    3.30       0.0  T
   2    -38.6525884 -0.860136E-07  0.101E-03    3.30      22.0  T
   3    -38.6525884 -0.802755E-08  0.471E-04    3.30      47.5  T
   4    -38.6525884 -0.168015E-09  0.208E-04    3.30     107.4  T
   5    -38.6525884 -0.766960E-10  0.256E-05    3.30     872.8  T
   6    -38.6525884 -0.509459E-11  0.809E-06    3.30    2764.3  T
     SCC iter.                  ...        0 min,  0.005 sec
     gradient                   ...        0 min,  0.023 sec
 * total energy  :   -38.3430221 Eh     change       -0.8386547E-05 Eh
   gradient norm :     0.0011433 Eh/α   predicted    -0.3220077E-05 ( -61.60%)
   displ. norm   :     0.1560336 α      lambda       -0.2255793E-04
   maximum displ.:     0.0845833 α      in ANC's #2, #1, #4, ...

........................................................................
.............................. CYCLE   11 ..............................
........................................................................
   1    -38.6521183 -0.386521E+02  0.575E-03    3.30       0.0  T
   2    -38.6521189 -0.590335E-06  0.283E-03    3.30       7.9  T
   3    -38.6521190 -0.578322E-07  0.144E-03    3.30      15.5  T
   4    -38.6521190 -0.237895E-08  0.477E-04    3.30      46.9  T
   5    -38.6521190 -0.524693E-09  0.826E-05    3.30     270.8  T
   6    -38.6521190 -0.569358E-10  0.280E-05    3.30     798.5  T
     SCC iter.                  ...        0 min,  0.006 sec
     gradient                   ...        0 min,  0.023 sec
 * total energy  :   -38.3430457 Eh     change       -0.2354845E-04 Eh
   gradient norm :     0.0024150 Eh/α   predicted    -0.1140150E-04 ( -51.58%)
   displ. norm   :     0.1038230 α      lambda       -0.1594098E-04
   maximum displ.:     0.0553678 α      in ANC's #2, #9, #4, ...

........................................................................
.............................. CYCLE   12 ..............................
........................................................................
   1    -38.6519734 -0.386520E+02  0.328E-03    3.30       0.0  T
   2    -38.6519736 -0.243938E-06  0.157E-03    3.30      14.2  T
   3    -38.6519737 -0.216309E-07  0.754E-04    3.30      29.7  T
   4    -38.6519737 -0.120712E-08  0.298E-04    3.30      74.9  T
   5    -38.6519737 -0.879012E-10  0.608E-05    3.30     367.9  T
   6    -38.6519737 -0.278106E-10  0.176E-05    3.30    1273.1  T
     SCC iter.                  ...        0 min,  0.006 sec
     gradient                   ...        0 min,  0.023 sec
 * total energy  :   -38.3430593 Eh     change       -0.1360695E-04 Eh
   gradient norm :     0.0028584 Eh/α   predicted    -0.8061029E-05 ( -40.76%)
   displ. norm   :     0.2815217 α      lambda       -0.4131465E-04
   maximum displ.:     0.1486458 α      in ANC's #2, #9, #4, ...

........................................................................
.............................. CYCLE   13 ..............................
........................................................................
   1    -38.6505096 -0.386505E+02  0.113E-02    3.28       0.0  T
   2    -38.6505120 -0.234733E-05  0.554E-03    3.29       4.0  T
   3    -38.6505123 -0.276369E-06  0.276E-03    3.29       8.1  T
   4    -38.6505123 -0.108912E-07  0.834E-04    3.29      26.8  T
   5    -38.6505123 -0.972989E-09  0.177E-04    3.29     126.4  T
   6    -38.6505123 -0.248335E-09  0.488E-05    3.29     458.4  T
     SCC iter.                  ...        0 min,  0.006 sec
     gradient                   ...        0 min,  0.023 sec
 * total energy  :   -38.3430718 Eh     change       -0.1250571E-04 Eh
   gradient norm :     0.0058702 Eh/α   predicted    -0.2229733E-04 (  78.30%)
   displ. norm   :     0.0635619 α      lambda       -0.3810084E-04
   maximum displ.:     0.0343504 α      in ANC's #2, #1, #9, ...

........................................................................
.............................. CYCLE   14 ..............................
........................................................................
   1    -38.6521991 -0.386522E+02  0.841E-03    3.31       0.0  T
   2    -38.6521996 -0.542277E-06  0.378E-03    3.31       5.9  T
   3    -38.6521997 -0.795325E-07  0.229E-03    3.31       9.8  T
   4    -38.6521997 -0.659258E-08  0.168E-04    3.31     132.9  T
   5    -38.6521997 -0.251624E-09  0.463E-05    3.31     482.6  T
     SCC iter.                  ...        0 min,  0.005 sec
     gradient                   ...        0 min,  0.023 sec
 * total energy  :   -38.3430929 Eh     change       -0.2115042E-04 Eh
   gradient norm :     0.0022352 Eh/α   predicted    -0.1914203E-04 (  -9.50%)
   displ. norm   :     0.0709747 α      lambda       -0.2022743E-04
   maximum displ.:     0.0375748 α      in ANC's #9, #2, #5, ...

........................................................................
.............................. CYCLE   15 ..............................
........................................................................
   1    -38.6524939 -0.386525E+02  0.279E-03    3.31       0.0  T
   2    -38.6524940 -0.115860E-06  0.127E-03    3.31      17.6  T
   3    -38.6524940 -0.584443E-08  0.641E-04    3.31      34.9  T
   4    -38.6524940 -0.413330E-09  0.243E-04    3.31      91.9  T
   5    -38.6524940 -0.189871E-09  0.437E-05    3.31     511.6  T
   6    -38.6524940 -0.745359E-11  0.987E-06    3.31    2266.0  T
     SCC iter.                  ...        0 min,  0.006 sec
     gradient                   ...        0 min,  0.023 sec
 * total energy  :   -38.3431113 Eh     change       -0.1839302E-04 Eh
   gradient norm :     0.0016230 Eh/α   predicted    -0.1017249E-04 ( -44.69%)
   displ. norm   :     0.7153668 α      lambda       -0.1152903E-03
   maximum displ.:     0.3804221 α      in ANC's #9, #2, #7, ...

........................................................................
.............................. CYCLE   16 ..............................
........................................................................
   1    -38.6439273 -0.386439E+02  0.535E-02    3.19       0.0  T
   2    -38.6439630 -0.356661E-04  0.248E-02    3.22       1.0  T
   3    -38.6439694 -0.640075E-05  0.121E-02    3.22       1.8  T
   4    -38.6439695 -0.990843E-07  0.186E-03    3.22      12.0  T
   5    -38.6439695 -0.950960E-08  0.352E-04    3.22      63.6  T
   6    -38.6439695 -0.740840E-09  0.989E-05    3.22     226.1  T
   7    -38.6439695 -0.659455E-10  0.435E-05    3.22     514.6  T
     SCC iter.                  ...        0 min,  0.007 sec
     gradient                   ...        0 min,  0.023 sec
 * total energy  :   -38.3428504 Eh     change        0.2609463E-03 Eh
   gradient norm :     0.0235848 Eh/α   predicted    -0.7077446E-04 (-127.12%)
   displ. norm   :     0.3167159 α      lambda       -0.8106703E-03
   maximum displ.:     0.1597638 α      in ANC's #9, #2, #7, ...

........................................................................
.............................. CYCLE   17 ..............................
........................................................................
   1    -38.6515466 -0.386515E+02  0.435E-02    3.32       0.0  T
   2    -38.6515665 -0.198604E-04  0.203E-02    3.30       1.1  T
   3    -38.6515698 -0.328312E-05  0.112E-02    3.30       2.0  T
   4    -38.6515699 -0.940406E-07  0.105E-03    3.30      21.3  T
   5    -38.6515699 -0.861549E-08  0.146E-04    3.30     153.4  T
   6    -38.6515699 -0.200814E-09  0.478E-05    3.30     468.1  T
     SCC iter.                  ...        0 min,  0.005 sec
     gradient                   ...        0 min,  0.023 sec
 * total energy  :   -38.3432063 Eh     change       -0.3559101E-03 Eh
   gradient norm :     0.0045120 Eh/α   predicted    -0.4458475E-03 (  25.27%)
   displ. norm   :     0.0602801 α      lambda       -0.3647502E-04
   maximum displ.:     0.0411878 α      in ANC's #1, #9, #4, ...

........................................................................
.............................. CYCLE   18 ..............................
........................................................................
   1    -38.6524360 -0.386524E+02  0.399E-03    3.31       0.0  T
   2    -38.6524361 -0.164010E-06  0.185E-03    3.31      12.1  T
   3    -38.6524362 -0.224359E-07  0.100E-03    3.31      22.3  T
   4    -38.6524362 -0.137768E-08  0.180E-04    3.31     124.4  T
   5    -38.6524362 -0.555431E-10  0.421E-05    3.31     530.9  T
     SCC iter.                  ...        0 min,  0.004 sec
     gradient                   ...        0 min,  0.023 sec
 * total energy  :   -38.3432378 Eh     change       -0.3152108E-04 Eh
   gradient norm :     0.0033969 Eh/α   predicted    -0.1831958E-04 ( -41.88%)
   displ. norm   :     0.2460578 α      lambda       -0.1120716E-03
   maximum displ.:     0.1351007 α      in ANC's #1, #9, #4, ...

........................................................................
.............................. CYCLE   19 ..............................
........................................................................
   1    -38.6528175 -0.386528E+02  0.788E-03    3.33       0.0  T
   2    -38.6528186 -0.107291E-05  0.415E-03    3.33       5.4  T
   3    -38.6528188 -0.141810E-06  0.190E-03    3.33      11.8  T
   4    -38.6528188 -0.241297E-08  0.528E-04    3.33      42.3  T
   5    -38.6528188 -0.323645E-09  0.105E-04    3.33     212.9  T
   6    -38.6528188 -0.559837E-10  0.302E-05    3.33     741.0  T
     SCC iter.                  ...        0 min,  0.006 sec
     gradient                   ...        0 min,  0.024 sec
 * total energy  :   -38.3433255 Eh     change       -0.8764331E-04 Eh
   gradient norm :     0.0027500 Eh/α   predicted    -0.5957683E-04 ( -32.02%)
   displ. norm   :     0.4480744 α      lambda       -0.1453668E-03
   maximum displ.:     0.2263790 α      in ANC's #1, #9, #4, ...

........................................................................
.............................. CYCLE   20 ..............................
........................................................................
   1    -38.6485720 -0.386486E+02  0.205E-02    3.29       0.0  T
   2    -38.6485744 -0.232719E-05  0.924E-03    3.30       2.4  T
   3    -38.6485746 -0.229400E-06  0.555E-03    3.29       4.0  T
   4    -38.6485747 -0.663211E-07  0.742E-04    3.29      30.1  T
   5    -38.6485747 -0.242539E-08  0.187E-04    3.29     119.9  T
   6    -38.6485747 -0.135962E-09  0.429E-05    3.29     521.4  T
     SCC iter.                  ...        0 min,  0.005 sec
     gradient                   ...        0 min,  0.023 sec
 * total energy  :   -38.3433427 Eh     change       -0.1726001E-04 Eh
   gradient norm :     0.0101533 Eh/α   predicted    -0.8777294E-04 ( 408.53%)
   displ. norm   :     0.1995585 α      lambda       -0.1663680E-03
   maximum displ.:     0.0966689 α      in ANC's #9, #4, #1, ...
 * RMSD in coord.:     0.4030757 α      energy gain  -0.1321572E-01 Eh

generating ANC from model Hessian ...
Using Lindh-Hessian (1995)
 Shifting diagonal of input Hessian by   8.346210192151869E-003
 Lowest  eigenvalues of input Hessian
    0.000000    0.000000    0.000000    0.000000    0.000000    0.000000
    0.010000    0.010542    0.012830    0.013403    0.015337    0.017360
    0.022250    0.024805    0.031424    0.035068    0.036348    0.048570
 Highest eigenvalues
    1.466002    1.642533    1.768637    1.843362    1.998641    2.097603
 

........................................................................
.............................. CYCLE   21 ..............................
........................................................................
   1    -38.6524863 -0.386525E+02  0.173E-02    3.32       0.0  T
   2    -38.6524876 -0.125836E-05  0.829E-03    3.32       2.7  T
   3    -38.6524877 -0.127530E-06  0.468E-03    3.32       4.8  T
   4    -38.6524878 -0.616231E-07  0.566E-04    3.32      39.5  T
   5    -38.6524878 -0.975028E-09  0.115E-04    3.32     193.7  T
   6    -38.6524878 -0.630251E-10  0.306E-05    3.32     730.5  T
     SCC iter.                  ...        0 min,  0.005 sec
     gradient                   ...        0 min,  0.023 sec
 * total energy  :   -38.3433901 Eh     change       -0.4740450E-04 Eh
   gradient norm :     0.0026015 Eh/α   predicted     0.0000000E+00 (-100.00%)
   displ. norm   :     0.0222236 α      lambda       -0.1459166E-04
   maximum displ.:     0.0135892 α      in ANC's #5, #4, #7, ...

........................................................................
.............................. CYCLE   22 ..............................
........................................................................
   1    -38.6526992 -0.386527E+02  0.279E-03    3.32       0.0  T
   2    -38.6526993 -0.839121E-07  0.120E-03    3.32      18.6  T
   3    -38.6526993 -0.237213E-08  0.646E-04    3.32      34.6  T
   4    -38.6526993 -0.308759E-09  0.171E-04    3.32     130.9  T
   5    -38.6526993 -0.182155E-09  0.272E-05    3.32     821.7  T
     SCC iter.                  ...        0 min,  0.004 sec
     gradient                   ...        0 min,  0.023 sec
 * total energy  :   -38.3434021 Eh     change       -0.1196358E-04 Eh
   gradient norm :     0.0011745 Eh/α   predicted    -0.7811485E-05 ( -34.71%)
   displ. norm   :     0.0782794 α      lambda       -0.1954140E-04
   maximum displ.:     0.0432306 α      in ANC's #5, #4, #7, ...

........................................................................
.............................. CYCLE   23 ..............................
........................................................................
   1    -38.6529209 -0.386529E+02  0.586E-03    3.32       0.0  T
   2    -38.6529215 -0.604767E-06  0.237E-03    3.32       9.4  T
   3    -38.6529215 -0.146779E-07  0.122E-03    3.32      18.4  T
   4    -38.6529215 -0.699053E-09  0.447E-04    3.32      50.0  T
   5    -38.6529215 -0.661423E-09  0.668E-05    3.32     334.8  T
   6    -38.6529215 -0.556426E-10  0.176E-05    3.32    1270.4  T
     SCC iter.                  ...        0 min,  0.005 sec
     gradient                   ...        0 min,  0.023 sec
 * total energy  :   -38.3434178 Eh     change       -0.1568905E-04 Eh
   gradient norm :     0.0024407 Eh/α   predicted    -0.9798991E-05 ( -37.54%)
   displ. norm   :     0.0362625 α      lambda       -0.1111397E-04
   maximum displ.:     0.0194287 α      in ANC's #4, #5, #3, ...

........................................................................
.............................. CYCLE   24 ..............................
........................................................................
   1    -38.6528562 -0.386529E+02  0.109E-03    3.32       0.0  T
   2    -38.6528562 -0.199273E-07  0.455E-04    3.32      49.2  T
   3    -38.6528562 -0.842022E-09  0.242E-04    3.32      92.3  T
   4    -38.6528562 -0.127820E-09  0.962E-05    3.32     232.4  T
   5    -38.6528562 -0.157243E-10  0.158E-05    3.32    1415.5  T
     SCC iter.                  ...        0 min,  0.004 sec
     gradient                   ...        0 min,  0.023 sec
 * total energy  :   -38.3434283 Eh     change       -0.1053040E-04 Eh
   gradient norm :     0.0023641 Eh/α   predicted    -0.5565019E-05 ( -47.15%)
   displ. norm   :     0.3455681 α      lambda       -0.1038351E-03
   maximum displ.:     0.1888058 α      in ANC's #4, #5, #3, ...

........................................................................
.............................. CYCLE   25 ..............................
........................................................................
   1    -38.6505742 -0.386506E+02  0.107E-02    3.31       0.0  T
   2    -38.6505748 -0.584188E-06  0.506E-03    3.31       4.4  T
   3    -38.6505748 -0.180238E-07  0.219E-03    3.31      10.2  T
   4    -38.6505749 -0.156143E-07  0.551E-04    3.31      40.6  T
   5    -38.6505749 -0.134304E-08  0.121E-04    3.31     184.1  T
   6    -38.6505749 -0.613838E-10  0.372E-05    3.31     600.9  T
     SCC iter.                  ...        0 min,  0.005 sec
     gradient                   ...        0 min,  0.023 sec
 * total energy  :   -38.3434604 Eh     change       -0.3211445E-04 Eh
   gradient norm :     0.0063608 Eh/α   predicted    -0.5812421E-04 (  80.99%)
   displ. norm   :     0.1008169 α      lambda       -0.8287059E-04
   maximum displ.:     0.0571188 α      in ANC's #4, #5, #3, ...

........................................................................
.............................. CYCLE   26 ..............................
........................................................................
   1    -38.6525282 -0.386525E+02  0.981E-03    3.31       0.0  T
   2    -38.6525286 -0.341742E-06  0.495E-03    3.32       4.5  T
   3    -38.6525286 -0.608848E-08  0.148E-03    3.32      15.1  T
   4    -38.6525286 -0.706623E-08  0.465E-04    3.32      48.1  T
   5    -38.6525286 -0.133320E-08  0.832E-05    3.32     268.8  T
   6    -38.6525286 -0.228368E-10  0.180E-05    3.32    1242.6  T
     SCC iter.                  ...        0 min,  0.005 sec
     gradient                   ...        0 min,  0.023 sec
 * total energy  :   -38.3434946 Eh     change       -0.3416085E-04 Eh
   gradient norm :     0.0016419 Eh/α   predicted    -0.4185911E-04 (  22.54%)
   displ. norm   :     0.1384973 α      lambda       -0.2421004E-04
   maximum displ.:     0.0736165 α      in ANC's #4, #10, #7, ...

........................................................................
.............................. CYCLE   27 ..............................
........................................................................
   1    -38.6523476 -0.386523E+02  0.214E-03    3.31       0.0  T
   2    -38.6523477 -0.677174E-07  0.946E-04    3.32      23.6  T
   3    -38.6523477 -0.354058E-08  0.466E-04    3.32      47.9  T
   4    -38.6523477 -0.523968E-09  0.189E-04    3.32     118.5  T
   5    -38.6523477 -0.794245E-10  0.310E-05    3.32     721.6  T
     SCC iter.                  ...        0 min,  0.004 sec
     gradient                   ...        0 min,  0.023 sec
 * total energy  :   -38.3435269 Eh     change       -0.3228436E-04 Eh
   gradient norm :     0.0016624 Eh/α   predicted    -0.1221202E-04 ( -62.17%)
   displ. norm   :     0.5100523 α      lambda       -0.8144247E-04
   maximum displ.:     0.2666171 α      in ANC's #4, #10, #7, ...

........................................................................
.............................. CYCLE   28 ..............................
........................................................................
   1    -38.6478451 -0.386478E+02  0.240E-02    3.31       0.0  T
   2    -38.6478462 -0.107837E-05  0.123E-02    3.31       1.8  T
   3    -38.6478462 -0.397646E-07  0.306E-03    3.31       7.3  T
   4    -38.6478462 -0.294211E-07  0.931E-04    3.31      24.0  T
   5    -38.6478462 -0.439347E-08  0.202E-04    3.31     110.8  T
   6    -38.6478462 -0.175831E-09  0.440E-05    3.31     507.8  T
   7    -38.6478462 -0.173515E-10  0.118E-05    3.31    1891.0  T
     SCC iter.                  ...        0 min,  0.007 sec
     gradient                   ...        0 min,  0.022 sec
 * total energy  :   -38.3433675 Eh     change        0.1593970E-03 Eh
   gradient norm :     0.0143323 Eh/α   predicted    -0.4545653E-04 (-128.52%)
   displ. norm   :     0.2269115 α      lambda       -0.4859129E-03
   maximum displ.:     0.1246501 α      in ANC's #4, #10, #3, ...

........................................................................
.............................. CYCLE   29 ..............................
........................................................................
   1    -38.6521065 -0.386521E+02  0.201E-02    3.32       0.0  T
   2    -38.6521068 -0.272103E-06  0.106E-02    3.32       2.1  T
   3    -38.6521068 -0.169840E-07  0.182E-03    3.32      12.3  T
   4    -38.6521068 -0.104775E-07  0.645E-04    3.32      34.7  T
   5    -38.6521068 -0.303317E-08  0.722E-05    3.32     309.7  T
   6    -38.6521068 -0.337153E-10  0.198E-05    3.32    1126.9  T
     SCC iter.                  ...        0 min,  0.005 sec
     gradient                   ...        0 min,  0.030 sec
 * total energy  :   -38.3435894 Eh     change       -0.2219056E-03 Eh
   gradient norm :     0.0031283 Eh/α   predicted    -0.2554649E-03 (  15.12%)
   displ. norm   :     0.0334011 α      lambda       -0.1907990E-04
   maximum displ.:     0.0253632 α      in ANC's #10, #7, #4, ...

........................................................................
.............................. CYCLE   30 ..............................
........................................................................
   1    -38.6526244 -0.386526E+02  0.254E-03    3.32       0.0  T
   2    -38.6526245 -0.150012E-07  0.133E-03    3.32      16.8  T
   3    -38.6526245 -0.262666E-09  0.396E-04    3.32      56.5  T
   4    -38.6526245 -0.876639E-09  0.116E-04    3.32     192.0  T
   5    -38.6526245 -0.453539E-10  0.239E-05    3.32     935.9  T
     SCC iter.                  ...        0 min,  0.004 sec
     gradient                   ...        0 min,  0.023 sec
 * total energy  :   -38.3436050 Eh     change       -0.1565804E-04 Eh
   gradient norm :     0.0021074 Eh/α   predicted    -0.9550768E-05 ( -39.00%)
   displ. norm   :     0.1168893 α      lambda       -0.3772174E-04
   maximum displ.:     0.0801055 α      in ANC's #10, #7, #4, ...

........................................................................
.............................. CYCLE   31 ..............................
........................................................................
   1    -38.6531583 -0.386532E+02  0.351E-03    3.32       0.0  T
   2    -38.6531584 -0.115614E-06  0.189E-03    3.32      11.8  T
   3    -38.6531585 -0.885809E-08  0.895E-04    3.32      25.0  T
   4    -38.6531585 -0.212758E-08  0.273E-04    3.32      82.0  T
   5    -38.6531585 -0.158394E-09  0.598E-05    3.32     373.8  T
   6    -38.6531585 -0.128679E-10  0.151E-05    3.32    1478.1  T
     SCC iter.                  ...        0 min,  0.005 sec
     gradient                   ...        0 min,  0.023 sec
 * total energy  :   -38.3436336 Eh     change       -0.2856385E-04 Eh
   gradient norm :     0.0013547 Eh/α   predicted    -0.1911986E-04 ( -33.06%)
   displ. norm   :     0.3242611 α      lambda       -0.4181216E-04
   maximum displ.:     0.2078988 α      in ANC's #10, #4, #7, ...

........................................................................
.............................. CYCLE   32 ..............................
........................................................................
   1    -38.6510126 -0.386510E+02  0.109E-02    3.31       0.0  T
   2    -38.6510137 -0.111966E-05  0.533E-03    3.32       4.2  T
   3    -38.6510138 -0.117295E-06  0.283E-03    3.32       7.9  T
   4    -38.6510138 -0.185410E-07  0.640E-04    3.32      34.9  T
   5    -38.6510138 -0.693646E-09  0.115E-04    3.32     193.6  T
   6    -38.6510138 -0.359464E-10  0.312E-05    3.32     717.5  T
     SCC iter.                  ...        0 min,  0.005 sec
     gradient                   ...        0 min,  0.023 sec
 * total energy  :   -38.3436345 Eh     change       -0.9061188E-06 Eh
   gradient norm :     0.0053482 Eh/α   predicted    -0.2188435E-04 (2315.17%)
   displ. norm   :     0.1179949 α      lambda       -0.5750418E-04
   maximum displ.:     0.0772343 α      in ANC's #10, #7, #4, ...

........................................................................
.............................. CYCLE   33 ..............................
........................................................................
   1    -38.6527247 -0.386527E+02  0.766E-03    3.33       0.0  T
   2    -38.6527250 -0.304421E-06  0.361E-03    3.32       6.2  T
   3    -38.6527250 -0.367112E-07  0.202E-03    3.32      11.1  T
   4    -38.6527251 -0.113412E-07  0.284E-04    3.32      78.7  T
   5    -38.6527251 -0.147317E-09  0.601E-05    3.32     371.8  T
   6    -38.6527251 -0.172307E-10  0.147E-05    3.32    1521.5  T
     SCC iter.                  ...        0 min,  0.005 sec
     gradient                   ...        0 min,  0.023 sec
 * total energy  :   -38.3436615 Eh     change       -0.2697355E-04 Eh
   gradient norm :     0.0015108 Eh/α   predicted    -0.2916552E-04 (   8.13%)
   displ. norm   :     0.0244149 α      lambda       -0.4418348E-05
   maximum displ.:     0.0123117 α      in ANC's #4, #10, #3, ...

........................................................................
.............................. CYCLE   34 ..............................
........................................................................
   1    -38.6529451 -0.386529E+02  0.209E-03    3.33       0.0  T
   2    -38.6529452 -0.874990E-07  0.729E-04    3.32      30.7  T
   3    -38.6529452 -0.407123E-08  0.384E-04    3.32      58.2  T
   4    -38.6529452 -0.373454E-09  0.172E-04    3.32     130.1  T
   5    -38.6529452 -0.565237E-10  0.321E-05    3.32     697.5  T
     SCC iter.                  ...        0 min,  0.004 sec
     gradient                   ...        0 min,  0.023 sec
 * total energy  :   -38.3436670 Eh     change       -0.5551280E-05 Eh
   gradient norm :     0.0008253 Eh/α   predicted    -0.2212278E-05 ( -60.15%)
   displ. norm   :     0.1179907 α      lambda       -0.1147490E-04
   maximum displ.:     0.0600990 α      in ANC's #4, #10, #3, ...

........................................................................
.............................. CYCLE   35 ..............................
........................................................................
   1    -38.6529289 -0.386529E+02  0.530E-03    3.33       0.0  T
   2    -38.6529296 -0.684054E-06  0.170E-03    3.32      13.2  T
   3    -38.6529296 -0.235185E-07  0.879E-04    3.32      25.4  T
   4    -38.6529296 -0.196428E-08  0.452E-04    3.32      49.5  T
   5    -38.6529296 -0.369866E-09  0.719E-05    3.32     311.0  T
   6    -38.6529296 -0.497806E-10  0.293E-05    3.32     761.9  T
     SCC iter.                  ...        0 min,  0.005 sec
     gradient                   ...        0 min,  0.023 sec
 * total energy  :   -38.3436771 Eh     change       -0.1011255E-04 Eh
   gradient norm :     0.0013041 Eh/α   predicted    -0.5780216E-05 ( -42.84%)
   displ. norm   :     0.0472919 α      lambda       -0.3128274E-05
   maximum displ.:     0.0245727 α      in ANC's #4, #10, #3, ...

........................................................................
.............................. CYCLE   36 ..............................
........................................................................
   1    -38.6528944 -0.386529E+02  0.110E-03    3.32       0.0  T
   2    -38.6528944 -0.230508E-07  0.335E-04    3.32      66.8  T
   3    -38.6528944 -0.531934E-09  0.185E-04    3.32     121.0  T
   4    -38.6528944 -0.468106E-10  0.794E-05    3.32     281.8  T
     SCC iter.                  ...        0 min,  0.003 sec
     gradient                   ...        0 min,  0.023 sec
 * total energy  :   -38.3436807 Eh     change       -0.3516107E-05 Eh
   gradient norm :     0.0011997 Eh/α   predicted    -0.1567306E-05 ( -55.42%)
   displ. norm   :     0.0852312 α      lambda       -0.5427350E-05
   maximum displ.:     0.0475139 α      in ANC's #4, #3, #5, ...

........................................................................
.............................. CYCLE   37 ..............................
........................................................................
   1    -38.6530642 -0.386531E+02  0.149E-03    3.32       0.0  T
   2    -38.6530642 -0.346929E-07  0.593E-04    3.32      37.7  T
   3    -38.6530642 -0.229753E-08  0.326E-04    3.32      68.5  T
   4    -38.6530642 -0.301810E-09  0.117E-04    3.32     191.0  T
   5    -38.6530642 -0.165699E-10  0.192E-05    3.32    1163.8  T
     SCC iter.                  ...        0 min,  0.004 sec
     gradient                   ...        0 min,  0.023 sec
 * total energy  :   -38.3436857 Eh     change       -0.5070881E-05 Eh
   gradient norm :     0.0010291 Eh/α   predicted    -0.2723414E-05 ( -46.29%)
   displ. norm   :     0.0317188 α      lambda       -0.3006151E-05
   maximum displ.:     0.0200106 α      in ANC's #4, #3, #1, ...

........................................................................
.............................. CYCLE   38 ..............................
........................................................................
   1    -38.6532682 -0.386533E+02  0.263E-03    3.32       0.0  T
   2    -38.6532684 -0.172926E-06  0.982E-04    3.32      22.8  T
   3    -38.6532684 -0.632542E-08  0.517E-04    3.32      43.2  T
   4    -38.6532684 -0.518000E-09  0.248E-04    3.32      90.3  T
   5    -38.6532684 -0.100293E-09  0.337E-05    3.32     664.0  T
   6    -38.6532684 -0.155751E-10  0.126E-05    3.32    1768.3  T
     SCC iter.                  ...        0 min,  0.005 sec
     gradient                   ...        0 min,  0.023 sec
 * total energy  :   -38.3436887 Eh     change       -0.3009814E-05 Eh
   gradient norm :     0.0006915 Eh/α   predicted    -0.1507566E-05 ( -49.91%)
   displ. norm   :     0.0848670 α      lambda       -0.3742552E-05
   maximum displ.:     0.0539574 α      in ANC's #4, #3, #5, ...

   *** GEOMETRY OPTIMIZATION CONVERGED AFTER 38 ITERATIONS ***

------------------------------------------------------------------------
 total energy gain   :        -0.0135617 Eh       -8.5101 kcal/mol
 total RMSD          :         0.6357644 a0        0.3364 Å
 total power (kW/mol):        -0.9370091 (step)  -23.2789 (real)
------------------------------------------------------------------------

 ANCopt (total)                0 d,  0 h,  0 min,  1.530 sec
 optimizer setup                ...        0 min,  0.001 sec (  0.051%)
 model hessian                  ...        0 min,  0.012 sec (  0.797%)
 ANC generation                 ...        0 min,  0.001 sec (  0.091%)
 coordinate transformation      ...        0 min,  0.001 sec (  0.034%)
 single point calculation       ...        0 min,  1.499 sec ( 98.016%)
 optimization log               ...        0 min,  0.007 sec (  0.466%)
 hessian update                 ...        0 min,  0.001 sec (  0.036%)
 rational function              ...        0 min,  0.004 sec (  0.293%)

================
 final structure:
================
20
 xtb: 6.5.1 (579679a)
C           -1.49894729576804        2.09680530629066       -0.04168239327043
O           -1.79022714110432        0.80612109228322        0.43690756534798
C           -1.44588040216032       -0.30385550836631       -0.51702272540331
C           -2.31051196696059       -1.48814535536186        0.02257617224629
O           -1.58690769701628       -0.02467018047381       -1.76535677558239
C            0.04816548532757       -0.67530715026777       -0.16325254642426
N            0.54144127431909       -1.87269485013142       -0.08062642031307
N            1.90620704436967       -1.73734291735447        0.09624444490179
C            2.14294400475692       -0.46902027129415        0.10266581728027
C            3.45536350005931        0.20337638707258        0.26312904030869
O            1.02091731246603        0.25858107451194       -0.05928088719583
H           -0.43211043037127        2.34553436392548        0.07121392770721
H           -1.76845259403399        2.20508708935290       -1.10340855397266
H           -2.08409437638316        2.81487648854807        0.54125565809958
H           -2.16392543882357       -1.62035545188515        1.09279574827859
H           -3.35650761834143       -1.26485047846998       -0.17746828626632
H           -2.02889825538024       -2.39954579113912       -0.50173046195890
H            3.65657691441230        0.84818486890978       -0.59218377580587
H            4.23899927485259       -0.54533534213894        0.34329736030802
H            3.45584740577971        0.82255662598834        1.15923509171450
 
 Bond Distances (Angstroems)
 ---------------------------
C1-O2=1.4070         C1-H12=1.1013        C1-H13=1.1007        C1-H14=1.0945        O2-C1=1.4070         O2-C3=1.5035         
C3-O2=1.5035         C3-C4=1.5625         C3-O5=1.2869         C3-C6=1.5797         C4-C3=1.5625         C4-H15=1.0883        
C4-H16=1.0881        C4-H17=1.0885        O5-C3=1.2869         C6-C3=1.5797         C6-N7=1.2976         C6-O11=1.3525        
N7-C6=1.2976         N7-N8=1.3828         N8-N7=1.3828         N8-C9=1.2902         C9-N8=1.2902         C9-C10=1.4833        
C9-O11=1.3471        C10-C9=1.4833        C10-H18=1.0899       C10-H19=1.0868       C10-H20=1.0892       O11-C6=1.3525        
O11-C9=1.3471        H12-C1=1.1013        H13-C1=1.1007        H14-C1=1.0945        H15-C4=1.0883        H16-C4=1.0881        
H17-C4=1.0885        H18-C10=1.0899       H19-C10=1.0868       H20-C10=1.0892       
 C  H  Rav=1.0919 sigma=0.0053  Rmin=1.0868  Rmax=1.1013     9
 C  C  Rav=1.5418 sigma=0.0419  Rmin=1.4833  Rmax=1.5797     3
 N  C  Rav=1.2939 sigma=0.0037  Rmin=1.2902  Rmax=1.2976     2
 N  N  Rav=1.3828 sigma=0.0000  Rmin=1.3828  Rmax=1.3828     1
 O  C  Rav=1.3794 sigma=0.0728  Rmin=1.2869  Rmax=1.5035     5
 
 selected bond angles (degree)
 --------------------
H12-C1-O2=111.89               H13-C1-O2=111.57               H13-C1-H12=108.29              H14-C1-O2=108.06               
H14-C1-H12=108.37              H14-C1-H13=108.56              C3-O2-C1=114.46                C4-C3-O2=102.34                
O5-C3-O2=115.48                O5-C3-C4=116.03                C6-C3-O2=104.37                C6-C3-C4=105.53                
C6-C3-O5=111.83                H15-C4-C3=110.93               H16-C4-C3=108.24               H16-C4-H15=109.59              
H17-C4-C3=108.97               H17-C4-H15=109.70              H17-C4-H16=109.39              N7-C6-C3=126.21                
O11-C6-C3=122.35               O11-C6-N7=111.03               N8-N7-C6=107.04                C9-N8-N7=106.14                
C10-C9-N8=127.48               O11-C9-N8=112.18               O11-C9-C10=120.34              H18-C10-C9=110.28              
H19-C10-C9=109.49              H19-C10-H18=109.41             H20-C10-C9=110.31              H20-C10-H18=108.01             
H20-C10-H19=109.31             
 
 selected dihedral angles (degree)
 ---------------------------------
C3-O2-C1-H12=279.85           C3-O2-C1-H13= 41.35           C3-O2-C1-H14=160.62           C4-C3-O2-C1=199.39            
O5-C3-O2-C1=326.39            C6-C3-O2-C1= 89.57            H15-C4-C3-O2=309.45           H15-C4-C3-O5=182.80           
H15-C4-C3-C6= 58.38           H16-C4-C3-O2= 69.70           H16-C4-C3-O5=303.05           H16-C4-C3-C6=178.63           
H17-C4-C3-O2=188.57           H17-C4-C3-O5= 61.93           H17-C4-C3-C6=297.50           N7-C6-C3-O2=138.05            
N7-C6-C3-C4= 30.58            N7-C6-C3-O5=263.57            O11-C6-C3-O2=310.05           O11-C6-C3-C4=202.58           
O11-C6-C3-O5= 75.57           N8-N7-C6-C3=173.19            N8-N7-C6-O11=  0.43           C9-N8-N7-C6=359.74            
C10-C9-N8-N7=179.95           O11-C9-N8-N7=  0.00           H18-C10-C9-N8=122.56          H18-C10-C9-O11=302.52         
H19-C10-C9-N8=  2.12          H19-C10-C9-O11=182.08         H20-C10-C9-N8=241.79          H20-C10-C9-O11= 61.75         
           -------------------------------------------------
          |                Final Singlepoint                |
           -------------------------------------------------

          ...................................................
          :                      SETUP                      :
          :.................................................:
          :  # basis functions                  62          :
          :  # atomic orbitals                  62          :
          :  # shells                           40          :
          :  # electrons                        62          :
          :  # halogen bonds                     0          :
          :  max. iterations                   250          :
          :  Hamiltonian                  GFN1-xTB          :
          :  restarted?                      false          :
          :  GBSA solvation                   true          :
          :  PC potential                    false          :
          :  electronic temp.          300.0000000     K    :
          :  accuracy                    1.0000000          :
          :  -> integral cutoff          0.2500000E+02      :
          :  -> integral neglect         0.1000000E-07      :
          :  -> SCF convergence          0.1000000E-05 Eh   :
          :  -> wf. convergence          0.2000000E-04 e    :
          :  Broyden damping             0.4000000          :
          ...................................................

 iter      E             dE          RMSdq      gap      omega  full diag
   1    -38.6532684 -0.386533E+02  0.561E-06    3.32       0.0  T
   2    -38.6532684 -0.781597E-13  0.284E-06    3.32    7867.8  T
   3    -38.6532684 -0.497380E-13  0.672E-07    3.32   33293.5  T

   *** convergence criteria satisfied after 3 iterations ***

         #    Occupation            Energy/Eh            Energy/eV
      -------------------------------------------------------------
         1        2.0000           -0.8202481             -22.3201
       ...           ...                  ...                  ...
        25        2.0000           -0.4455412             -12.1238
        26        2.0000           -0.4388073             -11.9406
        27        2.0000           -0.4175372             -11.3618
        28        2.0000           -0.4142277             -11.2717
        29        2.0000           -0.4040794             -10.9956
        30        2.0000           -0.3681405             -10.0176
        31        2.0000           -0.3498193              -9.5191 (HOMO)
        32                         -0.2277423              -6.1972 (LUMO)
        33                         -0.2130819              -5.7983
        34                         -0.1301538              -3.5417
        35                         -0.0992714              -2.7013
        36                         -0.0845543              -2.3008
       ...                                ...                  ...
        62                          0.6064287              16.5018
      -------------------------------------------------------------
                  HL-Gap            0.1220770 Eh            3.3219 eV
             Fermi-level           -0.2887808 Eh           -7.8581 eV

 SCC (total)                   0 d,  0 h,  0 min,  0.037 sec
 SCC setup                      ...        0 min,  0.001 sec (  2.275%)
 Dispersion                     ...        0 min,  0.000 sec (  0.260%)
 classical contributions        ...        0 min,  0.000 sec (  0.091%)
 integral evaluation            ...        0 min,  0.011 sec ( 28.618%)
 iterations                     ...        0 min,  0.003 sec (  7.458%)
 molecular gradient             ...        0 min,  0.023 sec ( 60.345%)
 printout                       ...        0 min,  0.000 sec (  0.843%)

         :::::::::::::::::::::::::::::::::::::::::::::::::::::
         ::                     SUMMARY                     ::
         :::::::::::::::::::::::::::::::::::::::::::::::::::::
         :: total energy             -38.343688735956 Eh    ::
         :: total w/o Gsasa/hb       -38.335936642573 Eh    ::
         :: gradient norm              0.000692963190 Eh/a0 ::
         :: HOMO-LUMO gap              3.321885267159 eV    ::
         ::.................................................::
         :: SCC energy               -38.653268427890 Eh    ::
         :: -> electrostatic           0.306204112203 Eh    ::
         :: -> Gsolv                  -0.103030059020 Eh    ::
         ::    -> Gelec               -0.095277965636 Eh    ::
         ::    -> Gsasa               -0.014485604257 Eh    ::
         ::    -> Ghb                 -0.000890768132 Eh    ::
         ::    -> Gshift               0.007624279005 Eh    ::
         :: repulsion energy           0.318092469961 Eh    ::
         :: dispersion energy         -0.008512778027 Eh    ::
         :: halogen bond corr.         0.000000000000 Eh    ::
         :: add. restraining           0.000000000000 Eh    ::
         :: total charge              -1.000000000000 e     ::
         :::::::::::::::::::::::::::::::::::::::::::::::::::::

           -------------------------------------------------
          |                Property Printout                |
           -------------------------------------------------

    * Orbital Energies and Occupations

         #    Occupation            Energy/Eh            Energy/eV
      -------------------------------------------------------------
         1        2.0000           -0.8202481             -22.3201
       ...           ...                  ...                  ...
        19        2.0000           -0.5070727             -13.7982
        20        2.0000           -0.5027156             -13.6796
        21        2.0000           -0.4803298             -13.0704
        22        2.0000           -0.4730014             -12.8710
        23        2.0000           -0.4624993             -12.5852
        24        2.0000           -0.4615224             -12.5587
        25        2.0000           -0.4455412             -12.1238
        26        2.0000           -0.4388073             -11.9406
        27        2.0000           -0.4175372             -11.3618
        28        2.0000           -0.4142277             -11.2717
        29        2.0000           -0.4040794             -10.9956
        30        2.0000           -0.3681405             -10.0176
        31        2.0000           -0.3498193              -9.5191 (HOMO)
        32                         -0.2277423              -6.1972 (LUMO)
        33                         -0.2130819              -5.7983
        34                         -0.1301538              -3.5417
        35                         -0.0992714              -2.7013
        36                         -0.0845543              -2.3008
        37                         -0.0629973              -1.7142
        38                         -0.0620018              -1.6872
        39                         -0.0361465              -0.9836
        40                         -0.0327151              -0.8902
        41                         -0.0282607              -0.7690
        42                         -0.0254765              -0.6933
       ...                                ...                  ...
        62                          0.6064287              16.5018
      -------------------------------------------------------------
                  HL-Gap            0.1220770 Eh            3.3219 eV
             Fermi-level           -0.2887808 Eh           -7.8581 eV

  Mulliken/CM5 charges         n(s)   n(p)   n(d)
     1C     0.18513  0.06842   0.960  2.855  0.000
     2O    -0.54873 -0.63122   1.720  4.829  0.000
     3C     0.46394  0.50532   0.990  2.546  0.000
     4C    -0.12111 -0.25954   1.020  3.101  0.000
     5O    -0.80538 -0.85136   1.744  5.061  0.000
     6C     0.33082  0.45086   1.059  2.610  0.000
     7N    -0.31291 -0.42183   1.578  3.735  0.000
     8N    -0.31008 -0.41888   1.576  3.734  0.000
     9C     0.36775  0.47753   0.997  2.635  0.000
    10C    -0.11099 -0.24850   1.009  3.102  0.000
    11O    -0.36537 -0.41982   1.699  4.666  0.000
    12H    -0.00578  0.05601   1.006  0.000  0.000
    13H     0.01338  0.07754   0.987  0.000  0.000
    14H    -0.00035  0.05915   1.000  0.000  0.000
    15H     0.01022  0.06767   0.990  0.000  0.000
    16H     0.02213  0.07861   0.978  0.000  0.000
    17H     0.01137  0.06931   0.989  0.000  0.000
    18H     0.06155  0.11597   0.938  0.000  0.000
    19H     0.05322  0.10913   0.947  0.000  0.000
    20H     0.06118  0.11560   0.939  0.000  0.000

Wiberg/Mayer (AO) data.
largest (>0.10) Wiberg bond orders for each atom

 ---------------------------------------------------------------------------
     #   Z sym  total        # sym  WBO       # sym  WBO       # sym  WBO
 ---------------------------------------------------------------------------
     1   6 C    3.930 --    14 H    0.985    12 H    0.980    13 H    0.975
                             2 O    0.969
     2   8 O    1.946 --     1 C    0.969     3 C    0.799
     3   6 C    3.901 --     5 O    1.249     4 C    0.938     6 C    0.866
                             2 O    0.799
     4   6 C    3.993 --    15 H    0.990    17 H    0.988    16 H    0.987
                             3 C    0.938
     5   8 O    1.552 --     3 C    1.249
     6   6 C    3.804 --     7 N    1.651    11 O    1.053     3 C    0.866
     7   7 N    2.965 --     6 C    1.651     8 N    1.149
     8   7 N    2.976 --     9 C    1.655     7 N    1.149
     9   6 C    3.888 --     8 N    1.655    11 O    1.065    10 C    1.024
    10   6 C    3.993 --     9 C    1.024    19 H    0.985    18 H    0.971
                            20 H    0.969
    11   8 O    2.306 --     9 C    1.065     6 C    1.053
    12   1 H    1.025 --     1 C    0.980
    13   1 H    1.032 --     1 C    0.975
    14   1 H    1.022 --     1 C    0.985
    15   1 H    1.014 --     4 C    0.990
    16   1 H    1.017 --     4 C    0.987
    17   1 H    1.020 --     4 C    0.988
    18   1 H    1.002 --    10 C    0.971
    19   1 H    1.003 --    10 C    0.985
    20   1 H    1.002 --    10 C    0.969
 ---------------------------------------------------------------------------

Topologies differ in total number of bonds
Writing topology from bond orders to xtbtopo.mol

 dipole moment from electron density (au)
     X       Y       Z   
   2.8288   1.8259   2.0099  total (Debye):    9.967

           -------------------------------------------------
          |                Geometry Summary                 |
           -------------------------------------------------

      molecular mass/u    :      157.1475033
   center of mass at/Å    :        0.0050704      -0.2439352      -0.1600477
  moments of inertia/u·Å² :        0.2514368E+03   0.6205046E+03   0.7700465E+03
rotational constants/cm⁻¹ :        0.6704522E-01   0.2716762E-01   0.2189171E-01

 * 16 selected distances

     #   Z          #   Z                                           value/Å
     1   6 C        2   8 O                                       1.4070389
     3   6 C        5   8 O                                       1.2869232
     6   6 C        7   7 N                                       1.2976462
     8   7 N        9   6 C                                       1.2902435
     9   6 C       10   6 C                                       1.4833445 (max)
     6   6 C       11   8 O                                       1.3524806
     9   6 C       11   8 O                                       1.3470615
     1   6 C       12   1 H                                       1.1012506
     1   6 C       13   1 H                                       1.1007364
     1   6 C       14   1 H                                       1.0944589
     4   6 C       15   1 H                                       1.0882726
     4   6 C       16   1 H                                       1.0881110
     4   6 C       17   1 H                                       1.0885103
    10   6 C       18   1 H                                       1.0898739
    10   6 C       19   1 H                                       1.0867757 (min)
    10   6 C       20   1 H                                       1.0892156

 * 4 distinct bonds (by element types)

   Z      Z             #   av. dist./Å        max./Å        min./Å
   1 H    6 C           9     1.0919117     1.1012506     1.0867757
   6 C    6 C           1     1.4833445     1.4833445     1.4833445
   6 C    7 N           2     1.2939449     1.2976462     1.2902435
   6 C    8 O           4     1.3483760     1.4070389     1.2869232


optimized geometry written to: xtbopt.xyz


           -------------------------------------------------
          | TOTAL ENERGY              -38.343688735956 Eh   |
          | GRADIENT NORM               0.000692963190 Eh/α |
          | HOMO-LUMO GAP               3.321885267159 eV   |
           -------------------------------------------------

------------------------------------------------------------------------
 * finished run on 2023/06/20 at 14:52:37.285     
------------------------------------------------------------------------
 total:
 * wall-time:     0 d,  0 h,  0 min,  1.702 sec
 *  cpu-time:     0 d,  0 h,  0 min,  1.623 sec
 * ratio c/w:     0.954 speedup
 SCF:
 * wall-time:     0 d,  0 h,  0 min,  0.045 sec
 *  cpu-time:     0 d,  0 h,  0 min,  0.045 sec
 * ratio c/w:     0.993 speedup
 ANC optimizer:
 * wall-time:     0 d,  0 h,  0 min,  1.572 sec
 *  cpu-time:     0 d,  0 h,  0 min,  1.552 sec
 * ratio c/w:     0.987 speedup

