      -----------------------------------------------------------      
     |                   =====================                   |     
     |                           x T B                           |     
     |                   =====================                   |     
     |                         S. Grimme                         |     
     |          Mulliken Center for Theoretical Chemistry        |     
     |                    University of Bonn                     |     
      -----------------------------------------------------------      

   * xtb version 6.5.1 (579679a) compiled by 'ehlert@majestix' on 2022-07-11

   xtb is free software: you can redistribute it and/or modify it under
   the terms of the GNU Lesser General Public License as published by
   the Free Software Foundation, either version 3 of the License, or
   (at your option) any later version.
   
   xtb is distributed in the hope that it will be useful,
   but WITHOUT ANY WARRANTY; without even the implied warranty of
   MERCHANTABILITY or FITNESS FOR A PARTICULAR PURPOSE.  See the
   GNU Lesser General Public License for more details.
   
   Cite this work as:
   * C. Bannwarth, E. Caldeweyher, S. Ehlert, A. Hansen, P. Pracht,
     J. Seibert, S. Spicher, S. Grimme, WIREs Comput. Mol. Sci., 2020, 11,
     e01493. DOI: 10.1002/wcms.1493
   
   for GFN2-xTB:
   * C. Bannwarth, S. Ehlert and S. Grimme., J. Chem. Theory Comput., 2019,
     15, 1652-1671. DOI: 10.1021/acs.jctc.8b01176
   for GFN1-xTB:
   * S. Grimme, C. Bannwarth, P. Shushkov, J. Chem. Theory Comput., 2017,
     13, 1989-2009. DOI: 10.1021/acs.jctc.7b00118
   for GFN0-xTB:
   * P. Pracht, E. Caldeweyher, S. Ehlert, S. Grimme, ChemRxiv, 2019, preprint.
     DOI: 10.26434/chemrxiv.8326202.v1
   for GFN-FF:
   * S. Spicher and S. Grimme, Angew. Chem. Int. Ed., 2020, 59, 15665-15673.
     DOI: 10.1002/anie.202004239
   
   for ALPB and GBSA implicit solvation:
   * S. Ehlert, M. Stahn, S. Spicher, S. Grimme, J. Chem. Theory Comput.,
     2021, 17, 4250-4261. DOI: 10.1021/acs.jctc.1c00471
   
   for DFT-D4:
   * E. Caldeweyher, C. Bannwarth and S. Grimme, J. Chem. Phys., 2017,
     147, 034112. DOI: 10.1063/1.4993215
   * E. Caldeweyher, S. Ehlert, A. Hansen, H. Neugebauer, S. Spicher,
     C. Bannwarth and S. Grimme, J. Chem. Phys., 2019, 150, 154122.
     DOI: 10.1063/1.5090222
   * E. Caldeweyher, J.-M. Mewes, S. Ehlert and S. Grimme, Phys. Chem. Chem. Phys.
     2020, 22, 8499-8512. DOI: 10.1039/D0CP00502A
   
   for sTDA-xTB:
   * S. Grimme and C. Bannwarth, J. Chem. Phys., 2016, 145, 054103.
     DOI: 10.1063/1.4959605
   
   in the mass-spec context:
   * V. Asgeirsson, C. Bauer and S. Grimme, Chem. Sci., 2017, 8, 4879.
     DOI: 10.1039/c7sc00601b
   * J. Koopman and S. Grimme, ACS Omega 2019, 4, 12, 15120-15133.
     DOI: 10.1021/acsomega.9b02011
   
   for metadynamics refer to:
   * S. Grimme, J. Chem. Theory Comput., 2019, 155, 2847-2862
     DOI: 10.1021/acs.jctc.9b00143
   
   for SPH calculations refer to:
   * S. Spicher and S. Grimme, J. Chem. Theory Comput., 2021, 17, 1701-1714
     DOI: 10.1021/acs.jctc.0c01306
   
   with help from (in alphabetical order)
   P. Atkinson, C. Bannwarth, F. Bohle, G. Brandenburg, E. Caldeweyher
   M. Checinski, S. Dohm, S. Ehlert, S. Ehrlich, I. Gerasimov, C. Hölzer
   A. Katbashev, J. Koopman, C. Lavigne, S. Lehtola, F. März, M. Müller,
   F. Musil, H. Neugebauer, J. Pisarek, C. Plett, P. Pracht, F. Pultar,
   J. Seibert, P. Shushkov, S. Spicher, M. Stahn, M. Steiner, T. Strunk,
   J. Stückrath, T. Rose, and J. Unsleber
   
 * started run on 2023/06/20 at 14:52:06.200     

           -------------------------------------------------
          |                Calculation Setup                |
           -------------------------------------------------

          program call               : /lustre/hpc/kemi/ree/PhD/git/ReactivityQM/dep/xtb-6.5.1/bin/xtb --gfn 1 /lustre/hpc/kemi/ree/PhD/git/ReactivityQM/calculations/RaltegravirCLI/reac01prodE01/conf10/RaltegravirCLI_reac01prodE01_conf10_gfn1.xyz --opt --vfukui --chrg -1 --uhf 0 --alpb DMSO
          hostname                   : node308
          coordinate file            : /lustre/hpc/kemi/ree/PhD/git/ReactivityQM/calculations/RaltegravirCLI/reac01prodE01/conf10/RaltegravirCLI_reac01prodE01_conf10_gfn1.xyz
          omp threads                :                     1

   ID    Z sym.   atoms
    1    6 C      1, 2, 5-7
    2    7 N      3, 4
    3    8 O      8, 10
    4   17 Cl     9
    5    1 H      11-16

           -------------------------------------------------
          |                 G F N 1 - x T B                 |
           -------------------------------------------------

        Reference                      10.1021/acs.jctc.7b00118
      * Hamiltonian:
        H0-scaling (s, p, d)           1.850000    2.250000    2.000000
        zeta-weighting                 0.000000
      * Dispersion:
        s8                             2.400000
        a1                             0.630000
        a2                             5.000000
        s9                             0.000000
      * Repulsion:
        kExp                           1.500000
        rExp                           1.000000
      * Coulomb:
        alpha                          2.000000
        third order                    atomic
        anisotropic                    false
      * Halogen bond correction:
        rad-scale                      1.300000
        damping                        0.440000

      * Solvation model:               ALPB
        Solvent                        DMSO
        Parameter file                 internal GFN1-xTB/ALPB
        Dielectric constant                4.6680E+01
        Reference state                gsolv [1 M gas/solution]
        Free energy shift                  7.6243E-03 Eh       4.7843E+00 kcal/mol
        Temperature                        2.9815E+02 K
        Density                            1.1000E+00 kg/L
        Solvent mass                       7.8130E+01 g/mol
        Interaction kernel             P16
        Born radius scaling (c1)           1.7672E+00
        Born radii integrator          GBOBC
        Born offset                        0.0000E+00 a0       0.0000E+00 AA
        H-bond correction              true
        Ion screening                  false
        Surface tension                    1.0000E-05 Eh       1.5569E+01 dyn/cm
        Grid points                               230 per atom

          ...................................................
          :                      SETUP                      :
          :.................................................:
          :  # basis functions                  58          :
          :  # atomic orbitals                  57          :
          :  # shells                           33          :
          :  # electrons                        56          :
          :  # halogen bonds                     4          :
          :  max. iterations                   250          :
          :  Hamiltonian                  GFN1-xTB          :
          :  restarted?                      false          :
          :  GBSA solvation                   true          :
          :  PC potential                    false          :
          :  electronic temp.          300.0000000     K    :
          :  accuracy                    1.0000000          :
          :  -> integral cutoff          0.2500000E+02      :
          :  -> integral neglect         0.1000000E-07      :
          :  -> SCF convergence          0.1000000E-05 Eh   :
          :  -> wf. convergence          0.2000000E-04 e    :
          :  Broyden damping             0.4000000          :
          ...................................................

 iter      E             dE          RMSdq      gap      omega  full diag
   1    -34.2744488 -0.342744E+02  0.831E+00    4.46       0.0  T
   2    -34.3892314 -0.114783E+00  0.498E+00    3.69       1.0  T
   3    -34.3856358  0.359555E-02  0.176E+00    2.85       1.0  T
   4    -34.4002100 -0.145741E-01  0.251E-01    2.47       1.0  T
   5    -34.4008576 -0.647691E-03  0.494E-02    2.82       1.0  T
   6    -34.4008788 -0.211894E-04  0.118E-02    2.83       2.1  T
   7    -34.4008799 -0.102307E-05  0.375E-03    2.83       6.7  T
   8    -34.4008800 -0.125145E-06  0.158E-03    2.83      15.9  T
   9    -34.4008800 -0.132239E-07  0.566E-04    2.83      44.2  T
  10    -34.4008800 -0.299539E-08  0.103E-04    2.83     243.6  T
  11    -34.4008800 -0.449702E-10  0.166E-05    2.83    1507.6  T

   *** convergence criteria satisfied after 11 iterations ***

         #    Occupation            Energy/Eh            Energy/eV
      -------------------------------------------------------------
         1        2.0000           -0.8588539             -23.3706
       ...           ...                  ...                  ...
        22        2.0000           -0.4502414             -12.2517
        23        2.0000           -0.4332938             -11.7905
        24        2.0000           -0.4312054             -11.7337
        25        2.0000           -0.4131680             -11.2429
        26        2.0000           -0.4078713             -11.0987
        27        2.0000           -0.3633609              -9.8876
        28        2.0000           -0.3521601              -9.5828 (HOMO)
        29                         -0.2480914              -6.7509 (LUMO)
        30                         -0.2198493              -5.9824
        31                         -0.1475625              -4.0154
        32                         -0.1339785              -3.6457
        33                         -0.0973102              -2.6479
       ...                                ...                  ...
        57                          0.5424850              14.7618
      -------------------------------------------------------------
                  HL-Gap            0.1040687 Eh            2.8319 eV
             Fermi-level           -0.3001258 Eh           -8.1668 eV

 SCC (total)                   0 d,  0 h,  0 min,  0.052 sec
 SCC setup                      ...        0 min,  0.001 sec (  1.525%)
 Dispersion                     ...        0 min,  0.000 sec (  0.236%)
 classical contributions        ...        0 min,  0.000 sec (  0.109%)
 integral evaluation            ...        0 min,  0.009 sec ( 17.303%)
 iterations                     ...        0 min,  0.009 sec ( 17.824%)
 molecular gradient             ...        0 min,  0.032 sec ( 62.105%)
 printout                       ...        0 min,  0.000 sec (  0.793%)

         :::::::::::::::::::::::::::::::::::::::::::::::::::::
         ::                     SUMMARY                     ::
         :::::::::::::::::::::::::::::::::::::::::::::::::::::
         :: total energy             -34.157872113647 Eh    ::
         :: total w/o Gsasa/hb       -34.149903302753 Eh    ::
         :: gradient norm              0.128744661179 Eh/a0 ::
         :: HOMO-LUMO gap              2.831853225150 eV    ::
         ::.................................................::
         :: SCC energy               -34.400880003356 Eh    ::
         :: -> electrostatic           0.261738419223 Eh    ::
         :: -> Gsolv                  -0.101982309988 Eh    ::
         ::    -> Gelec               -0.094013499094 Eh    ::
         ::    -> Gsasa               -0.014797351980 Eh    ::
         ::    -> Ghb                 -0.000795737919 Eh    ::
         ::    -> Gshift               0.007624279005 Eh    ::
         :: repulsion energy           0.250242932549 Eh    ::
         :: dispersion energy         -0.007235042840 Eh    ::
         :: halogen bond corr.         0.000000000000 Eh    ::
         :: add. restraining           0.000000000000 Eh    ::
         :: total charge              -1.000000000000 e     ::
         :::::::::::::::::::::::::::::::::::::::::::::::::::::

      ----------------------------------------------------------- 
     |                   =====================                   |
     |                        A N C O P T                        |
     |                   =====================                   |
     |               Approximate Normal Coordinate               |
     |                Rational Function Optimizer                |
      ----------------------------------------------------------- 

          ...................................................
          :                      SETUP                      :
          :.................................................:
          :   optimization level            normal          :
          :   max. optcycles                   200          :
          :   ANC micro-cycles                  20          :
          :   degrees of freedom                42          :
          :.................................................:
          :   RF solver                   davidson          :
          :   write xtbopt.log                true          :
          :   linear?                        false          :
          :   energy convergence         0.5000000E-05 Eh   :
          :   grad. convergence          0.1000000E-02 Eh/α :
          :   maximium RF displ.         1.0000000          :
          :   Hlow (freq-cutoff)         0.1000000E-01      :
          :   Hmax (freq-cutoff)         5.0000000          :
          :   S6 in model hess.         20.0000000          :
          ...................................................

generating ANC from model Hessian ...
Using Lindh-Hessian (1995)
 Shifting diagonal of input Hessian by   7.619479348187192E-003
 Lowest  eigenvalues of input Hessian
    0.000000    0.000000    0.000000    0.000000    0.000000    0.000000
    0.010000    0.012785    0.015046    0.018998    0.022539    0.031050
    0.033275    0.043453    0.049034    0.055307    0.063673    0.073730
 Highest eigenvalues
    1.425720    1.525761    1.708091    1.752381    1.927542    2.044063
 

........................................................................
.............................. CYCLE    1 ..............................
........................................................................
   1    -34.4008800 -0.344009E+02  0.518E-06    2.83       0.0  T
   2    -34.4008800 -0.135003E-12  0.224E-06    2.83   11136.7  T
   3    -34.4008800  0.355271E-13  0.128E-06    2.83   19546.6  T
     SCC iter.                  ...        0 min,  0.015 sec
     gradient                   ...        0 min,  0.022 sec
 * total energy  :   -34.1578721 Eh     change       -0.2799538E-11 Eh
   gradient norm :     0.1287442 Eh/α   predicted     0.0000000E+00 (-100.00%)
   displ. norm   :     0.2007697 α      lambda       -0.1304598E-01
   maximum displ.:     0.1058689 α      in ANC's #5, #3, #10, ...

........................................................................
.............................. CYCLE    2 ..............................
........................................................................
   1    -34.4188559 -0.344189E+02  0.249E-01    3.05       0.0  T
   2    -34.4196415 -0.785634E-03  0.788E-02    3.26       1.0  T
   3    -34.4196798 -0.383215E-04  0.319E-02    3.32       1.0  T
   4    -34.4196851 -0.525850E-05  0.149E-02    3.32       1.7  T
   5    -34.4196854 -0.325340E-06  0.205E-03    3.32      12.2  T
   6    -34.4196854 -0.106615E-07  0.637E-04    3.31      39.2  T
   7    -34.4196854 -0.409027E-08  0.222E-04    3.31     112.6  T
   8    -34.4196854 -0.116884E-09  0.477E-05    3.31     524.0  T
   9    -34.4196854 -0.436273E-11  0.151E-05    3.31    1653.2  T
     SCC iter.                  ...        0 min,  0.007 sec
     gradient                   ...        0 min,  0.028 sec
 * total energy  :   -34.1684064 Eh     change       -0.1053425E-01 Eh
   gradient norm :     0.0859358 Eh/α   predicted    -0.6785920E-02 ( -35.58%)
   displ. norm   :     0.3116769 α      lambda       -0.1609998E-01
   maximum displ.:     0.1731470 α      in ANC's #5, #3, #38, ...

........................................................................
.............................. CYCLE    3 ..............................
........................................................................
   1    -34.4460429 -0.344460E+02  0.583E-01    3.52       0.0  T
   2    -34.4500271 -0.398426E-02  0.174E-01    3.97       1.0  T
   3    -34.4501197 -0.925517E-04  0.716E-02    4.05       1.0  T
   4    -34.4501329 -0.131971E-04  0.339E-02    4.05       1.0  T
   5    -34.4501353 -0.240030E-05  0.574E-03    4.05       4.4  T
   6    -34.4501353 -0.714924E-07  0.112E-03    4.04      22.2  T
   7    -34.4501354 -0.127358E-07  0.449E-04    4.04      55.7  T
   8    -34.4501354 -0.502226E-09  0.101E-04    4.04     248.6  T
   9    -34.4501354 -0.509957E-10  0.307E-05    4.04     814.9  T
     SCC iter.                  ...        0 min,  0.006 sec
     gradient                   ...        0 min,  0.017 sec
 * total energy  :   -34.1775494 Eh     change       -0.9143043E-02 Eh
   gradient norm :     0.0481444 Eh/α   predicted    -0.8831985E-02 (  -3.40%)
   displ. norm   :     0.2391055 α      lambda       -0.3544590E-02
   maximum displ.:     0.1508437 α      in ANC's #5, #3, #29, ...

........................................................................
.............................. CYCLE    4 ..............................
........................................................................
   1    -34.4502408 -0.344502E+02  0.203E-01    4.05       0.0  T
   2    -34.4504945 -0.253709E-03  0.867E-02    4.15       1.0  T
   3    -34.4505040 -0.951835E-05  0.343E-02    4.17       1.0  T
   4    -34.4505067 -0.273733E-05  0.113E-02    4.17       2.2  T
   5    -34.4505070 -0.278908E-06  0.204E-03    4.17      12.2  T
   6    -34.4505070 -0.125364E-07  0.464E-04    4.17      53.9  T
   7    -34.4505070 -0.211925E-08  0.188E-04    4.17     133.2  T
   8    -34.4505070 -0.111491E-09  0.235E-05    4.17    1062.2  T
     SCC iter.                  ...        0 min,  0.005 sec
     gradient                   ...        0 min,  0.018 sec
 * total energy  :   -34.1804682 Eh     change       -0.2918835E-02 Eh
   gradient norm :     0.0374267 Eh/α   predicted    -0.1873620E-02 ( -35.81%)
   displ. norm   :     0.4228875 α      lambda       -0.5439879E-02
   maximum displ.:     0.2685111 α      in ANC's #5, #3, #30, ...

........................................................................
.............................. CYCLE    5 ..............................
........................................................................
   1    -34.4512440 -0.344512E+02  0.398E-01    4.07       0.0  T
   2    -34.4520784 -0.834428E-03  0.177E-01    4.24       1.0  T
   3    -34.4521126 -0.341550E-04  0.782E-02    4.24       1.0  T
   4    -34.4521275 -0.148778E-04  0.230E-02    4.26       1.1  T
   5    -34.4521286 -0.113067E-05  0.463E-03    4.25       5.4  T
   6    -34.4521287 -0.612147E-07  0.115E-03    4.25      21.8  T
   7    -34.4521287 -0.900985E-08  0.413E-04    4.25      60.6  T
   8    -34.4521287 -0.468098E-09  0.588E-05    4.25     425.2  T
   9    -34.4521287 -0.116387E-10  0.246E-05    4.25    1016.9  T
     SCC iter.                  ...        0 min,  0.006 sec
     gradient                   ...        0 min,  0.018 sec
 * total energy  :   -34.1844277 Eh     change       -0.3959453E-02 Eh
   gradient norm :     0.0309720 Eh/α   predicted    -0.3206353E-02 ( -19.02%)
   displ. norm   :     0.3693975 α      lambda       -0.3697608E-02
   maximum displ.:     0.2105192 α      in ANC's #5, #3, #30, ...

........................................................................
.............................. CYCLE    6 ..............................
........................................................................
   1    -34.4587326 -0.344587E+02  0.371E-01    4.09       0.0  T
   2    -34.4594506 -0.718021E-03  0.171E-01    4.20       1.0  T
   3    -34.4594807 -0.301384E-04  0.823E-02    4.19       1.0  T
   4    -34.4594974 -0.166958E-04  0.229E-02    4.20       1.1  T
   5    -34.4594990 -0.155719E-05  0.522E-03    4.20       4.8  T
   6    -34.4594991 -0.795036E-07  0.170E-03    4.20      14.7  T
   7    -34.4594991 -0.226912E-07  0.470E-04    4.20      53.2  T
   8    -34.4594991 -0.403695E-09  0.755E-05    4.20     331.0  T
   9    -34.4594991 -0.180975E-10  0.322E-05    4.20     777.4  T
     SCC iter.                  ...        0 min,  0.006 sec
     gradient                   ...        0 min,  0.018 sec
 * total energy  :   -34.1875549 Eh     change       -0.3127237E-02 Eh
   gradient norm :     0.0298779 Eh/α   predicted    -0.2101088E-02 ( -32.81%)
   displ. norm   :     0.5727539 α      lambda       -0.5921285E-02
   maximum displ.:     0.2697646 α      in ANC's #5, #30, #3, ...

........................................................................
.............................. CYCLE    7 ..............................
........................................................................
   1    -34.4715051 -0.344715E+02  0.389E-01    4.01       0.0  T
   2    -34.4722902 -0.785057E-03  0.190E-01    4.07       1.0  T
   3    -34.4723488 -0.586692E-04  0.106E-01    4.04       1.0  T
   4    -34.4723723 -0.234617E-04  0.207E-02    4.05       1.2  T
   5    -34.4723740 -0.176146E-05  0.592E-03    4.05       4.2  T
   6    -34.4723742 -0.140443E-06  0.212E-03    4.05      11.8  T
   7    -34.4723742 -0.298104E-07  0.476E-04    4.05      52.5  T
   8    -34.4723742 -0.365262E-09  0.799E-05    4.05     312.7  T
   9    -34.4723742 -0.216005E-10  0.318E-05    4.05     785.0  T
     SCC iter.                  ...        0 min,  0.006 sec
     gradient                   ...        0 min,  0.018 sec
 * total energy  :   -34.1921983 Eh     change       -0.4643402E-02 Eh
   gradient norm :     0.0280174 Eh/α   predicted    -0.3931873E-02 ( -15.32%)
   displ. norm   :     0.4970500 α      lambda       -0.3798003E-02
   maximum displ.:     0.1891249 α      in ANC's #5, #30, #2, ...

........................................................................
.............................. CYCLE    8 ..............................
........................................................................
   1    -34.4768692 -0.344769E+02  0.155E-01    3.87       0.0  T
   2    -34.4770830 -0.213802E-03  0.695E-02    3.91       1.0  T
   3    -34.4771189 -0.358805E-04  0.390E-02    3.89       1.0  T
   4    -34.4771201 -0.125902E-05  0.468E-03    3.89       5.3  T
   5    -34.4771203 -0.140290E-06  0.169E-03    3.90      14.8  T
   6    -34.4771203 -0.129041E-07  0.558E-04    3.90      44.8  T
   7    -34.4771203 -0.119402E-08  0.676E-05    3.90     370.0  T
   8    -34.4771203 -0.151417E-10  0.278E-05    3.90     898.2  T
     SCC iter.                  ...        0 min,  0.005 sec
     gradient                   ...        0 min,  0.018 sec
 * total energy  :   -34.1946084 Eh     change       -0.2410022E-02 Eh
   gradient norm :     0.0353295 Eh/α   predicted    -0.2368192E-02 (  -1.74%)
   displ. norm   :     0.2561573 α      lambda       -0.2305643E-02
   maximum displ.:     0.1091430 α      in ANC's #1, #22, #2, ...

........................................................................
.............................. CYCLE    9 ..............................
........................................................................
   1    -34.4813179 -0.344813E+02  0.677E-02    3.79       0.0  T
   2    -34.4813915 -0.736034E-04  0.399E-02    3.81       1.0  T
   3    -34.4814054 -0.139074E-04  0.165E-02    3.81       1.5  T
   4    -34.4814055 -0.726344E-07  0.190E-03    3.81      13.2  T
   5    -34.4814055 -0.163164E-07  0.649E-04    3.81      38.5  T
   6    -34.4814055 -0.294164E-08  0.151E-04    3.81     165.9  T
   7    -34.4814055 -0.146443E-09  0.497E-05    3.81     503.1  T
     SCC iter.                  ...        0 min,  0.005 sec
     gradient                   ...        0 min,  0.018 sec
 * total energy  :   -34.1964273 Eh     change       -0.1818950E-02 Eh
   gradient norm :     0.0310662 Eh/α   predicted    -0.1228468E-02 ( -32.46%)
   displ. norm   :     0.4286237 α      lambda       -0.3001967E-02
   maximum displ.:     0.1990239 α      in ANC's #1, #2, #30, ...

........................................................................
.............................. CYCLE   10 ..............................
........................................................................
   1    -34.4760941 -0.344761E+02  0.105E-01    3.56       0.0  T
   2    -34.4763110 -0.216946E-03  0.552E-02    3.63       1.0  T
   3    -34.4763457 -0.346148E-04  0.193E-02    3.62       1.3  T
   4    -34.4763459 -0.201630E-06  0.857E-03    3.62       2.9  T
   5    -34.4763459 -0.803233E-07  0.125E-03    3.62      20.0  T
   6    -34.4763459 -0.124537E-07  0.276E-04    3.62      90.6  T
   7    -34.4763459 -0.112354E-08  0.643E-05    3.62     388.8  T
   8    -34.4763459 -0.172875E-10  0.332E-05    3.62     752.5  T
     SCC iter.                  ...        0 min,  0.006 sec
     gradient                   ...        0 min,  0.023 sec
 * total energy  :   -34.1982588 Eh     change       -0.1831507E-02 Eh
   gradient norm :     0.0264288 Eh/α   predicted    -0.1776747E-02 (  -2.99%)
   displ. norm   :     0.3929793 α      lambda       -0.2126053E-02
   maximum displ.:     0.2154998 α      in ANC's #1, #2, #22, ...

........................................................................
.............................. CYCLE   11 ..............................
........................................................................
   1    -34.4825131 -0.344825E+02  0.769E-02    3.63       0.0  T
   2    -34.4826130 -0.999981E-04  0.383E-02    3.63       1.0  T
   3    -34.4826289 -0.158795E-04  0.121E-02    3.62       2.1  T
   4    -34.4826290 -0.358732E-07  0.597E-03    3.62       4.2  T
   5    -34.4826290 -0.426305E-07  0.624E-04    3.62      40.0  T
   6    -34.4826290 -0.437367E-08  0.200E-04    3.62     125.1  T
   7    -34.4826290 -0.215415E-09  0.548E-05    3.62     456.5  T
     SCC iter.                  ...        0 min,  0.006 sec
     gradient                   ...        0 min,  0.016 sec
 * total energy  :   -34.1992532 Eh     change       -0.9943396E-03 Eh
   gradient norm :     0.0411670 Eh/α   predicted    -0.1227203E-02 (  23.42%)
   displ. norm   :     0.2438874 α      lambda       -0.1384226E-02
   maximum displ.:     0.1289975 α      in ANC's #1, #30, #22, ...

........................................................................
.............................. CYCLE   12 ..............................
........................................................................
   1    -34.4853933 -0.344854E+02  0.417E-02    3.57       0.0  T
   2    -34.4854260 -0.327258E-04  0.167E-02    3.59       1.5  T
   3    -34.4854288 -0.277174E-05  0.706E-03    3.59       3.5  T
   4    -34.4854288 -0.426177E-07  0.343E-03    3.59       7.3  T
   5    -34.4854288 -0.448718E-08  0.588E-04    3.59      42.5  T
   6    -34.4854288 -0.237693E-08  0.188E-04    3.59     133.0  T
   7    -34.4854288 -0.177039E-09  0.446E-05    3.59     560.9  T
     SCC iter.                  ...        0 min,  0.005 sec
     gradient                   ...        0 min,  0.016 sec
 * total energy  :   -34.2003657 Eh     change       -0.1112550E-02 Eh
   gradient norm :     0.0249732 Eh/α   predicted    -0.7332829E-03 ( -34.09%)
   displ. norm   :     0.6031128 α      lambda       -0.2494745E-02
   maximum displ.:     0.2730122 α      in ANC's #2, #1, #30, ...

........................................................................
.............................. CYCLE   13 ..............................
........................................................................
   1    -34.4748832 -0.344749E+02  0.121E-01    3.43       0.0  T
   2    -34.4750308 -0.147696E-03  0.446E-02    3.48       1.0  T
   3    -34.4750444 -0.135956E-04  0.290E-02    3.47       1.0  T
   4    -34.4750465 -0.208773E-05  0.838E-03    3.47       3.0  T
   5    -34.4750466 -0.298225E-07  0.101E-03    3.47      24.7  T
   6    -34.4750466 -0.809793E-08  0.342E-04    3.47      73.1  T
   7    -34.4750466 -0.937142E-09  0.105E-04    3.47     238.3  T
   8    -34.4750466 -0.359464E-10  0.500E-05    3.47     499.6  T
     SCC iter.                  ...        0 min,  0.006 sec
     gradient                   ...        0 min,  0.016 sec
 * total energy  :   -34.2015013 Eh     change       -0.1135624E-02 Eh
   gradient norm :     0.0303031 Eh/α   predicted    -0.1701083E-02 (  49.79%)
   displ. norm   :     0.2711464 α      lambda       -0.2376257E-02
   maximum displ.:     0.1251283 α      in ANC's #3, #1, #30, ...

........................................................................
.............................. CYCLE   14 ..............................
........................................................................
   1    -34.4880099 -0.344880E+02  0.875E-02    3.51       0.0  T
   2    -34.4881050 -0.951368E-04  0.396E-02    3.51       1.0  T
   3    -34.4881174 -0.123274E-04  0.175E-02    3.51       1.4  T
   4    -34.4881174 -0.601863E-07  0.409E-03    3.51       6.1  T
   5    -34.4881175 -0.355842E-07  0.653E-04    3.51      38.3  T
   6    -34.4881175 -0.203720E-08  0.333E-04    3.51      75.1  T
   7    -34.4881175 -0.451585E-09  0.567E-05    3.51     440.8  T
   8    -34.4881175 -0.208118E-10  0.138E-05    3.51    1810.4  T
     SCC iter.                  ...        0 min,  0.005 sec
     gradient                   ...        0 min,  0.016 sec
 * total energy  :   -34.2026704 Eh     change       -0.1169102E-02 Eh
   gradient norm :     0.0203639 Eh/α   predicted    -0.1275478E-02 (   9.10%)
   displ. norm   :     0.4439542 α      lambda       -0.1235010E-02
   maximum displ.:     0.2457702 α      in ANC's #1, #2, #30, ...

........................................................................
.............................. CYCLE   15 ..............................
........................................................................
   1    -34.4831525 -0.344832E+02  0.617E-02    3.43       0.0  T
   2    -34.4832107 -0.581976E-04  0.253E-02    3.45       1.0  T
   3    -34.4832193 -0.858775E-05  0.742E-03    3.44       3.4  T
   4    -34.4832193 -0.357043E-07  0.308E-03    3.45       8.1  T
   5    -34.4832193 -0.399199E-08  0.444E-04    3.45      56.3  T
   6    -34.4832193 -0.140709E-08  0.113E-04    3.45     220.7  T
   7    -34.4832193 -0.187555E-09  0.290E-05    3.45     863.0  T
     SCC iter.                  ...        0 min,  0.005 sec
     gradient                   ...        0 min,  0.016 sec
 * total energy  :   -34.2037038 Eh     change       -0.1033349E-02 Eh
   gradient norm :     0.0210030 Eh/α   predicted    -0.7392086E-03 ( -28.46%)
   displ. norm   :     0.6161524 α      lambda       -0.1677248E-02
   maximum displ.:     0.2517253 α      in ANC's #2, #1, #30, ...

........................................................................
.............................. CYCLE   16 ..............................
........................................................................
   1    -34.4771983 -0.344772E+02  0.101E-01    3.32       0.0  T
   2    -34.4773778 -0.179551E-03  0.474E-02    3.36       1.0  T
   3    -34.4774051 -0.273125E-04  0.136E-02    3.36       1.8  T
   4    -34.4774052 -0.562418E-07  0.554E-03    3.36       4.5  T
   5    -34.4774052 -0.305658E-07  0.998E-04    3.36      25.1  T
   6    -34.4774052 -0.629139E-08  0.218E-04    3.36     114.5  T
   7    -34.4774052 -0.657288E-09  0.643E-05    3.36     388.9  T
   8    -34.4774052 -0.120934E-10  0.336E-05    3.36     744.8  T
     SCC iter.                  ...        0 min,  0.005 sec
     gradient                   ...        0 min,  0.016 sec
 * total energy  :   -34.2046168 Eh     change       -0.9130265E-03 Eh
   gradient norm :     0.0281311 Eh/α   predicted    -0.1157021E-02 (  26.72%)
   displ. norm   :     0.1705278 α      lambda       -0.1239908E-02
   maximum displ.:     0.1055502 α      in ANC's #3, #13, #4, ...

........................................................................
.............................. CYCLE   17 ..............................
........................................................................
   1    -34.4854234 -0.344854E+02  0.559E-02    3.39       0.0  T
   2    -34.4854356 -0.122636E-04  0.315E-02    3.38       1.0  T
   3    -34.4854356  0.726008E-07  0.111E-02    3.38       2.2  T
   4    -34.4854359 -0.339641E-06  0.255E-03    3.38       9.8  T
   5    -34.4854360 -0.617074E-07  0.290E-04    3.38      86.2  T
   6    -34.4854360 -0.465739E-09  0.834E-05    3.38     299.9  T
   7    -34.4854360 -0.310791E-10  0.287E-05    3.38     871.8  T
     SCC iter.                  ...        0 min,  0.005 sec
     gradient                   ...        0 min,  0.016 sec
 * total energy  :   -34.2051425 Eh     change       -0.5257029E-03 Eh
   gradient norm :     0.0178660 Eh/α   predicted    -0.6379799E-03 (  21.36%)
   displ. norm   :     0.2449116 α      lambda       -0.8381379E-03
   maximum displ.:     0.1268512 α      in ANC's #3, #13, #30, ...

........................................................................
.............................. CYCLE   18 ..............................
........................................................................
   1    -34.4867746 -0.344868E+02  0.396E-02    3.32       0.0  T
   2    -34.4868058 -0.311212E-04  0.128E-02    3.33       2.0  T
   3    -34.4868063 -0.508457E-06  0.779E-03    3.33       3.2  T
   4    -34.4868063 -0.642272E-07  0.303E-03    3.33       8.3  T
   5    -34.4868063 -0.238113E-07  0.675E-04    3.33      37.0  T
   6    -34.4868063 -0.156506E-08  0.136E-04    3.33     183.5  T
   7    -34.4868063 -0.366143E-10  0.397E-05    3.33     629.7  T
     SCC iter.                  ...        0 min,  0.005 sec
     gradient                   ...        0 min,  0.016 sec
 * total energy  :   -34.2056471 Eh     change       -0.5045664E-03 Eh
   gradient norm :     0.0133225 Eh/α   predicted    -0.4442045E-03 ( -11.96%)
   displ. norm   :     0.3721748 α      lambda       -0.6183052E-03
   maximum displ.:     0.1558970 α      in ANC's #30, #3, #2, ...

........................................................................
.............................. CYCLE   19 ..............................
........................................................................
   1    -34.4840400 -0.344840E+02  0.400E-02    3.30       0.0  T
   2    -34.4840554 -0.154297E-04  0.140E-02    3.31       1.8  T
   3    -34.4840561 -0.706251E-06  0.948E-03    3.31       2.6  T
   4    -34.4840563 -0.190351E-06  0.257E-03    3.31       9.7  T
   5    -34.4840563 -0.520114E-08  0.363E-04    3.31      68.9  T
   6    -34.4840563 -0.878181E-09  0.984E-05    3.31     254.1  T
   7    -34.4840563 -0.995399E-10  0.346E-05    3.31     723.0  T
     SCC iter.                  ...        0 min,  0.005 sec
     gradient                   ...        0 min,  0.016 sec
 * total energy  :   -34.2060058 Eh     change       -0.3587651E-03 Eh
   gradient norm :     0.0169479 Eh/α   predicted    -0.3519808E-03 (  -1.89%)
   displ. norm   :     0.2273535 α      lambda       -0.4582741E-03
   maximum displ.:     0.1057988 α      in ANC's #30, #21, #22, ...

........................................................................
.............................. CYCLE   20 ..............................
........................................................................
   1    -34.4888956 -0.344889E+02  0.209E-02    3.31       0.0  T
   2    -34.4888980 -0.240950E-05  0.905E-03    3.31       2.8  T
   3    -34.4888982 -0.207608E-06  0.467E-03    3.31       5.4  T
   4    -34.4888982 -0.446491E-07  0.129E-03    3.31      19.4  T
   5    -34.4888982 -0.436705E-08  0.226E-04    3.31     110.5  T
   6    -34.4888982 -0.305221E-09  0.486E-05    3.31     514.1  T
   7    -34.4888982 -0.199947E-10  0.188E-05    3.31    1332.5  T
     SCC iter.                  ...        0 min,  0.005 sec
     gradient                   ...        0 min,  0.016 sec
 * total energy  :   -34.2062850 Eh     change       -0.2791340E-03 Eh
   gradient norm :     0.0127710 Eh/α   predicted    -0.2409820E-03 ( -13.67%)
   displ. norm   :     0.4004108 α      lambda       -0.5487391E-03
   maximum displ.:     0.1664047 α      in ANC's #1, #30, #3, ...
 * RMSD in coord.:     1.4253236 α      energy gain  -0.4841286E-01 Eh

generating ANC from model Hessian ...
Using Lindh-Hessian (1995)
 Shifting diagonal of input Hessian by   9.999053472575561E-003
 Lowest  eigenvalues of input Hessian
    0.000000    0.000000    0.000000    0.000000    0.000000    0.000000
    0.010000    0.010254    0.010575    0.014306    0.015068    0.016552
    0.021358    0.034514    0.039199    0.049240    0.062326    0.066557
 Highest eigenvalues
    1.432697    1.696150    1.878754    2.014408    2.141245    2.217579
 

........................................................................
.............................. CYCLE   21 ..............................
........................................................................
   1    -34.4874398 -0.344874E+02  0.246E-02    3.28       0.0  T
   2    -34.4874509 -0.110738E-04  0.118E-02    3.29       2.1  T
   3    -34.4874516 -0.774897E-06  0.632E-03    3.29       4.0  T
   4    -34.4874516 -0.186489E-07  0.249E-03    3.29      10.0  T
   5    -34.4874517 -0.810224E-08  0.303E-04    3.29      82.6  T
   6    -34.4874517 -0.519968E-09  0.116E-04    3.29     214.9  T
   7    -34.4874517 -0.677574E-10  0.243E-05    3.29    1029.3  T
     SCC iter.                  ...        0 min,  0.005 sec
     gradient                   ...        0 min,  0.016 sec
 * total energy  :   -34.2065605 Eh     change       -0.2754803E-03 Eh
   gradient norm :     0.0139807 Eh/α   predicted     0.0000000E+00 (-100.00%)
   displ. norm   :     0.0708036 α      lambda       -0.2912092E-03
   maximum displ.:     0.0345064 α      in ANC's #5, #2, #8, ...

........................................................................
.............................. CYCLE   22 ..............................
........................................................................
   1    -34.4905186 -0.344905E+02  0.157E-02    3.31       0.0  T
   2    -34.4905226 -0.403675E-05  0.666E-03    3.30       3.8  T
   3    -34.4905227 -0.511794E-07  0.370E-03    3.30       6.8  T
   4    -34.4905227 -0.251111E-08  0.126E-03    3.30      19.8  T
   5    -34.4905227 -0.467878E-08  0.852E-05    3.30     293.5  T
   6    -34.4905227 -0.546336E-10  0.392E-05    3.30     637.4  T
     SCC iter.                  ...        0 min,  0.004 sec
     gradient                   ...        0 min,  0.016 sec
 * total energy  :   -34.2067725 Eh     change       -0.2119996E-03 Eh
   gradient norm :     0.0039807 Eh/α   predicted    -0.1463332E-03 ( -30.97%)
   displ. norm   :     0.1363449 α      lambda       -0.2284111E-03
   maximum displ.:     0.0730818 α      in ANC's #2, #5, #8, ...

........................................................................
.............................. CYCLE   23 ..............................
........................................................................
   1    -34.4921188 -0.344921E+02  0.138E-02    3.31       0.0  T
   2    -34.4921225 -0.372400E-05  0.592E-03    3.31       4.2  T
   3    -34.4921227 -0.171160E-06  0.276E-03    3.31       9.0  T
   4    -34.4921227 -0.682405E-08  0.136E-03    3.31      18.3  T
   5    -34.4921227 -0.230607E-08  0.144E-04    3.31     174.1  T
   6    -34.4921227 -0.106269E-09  0.623E-05    3.31     401.0  T
     SCC iter.                  ...        0 min,  0.004 sec
     gradient                   ...        0 min,  0.016 sec
 * total energy  :   -34.2069373 Eh     change       -0.1648267E-03 Eh
   gradient norm :     0.0049610 Eh/α   predicted    -0.1163282E-03 ( -29.42%)
   displ. norm   :     0.1876540 α      lambda       -0.1861757E-03
   maximum displ.:     0.1096574 α      in ANC's #2, #8, #5, ...

........................................................................
.............................. CYCLE   24 ..............................
........................................................................
   1    -34.4915811 -0.344916E+02  0.128E-02    3.30       0.0  T
   2    -34.4915840 -0.292450E-05  0.574E-03    3.30       4.4  T
   3    -34.4915843 -0.357788E-06  0.196E-03    3.30      12.8  T
   4    -34.4915843 -0.284087E-08  0.755E-04    3.30      33.1  T
   5    -34.4915843 -0.343228E-09  0.152E-04    3.30     164.2  T
   6    -34.4915843 -0.970886E-10  0.652E-05    3.30     383.5  T
     SCC iter.                  ...        0 min,  0.004 sec
     gradient                   ...        0 min,  0.016 sec
 * total energy  :   -34.2070716 Eh     change       -0.1343317E-03 Eh
   gradient norm :     0.0082302 Eh/α   predicted    -0.9636719E-04 ( -28.26%)
   displ. norm   :     0.2011067 α      lambda       -0.1636489E-03
   maximum displ.:     0.1207425 α      in ANC's #2, #8, #4, ...

........................................................................
.............................. CYCLE   25 ..............................
........................................................................
   1    -34.4903691 -0.344904E+02  0.991E-03    3.30       0.0  T
   2    -34.4903704 -0.130934E-05  0.430E-03    3.30       5.8  T
   3    -34.4903706 -0.192275E-06  0.184E-03    3.30      13.6  T
   4    -34.4903706 -0.310422E-08  0.367E-04    3.30      68.1  T
   5    -34.4903706 -0.119343E-09  0.135E-04    3.30     184.8  T
   6    -34.4903706 -0.479616E-10  0.450E-05    3.30     555.6  T
     SCC iter.                  ...        0 min,  0.004 sec
     gradient                   ...        0 min,  0.016 sec
 * total energy  :   -34.2071964 Eh     change       -0.1248123E-03 Eh
   gradient norm :     0.0087581 Eh/α   predicted    -0.8513828E-04 ( -31.79%)
   displ. norm   :     0.2783761 α      lambda       -0.2478375E-03
   maximum displ.:     0.1638893 α      in ANC's #2, #4, #8, ...

........................................................................
.............................. CYCLE   26 ..............................
........................................................................
   1    -34.4890359 -0.344890E+02  0.111E-02    3.29       0.0  T
   2    -34.4890369 -0.105810E-05  0.468E-03    3.29       5.3  T
   3    -34.4890370 -0.481473E-07  0.262E-03    3.29       9.5  T
   4    -34.4890370 -0.947236E-08  0.689E-04    3.29      36.3  T
   5    -34.4890370 -0.205321E-08  0.168E-04    3.29     149.0  T
   6    -34.4890370 -0.639346E-10  0.542E-05    3.29     461.1  T
     SCC iter.                  ...        0 min,  0.004 sec
     gradient                   ...        0 min,  0.016 sec
 * total energy  :   -34.2073737 Eh     change       -0.1772607E-03 Eh
   gradient norm :     0.0077337 Eh/α   predicted    -0.1335209E-03 ( -24.68%)
   displ. norm   :     0.2473019 α      lambda       -0.2387062E-03
   maximum displ.:     0.1521471 α      in ANC's #4, #2, #3, ...

........................................................................
.............................. CYCLE   27 ..............................
........................................................................
   1    -34.4897374 -0.344897E+02  0.154E-02    3.29       0.0  T
   2    -34.4897399 -0.252542E-05  0.624E-03    3.29       4.0  T
   3    -34.4897401 -0.173871E-06  0.353E-03    3.29       7.1  T
   4    -34.4897401 -0.597271E-08  0.949E-04    3.29      26.3  T
   5    -34.4897401 -0.137963E-08  0.116E-04    3.29     214.7  T
   6    -34.4897401 -0.721627E-10  0.450E-05    3.29     555.3  T
     SCC iter.                  ...        0 min,  0.004 sec
     gradient                   ...        0 min,  0.017 sec
 * total energy  :   -34.2075462 Eh     change       -0.1724863E-03 Eh
   gradient norm :     0.0073672 Eh/α   predicted    -0.1266515E-03 ( -26.57%)
   displ. norm   :     0.4041028 α      lambda       -0.2825719E-03
   maximum displ.:     0.2583430 α      in ANC's #2, #4, #3, ...

........................................................................
.............................. CYCLE   28 ..............................
........................................................................
   1    -34.4883933 -0.344884E+02  0.153E-02    3.29       0.0  T
   2    -34.4883954 -0.215779E-05  0.544E-03    3.29       4.6  T
   3    -34.4883956 -0.165854E-06  0.346E-03    3.29       7.2  T
   4    -34.4883956 -0.205483E-07  0.828E-04    3.29      30.2  T
   5    -34.4883956 -0.649422E-09  0.148E-04    3.29     169.3  T
   6    -34.4883956 -0.868425E-10  0.526E-05    3.29     475.6  T
     SCC iter.                  ...        0 min,  0.004 sec
     gradient                   ...        0 min,  0.017 sec
 * total energy  :   -34.2077544 Eh     change       -0.2081985E-03 Eh
   gradient norm :     0.0106609 Eh/α   predicted    -0.1643614E-03 ( -21.06%)
   displ. norm   :     0.4288070 α      lambda       -0.5248302E-03
   maximum displ.:     0.2735153 α      in ANC's #2, #3, #4, ...

........................................................................
.............................. CYCLE   29 ..............................
........................................................................
   1    -34.4937077 -0.344937E+02  0.296E-02    3.31       0.0  T
   2    -34.4937144 -0.669315E-05  0.126E-02    3.30       2.0  T
   3    -34.4937150 -0.660937E-06  0.677E-03    3.31       3.7  T
   4    -34.4937151 -0.350588E-07  0.121E-03    3.30      20.6  T
   5    -34.4937151 -0.344745E-08  0.270E-04    3.30      92.7  T
   6    -34.4937151 -0.277822E-09  0.702E-05    3.30     356.2  T
   7    -34.4937151 -0.376232E-10  0.172E-05    3.30    1454.6  T
     SCC iter.                  ...        0 min,  0.005 sec
     gradient                   ...        0 min,  0.017 sec
 * total energy  :   -34.2080199 Eh     change       -0.2654981E-03 Eh
   gradient norm :     0.0122502 Eh/α   predicted    -0.3106727E-03 (  17.02%)
   displ. norm   :     0.5131649 α      lambda       -0.3771365E-03
   maximum displ.:     0.3340695 α      in ANC's #2, #4, #3, ...

........................................................................
.............................. CYCLE   30 ..............................
........................................................................
   1    -34.4882263 -0.344882E+02  0.392E-02    3.30       0.0  T
   2    -34.4882396 -0.133241E-04  0.172E-02    3.30       1.5  T
   3    -34.4882415 -0.188320E-05  0.998E-03    3.30       2.5  T
   4    -34.4882416 -0.661529E-07  0.635E-04    3.30      39.4  T
   5    -34.4882416 -0.236323E-08  0.210E-04    3.30     119.2  T
   6    -34.4882416 -0.327802E-09  0.905E-05    3.30     276.4  T
   7    -34.4882416 -0.340066E-10  0.125E-05    3.30    1995.3  T
     SCC iter.                  ...        0 min,  0.005 sec
     gradient                   ...        0 min,  0.017 sec
 * total energy  :   -34.2082037 Eh     change       -0.1838121E-03 Eh
   gradient norm :     0.0127535 Eh/α   predicted    -0.2382334E-03 (  29.61%)
   displ. norm   :     0.0878178 α      lambda       -0.2555690E-03
   maximum displ.:     0.0523578 α      in ANC's #3, #2, #5, ...

........................................................................
.............................. CYCLE   31 ..............................
........................................................................
   1    -34.4919669 -0.344920E+02  0.187E-02    3.31       0.0  T
   2    -34.4919693 -0.241355E-05  0.733E-03    3.31       3.4  T
   3    -34.4919693 -0.340917E-07  0.382E-03    3.31       6.5  T
   4    -34.4919693 -0.843931E-08  0.960E-04    3.31      26.0  T
   5    -34.4919693 -0.564951E-08  0.152E-04    3.31     164.2  T
   6    -34.4919693 -0.698677E-10  0.421E-05    3.31     594.5  T
     SCC iter.                  ...        0 min,  0.004 sec
     gradient                   ...        0 min,  0.017 sec
 * total energy  :   -34.2083804 Eh     change       -0.1767056E-03 Eh
   gradient norm :     0.0060068 Eh/α   predicted    -0.1287690E-03 ( -27.13%)
   displ. norm   :     0.4914586 α      lambda       -0.3376667E-03
   maximum displ.:     0.3089032 α      in ANC's #2, #3, #4, ...

........................................................................
.............................. CYCLE   32 ..............................
........................................................................
   1    -34.4931866 -0.344932E+02  0.159E-02    3.31       0.0  T
   2    -34.4931903 -0.372180E-05  0.628E-03    3.31       4.0  T
   3    -34.4931904 -0.862138E-07  0.314E-03    3.31       8.0  T
   4    -34.4931904 -0.565965E-08  0.136E-03    3.31      18.4  T
   5    -34.4931904 -0.406207E-08  0.111E-04    3.31     224.5  T
   6    -34.4931904 -0.499298E-10  0.472E-05    3.31     529.6  T
     SCC iter.                  ...        0 min,  0.004 sec
     gradient                   ...        0 min,  0.016 sec
 * total energy  :   -34.2086291 Eh     change       -0.2487115E-03 Eh
   gradient norm :     0.0049098 Eh/α   predicted    -0.2096011E-03 ( -15.73%)
   displ. norm   :     0.6221677 α      lambda       -0.3859239E-03
   maximum displ.:     0.4092783 α      in ANC's #2, #3, #4, ...

........................................................................
.............................. CYCLE   33 ..............................
........................................................................
   1    -34.4922084 -0.344922E+02  0.256E-02    3.30       0.0  T
   2    -34.4922185 -0.101536E-04  0.121E-02    3.30       2.1  T
   3    -34.4922199 -0.140665E-05  0.486E-03    3.30       5.1  T
   4    -34.4922199 -0.712952E-08  0.121E-03    3.30      20.7  T
   5    -34.4922199 -0.789051E-09  0.277E-04    3.30      90.2  T
   6    -34.4922199 -0.287308E-09  0.863E-05    3.30     289.6  T
   7    -34.4922199 -0.593658E-10  0.251E-05    3.30     995.5  T
     SCC iter.                  ...        0 min,  0.005 sec
     gradient                   ...        0 min,  0.015 sec
 * total energy  :   -34.2088882 Eh     change       -0.2591521E-03 Eh
   gradient norm :     0.0102122 Eh/α   predicted    -0.2676504E-03 (   3.28%)
   displ. norm   :     0.4941113 α      lambda       -0.3820381E-03
   maximum displ.:     0.3268718 α      in ANC's #3, #2, #5, ...

........................................................................
.............................. CYCLE   34 ..............................
........................................................................
   1    -34.4939059 -0.344939E+02  0.213E-02    3.29       0.0  T
   2    -34.4939103 -0.433003E-05  0.987E-03    3.30       2.5  T
   3    -34.4939105 -0.234343E-06  0.593E-03    3.30       4.2  T
   4    -34.4939105 -0.120325E-07  0.939E-04    3.30      26.6  T
   5    -34.4939105 -0.276641E-08  0.167E-04    3.30     149.4  T
   6    -34.4939105 -0.214001E-09  0.544E-05    3.30     459.2  T
     SCC iter.                  ...        0 min,  0.004 sec
     gradient                   ...        0 min,  0.009 sec
 * total energy  :   -34.2091617 Eh     change       -0.2734333E-03 Eh
   gradient norm :     0.0110030 Eh/α   predicted    -0.2376509E-03 ( -13.09%)
   displ. norm   :     0.6230732 α      lambda       -0.5105737E-03
   maximum displ.:     0.4444579 α      in ANC's #3, #2, #5, ...

........................................................................
.............................. CYCLE   35 ..............................
........................................................................
   1    -34.4932044 -0.344932E+02  0.137E-02    3.28       0.0  T
   2    -34.4932073 -0.289968E-05  0.465E-03    3.28       5.4  T
   3    -34.4932074 -0.150928E-06  0.284E-03    3.28       8.8  T
   4    -34.4932075 -0.167583E-07  0.110E-03    3.28      22.7  T
   5    -34.4932075 -0.289674E-09  0.262E-04    3.28      95.6  T
   6    -34.4932075 -0.192337E-09  0.633E-05    3.28     395.2  T
   7    -34.4932075 -0.320881E-10  0.245E-05    3.28    1021.4  T
     SCC iter.                  ...        0 min,  0.005 sec
     gradient                   ...        0 min,  0.015 sec
 * total energy  :   -34.2095976 Eh     change       -0.4359037E-03 Eh
   gradient norm :     0.0118407 Eh/α   predicted    -0.3543956E-03 ( -18.70%)
   displ. norm   :     0.4992268 α      lambda       -0.1007963E-02
   maximum displ.:     0.3704541 α      in ANC's #3, #4, #6, ...

........................................................................
.............................. CYCLE   36 ..............................
........................................................................
   1    -34.5058589 -0.345059E+02  0.548E-02    3.28       0.0  T
   2    -34.5058781 -0.191701E-04  0.315E-02    3.28       1.0  T
   3    -34.5058793 -0.126422E-05  0.154E-02    3.29       1.6  T
   4    -34.5058797 -0.394893E-06  0.256E-03    3.28       9.8  T
   5    -34.5058797 -0.148230E-07  0.648E-04    3.28      38.6  T
   6    -34.5058797 -0.755406E-09  0.140E-04    3.28     178.2  T
   7    -34.5058797 -0.180087E-09  0.297E-05    3.28     842.7  T
     SCC iter.                  ...        0 min,  0.005 sec
     gradient                   ...        0 min,  0.015 sec
 * total energy  :   -34.2094352 Eh     change        0.1624119E-03 Eh
   gradient norm :     0.0266895 Eh/α   predicted    -0.6295816E-03 (-487.64%)
   displ. norm   :     0.3918240 α      lambda       -0.1481274E-02
   maximum displ.:     0.2344749 α      in ANC's #2, #3, #4, ...

........................................................................
.............................. CYCLE   37 ..............................
........................................................................
   1    -34.4953243 -0.344953E+02  0.584E-02    3.28       0.0  T
   2    -34.4953506 -0.262671E-04  0.295E-02    3.29       1.0  T
   3    -34.4953540 -0.342808E-05  0.169E-02    3.29       1.5  T
   4    -34.4953542 -0.181259E-06  0.139E-03    3.29      18.0  T
   5    -34.4953542 -0.103210E-07  0.486E-04    3.29      51.4  T
   6    -34.4953542 -0.151102E-08  0.197E-04    3.29     127.1  T
   7    -34.4953542 -0.160959E-09  0.223E-05    3.29    1122.6  T
     SCC iter.                  ...        0 min,  0.005 sec
     gradient                   ...        0 min,  0.015 sec
 * total energy  :   -34.2102295 Eh     change       -0.7943463E-03 Eh
   gradient norm :     0.0121034 Eh/α   predicted    -0.8543481E-03 (   7.55%)
   displ. norm   :     0.6052136 α      lambda       -0.7426240E-03
   maximum displ.:     0.4507869 α      in ANC's #3, #2, #5, ...

........................................................................
.............................. CYCLE   38 ..............................
........................................................................
   1    -34.4895996 -0.344896E+02  0.333E-02    3.24       0.0  T
   2    -34.4896154 -0.157819E-04  0.198E-02    3.25       1.3  T
   3    -34.4896169 -0.152850E-05  0.107E-02    3.25       2.3  T
   4    -34.4896169 -0.651667E-09  0.265E-03    3.25       9.4  T
   5    -34.4896169 -0.230721E-07  0.298E-04    3.25      84.0  T
   6    -34.4896169 -0.888505E-09  0.108E-04    3.25     231.2  T
   7    -34.4896169 -0.786642E-10  0.374E-05    3.25     669.0  T
     SCC iter.                  ...        0 min,  0.005 sec
     gradient                   ...        0 min,  0.015 sec
 * total energy  :   -34.2105544 Eh     change       -0.3248991E-03 Eh
   gradient norm :     0.0190561 Eh/α   predicted    -0.5073043E-03 (  56.14%)
   displ. norm   :     0.2641333 α      lambda       -0.5467042E-03
   maximum displ.:     0.2443433 α      in ANC's #3, #5, #6, ...

........................................................................
.............................. CYCLE   39 ..............................
........................................................................
   1    -34.4938110 -0.344938E+02  0.267E-02    3.30       0.0  T
   2    -34.4938204 -0.943870E-05  0.100E-02    3.29       2.5  T
   3    -34.4938209 -0.453652E-06  0.608E-03    3.29       4.1  T
   4    -34.4938209 -0.395544E-07  0.205E-03    3.29      12.2  T
   5    -34.4938209 -0.631477E-08  0.149E-04    3.29     168.0  T
   6    -34.4938209 -0.246366E-09  0.522E-05    3.29     478.7  T
     SCC iter.                  ...        0 min,  0.004 sec
     gradient                   ...        0 min,  0.015 sec
 * total energy  :   -34.2109601 Eh     change       -0.4057107E-03 Eh
   gradient norm :     0.0075566 Eh/α   predicted    -0.2924209E-03 ( -27.92%)
   displ. norm   :     0.5388010 α      lambda       -0.6553074E-03
   maximum displ.:     0.4963573 α      in ANC's #3, #2, #1, ...

........................................................................
.............................. CYCLE   40 ..............................
........................................................................
   1    -34.4980685 -0.344981E+02  0.215E-02    3.29       0.0  T
   2    -34.4980717 -0.317617E-05  0.105E-02    3.29       2.4  T
   3    -34.4980719 -0.172510E-06  0.573E-03    3.29       4.4  T
   4    -34.4980719 -0.424303E-07  0.131E-03    3.29      19.1  T
   5    -34.4980719 -0.374380E-08  0.316E-04    3.29      79.1  T
   6    -34.4980719 -0.220041E-09  0.867E-05    3.29     288.4  T
   7    -34.4980719 -0.626414E-10  0.133E-05    3.29    1879.3  T
     SCC iter.                  ...        0 min,  0.005 sec
     gradient                   ...        0 min,  0.015 sec
 * total energy  :   -34.2114145 Eh     change       -0.4543287E-03 Eh
   gradient norm :     0.0072058 Eh/α   predicted    -0.4227723E-03 (  -6.95%)
   displ. norm   :     0.6427532 α      lambda       -0.4683767E-03
   maximum displ.:     0.5768222 α      in ANC's #3, #2, #5, ...

........................................................................
.............................. CYCLE   41 ..............................
........................................................................
   1    -34.4973260 -0.344973E+02  0.835E-03    3.29       0.0  T
   2    -34.4973265 -0.481862E-06  0.536E-03    3.29       4.7  T
   3    -34.4973266 -0.628858E-07  0.263E-03    3.29       9.5  T
   4    -34.4973266 -0.620205E-08  0.431E-04    3.29      58.0  T
   5    -34.4973266 -0.483460E-09  0.105E-04    3.29     237.0  T
   6    -34.4973266 -0.597780E-10  0.376E-05    3.29     665.3  T
     SCC iter.                  ...        0 min,  0.004 sec
     gradient                   ...        0 min,  0.015 sec
 * total energy  :   -34.2117113 Eh     change       -0.2968397E-03 Eh
   gradient norm :     0.0046459 Eh/α   predicted    -0.3309335E-03 (  11.49%)
   displ. norm   :     0.2761246 α      lambda       -0.1204166E-03
   maximum displ.:     0.2498828 α      in ANC's #3, #2, #5, ...

........................................................................
.............................. CYCLE   42 ..............................
........................................................................
   1    -34.4977113 -0.344977E+02  0.971E-03    3.29       0.0  T
   2    -34.4977117 -0.335755E-06  0.441E-03    3.29       5.7  T
   3    -34.4977117 -0.105396E-07  0.204E-03    3.29      12.2  T
   4    -34.4977117 -0.725854E-08  0.514E-04    3.29      48.6  T
   5    -34.4977117 -0.122381E-08  0.846E-05    3.29     295.6  T
   6    -34.4977117 -0.380496E-10  0.287E-05    3.29     870.3  T
     SCC iter.                  ...        0 min,  0.004 sec
     gradient                   ...        0 min,  0.015 sec
 * total energy  :   -34.2117706 Eh     change       -0.5934070E-04 Eh
   gradient norm :     0.0053367 Eh/α   predicted    -0.6479941E-04 (   9.20%)
   displ. norm   :     0.3304182 α      lambda       -0.9905910E-04
   maximum displ.:     0.2760637 α      in ANC's #3, #2, #5, ...
 * RMSD in coord.:     1.8260938 α      energy gain  -0.5485666E-02 Eh

generating ANC from model Hessian ...
Using Lindh-Hessian (1995)
 Shifting diagonal of input Hessian by   9.974750165557494E-003
 Lowest  eigenvalues of input Hessian
    0.000000    0.000000    0.000000    0.000000    0.000000    0.000000
    0.010000    0.010010    0.010362    0.014351    0.015007    0.016355
    0.021305    0.034540    0.039076    0.049008    0.062814    0.067272
 Highest eigenvalues
    1.436020    1.691995    1.874621    2.012231    2.140337    2.240765
 

........................................................................
.............................. CYCLE   43 ..............................
........................................................................
   1    -34.4944727 -0.344945E+02  0.204E-02    3.27       0.0  T
   2    -34.4944754 -0.263678E-05  0.896E-03    3.28       2.8  T
   3    -34.4944756 -0.257374E-06  0.523E-03    3.28       4.8  T
   4    -34.4944757 -0.400194E-07  0.741E-04    3.28      33.7  T
   5    -34.4944757 -0.161852E-08  0.128E-04    3.28     196.1  T
   6    -34.4944757 -0.130399E-09  0.517E-05    3.28     483.6  T
     SCC iter.                  ...        0 min,  0.004 sec
     gradient                   ...        0 min,  0.014 sec
 * total energy  :   -34.2117775 Eh     change       -0.6892119E-05 Eh
   gradient norm :     0.0079355 Eh/α   predicted     0.0000000E+00 (-100.00%)
   displ. norm   :     0.0504187 α      lambda       -0.1228984E-03
   maximum displ.:     0.0279078 α      in ANC's #3, #5, #4, ...

........................................................................
.............................. CYCLE   44 ..............................
........................................................................
   1    -34.4972454 -0.344972E+02  0.133E-02    3.29       0.0  T
   2    -34.4972463 -0.922533E-06  0.583E-03    3.28       4.3  T
   3    -34.4972464 -0.888889E-07  0.349E-03    3.29       7.2  T
   4    -34.4972464 -0.183832E-07  0.356E-04    3.28      70.2  T
   5    -34.4972464 -0.447478E-09  0.760E-05    3.29     328.9  T
   6    -34.4972464 -0.218279E-10  0.275E-05    3.29     909.5  T
     SCC iter.                  ...        0 min,  0.004 sec
     gradient                   ...        0 min,  0.014 sec
 * total energy  :   -34.2118623 Eh     change       -0.8479806E-04 Eh
   gradient norm :     0.0025754 Eh/α   predicted    -0.6160374E-04 ( -27.35%)
   displ. norm   :     0.0734838 α      lambda       -0.5729264E-04
   maximum displ.:     0.0493580 α      in ANC's #3, #4, #5, ...

........................................................................
.............................. CYCLE   45 ..............................
........................................................................
   1    -34.4987999 -0.344988E+02  0.753E-03    3.29       0.0  T
   2    -34.4988002 -0.321250E-06  0.321E-03    3.29       7.8  T
   3    -34.4988002 -0.303537E-07  0.194E-03    3.29      12.9  T
   4    -34.4988002 -0.533451E-08  0.239E-04    3.29     104.5  T
   5    -34.4988002 -0.249123E-09  0.550E-05    3.29     454.3  T
   6    -34.4988002 -0.153975E-10  0.211E-05    3.29    1184.2  T
     SCC iter.                  ...        0 min,  0.004 sec
     gradient                   ...        0 min,  0.014 sec
 * total energy  :   -34.2119028 Eh     change       -0.4051591E-04 Eh
   gradient norm :     0.0014653 Eh/α   predicted    -0.2880262E-04 ( -28.91%)
   displ. norm   :     0.1454872 α      lambda       -0.4195291E-04
   maximum displ.:     0.1000214 α      in ANC's #3, #4, #5, ...

........................................................................
.............................. CYCLE   46 ..............................
........................................................................
   1    -34.4991565 -0.344992E+02  0.264E-03    3.29       0.0  T
   2    -34.4991566 -0.784323E-07  0.890E-04    3.29      28.1  T
   3    -34.4991566 -0.421729E-08  0.505E-04    3.29      49.5  T
   4    -34.4991566 -0.624745E-09  0.205E-04    3.29     121.8  T
   5    -34.4991566 -0.997673E-10  0.540E-05    3.29     462.9  T
   6    -34.4991566 -0.922284E-11  0.131E-05    3.29    1908.0  T
     SCC iter.                  ...        0 min,  0.004 sec
     gradient                   ...        0 min,  0.015 sec
 * total energy  :   -34.2119485 Eh     change       -0.4561144E-04 Eh
   gradient norm :     0.0022780 Eh/α   predicted    -0.2117126E-04 ( -53.58%)
   displ. norm   :     0.0897749 α      lambda       -0.3350978E-04
   maximum displ.:     0.0668676 α      in ANC's #3, #4, #2, ...

........................................................................
.............................. CYCLE   47 ..............................
........................................................................
   1    -34.4986668 -0.344987E+02  0.337E-03    3.29       0.0  T
   2    -34.4986669 -0.896145E-07  0.160E-03    3.29      15.6  T
   3    -34.4986669 -0.104653E-07  0.923E-04    3.29      27.1  T
   4    -34.4986669 -0.964420E-09  0.116E-04    3.29     215.0  T
   5    -34.4986669 -0.214015E-10  0.413E-05    3.29     604.9  T
     SCC iter.                  ...        0 min,  0.003 sec
     gradient                   ...        0 min,  0.014 sec
 * total energy  :   -34.2119766 Eh     change       -0.2813002E-04 Eh
   gradient norm :     0.0014303 Eh/α   predicted    -0.1689036E-04 ( -39.96%)
   displ. norm   :     0.1548409 α      lambda       -0.3340110E-04
   maximum displ.:     0.1168954 α      in ANC's #3, #4, #2, ...

........................................................................
.............................. CYCLE   48 ..............................
........................................................................
   1    -34.4975958 -0.344976E+02  0.636E-03    3.29       0.0  T
   2    -34.4975961 -0.263335E-06  0.295E-03    3.29       8.5  T
   3    -34.4975961 -0.330744E-07  0.171E-03    3.29      14.6  T
   4    -34.4975961 -0.407736E-08  0.186E-04    3.29     134.6  T
   5    -34.4975961 -0.487503E-10  0.743E-05    3.29     336.3  T
     SCC iter.                  ...        0 min,  0.003 sec
     gradient                   ...        0 min,  0.014 sec
 * total energy  :   -34.2120124 Eh     change       -0.3582158E-04 Eh
   gradient norm :     0.0021014 Eh/α   predicted    -0.1687798E-04 ( -52.88%)
   displ. norm   :     0.0758317 α      lambda       -0.2377670E-04
   maximum displ.:     0.0582589 α      in ANC's #3, #2, #7, ...

........................................................................
.............................. CYCLE   49 ..............................
........................................................................
   1    -34.4976249 -0.344976E+02  0.129E-03    3.29       0.0  T
   2    -34.4976249 -0.123130E-07  0.592E-04    3.29      42.2  T
   3    -34.4976249 -0.109422E-08  0.236E-04    3.29     106.0  T
   4    -34.4976249 -0.262759E-09  0.669E-05    3.29     373.8  T
   5    -34.4976249 -0.173017E-10  0.221E-05    3.29    1132.4  T
     SCC iter.                  ...        0 min,  0.003 sec
     gradient                   ...        0 min,  0.014 sec
 * total energy  :   -34.2120343 Eh     change       -0.2191799E-04 Eh
   gradient norm :     0.0020899 Eh/α   predicted    -0.1195742E-04 ( -45.44%)
   displ. norm   :     0.1840751 α      lambda       -0.6141466E-04
   maximum displ.:     0.1367054 α      in ANC's #3, #2, #7, ...

........................................................................
.............................. CYCLE   50 ..............................
........................................................................
   1    -34.4977210 -0.344977E+02  0.314E-03    3.29       0.0  T
   2    -34.4977210 -0.470159E-07  0.151E-03    3.29      16.5  T
   3    -34.4977210 -0.681247E-08  0.644E-04    3.29      38.8  T
   4    -34.4977210 -0.208927E-08  0.158E-04    3.29     158.1  T
   5    -34.4977210 -0.683613E-10  0.543E-05    3.29     460.6  T
     SCC iter.                  ...        0 min,  0.003 sec
     gradient                   ...        0 min,  0.014 sec
 * total energy  :   -34.2120880 Eh     change       -0.5371800E-04 Eh
   gradient norm :     0.0020182 Eh/α   predicted    -0.3174658E-04 ( -40.90%)
   displ. norm   :     0.3541950 α      lambda       -0.9844553E-04
   maximum displ.:     0.2596293 α      in ANC's #3, #2, #7, ...

........................................................................
.............................. CYCLE   51 ..............................
........................................................................
   1    -34.4969271 -0.344969E+02  0.734E-03    3.29       0.0  T
   2    -34.4969274 -0.296681E-06  0.355E-03    3.29       7.0  T
   3    -34.4969275 -0.467556E-07  0.169E-03    3.29      14.8  T
   4    -34.4969275 -0.110945E-07  0.329E-04    3.29      75.9  T
   5    -34.4969275 -0.558487E-10  0.104E-04    3.29     241.5  T
   6    -34.4969275 -0.544276E-10  0.110E-05    3.29    2281.3  T
     SCC iter.                  ...        0 min,  0.004 sec
     gradient                   ...        0 min,  0.014 sec
 * total energy  :   -34.2121546 Eh     change       -0.6652149E-04 Eh
   gradient norm :     0.0040927 Eh/α   predicted    -0.5540268E-04 ( -16.71%)
   displ. norm   :     0.1797985 α      lambda       -0.5327369E-04
   maximum displ.:     0.1283324 α      in ANC's #3, #2, #7, ...

........................................................................
.............................. CYCLE   52 ..............................
........................................................................
   1    -34.4974426 -0.344974E+02  0.403E-03    3.29       0.0  T
   2    -34.4974427 -0.686620E-07  0.205E-03    3.29      12.2  T
   3    -34.4974427 -0.858480E-08  0.945E-04    3.29      26.4  T
   4    -34.4974427 -0.349463E-08  0.204E-04    3.29     122.6  T
   5    -34.4974427 -0.403730E-10  0.656E-05    3.29     380.8  T
   6    -34.4974427 -0.125766E-10  0.153E-05    3.29    1628.8  T
     SCC iter.                  ...        0 min,  0.004 sec
     gradient                   ...        0 min,  0.015 sec
 * total energy  :   -34.2121951 Eh     change       -0.4057201E-04 Eh
   gradient norm :     0.0028493 Eh/α   predicted    -0.2749586E-04 ( -32.23%)
   displ. norm   :     0.2344393 α      lambda       -0.5458207E-04
   maximum displ.:     0.1626375 α      in ANC's #3, #2, #7, ...

........................................................................
.............................. CYCLE   53 ..............................
........................................................................
   1    -34.4979025 -0.344979E+02  0.317E-03    3.29       0.0  T
   2    -34.4979025 -0.787504E-07  0.155E-03    3.29      16.2  T
   3    -34.4979026 -0.683872E-08  0.663E-04    3.29      37.7  T
   4    -34.4979026 -0.228825E-08  0.198E-04    3.29     126.4  T
   5    -34.4979026 -0.712319E-10  0.805E-05    3.29     310.6  T
     SCC iter.                  ...        0 min,  0.003 sec
     gradient                   ...        0 min,  0.014 sec
 * total energy  :   -34.2122421 Eh     change       -0.4696238E-04 Eh
   gradient norm :     0.0020491 Eh/α   predicted    -0.2879395E-04 ( -38.69%)
   displ. norm   :     0.4234723 α      lambda       -0.8965829E-04
   maximum displ.:     0.2896049 α      in ANC's #3, #2, #7, ...

........................................................................
.............................. CYCLE   54 ..............................
........................................................................
   1    -34.4976631 -0.344977E+02  0.508E-03    3.28       0.0  T
   2    -34.4976633 -0.196915E-06  0.222E-03    3.29      11.3  T
   3    -34.4976634 -0.182934E-07  0.104E-03    3.29      24.1  T
   4    -34.4976634 -0.586182E-08  0.286E-04    3.29      87.5  T
   5    -34.4976634 -0.706848E-10  0.130E-04    3.29     191.7  T
   6    -34.4976634 -0.478906E-11  0.219E-05    3.29    1143.6  T
     SCC iter.                  ...        0 min,  0.004 sec
     gradient                   ...        0 min,  0.014 sec
 * total energy  :   -34.2123149 Eh     change       -0.7279952E-04 Eh
   gradient norm :     0.0031733 Eh/α   predicted    -0.5287102E-04 ( -27.37%)
   displ. norm   :     0.4290646 α      lambda       -0.1394201E-03
   maximum displ.:     0.2638584 α      in ANC's #2, #3, #1, ...

........................................................................
.............................. CYCLE   55 ..............................
........................................................................
   1    -34.4998901 -0.344999E+02  0.979E-03    3.28       0.0  T
   2    -34.4998905 -0.417304E-06  0.511E-03    3.28       4.9  T
   3    -34.4998906 -0.267049E-07  0.259E-03    3.28       9.7  T
   4    -34.4998906 -0.899666E-08  0.424E-04    3.28      59.0  T
   5    -34.4998906 -0.700787E-09  0.148E-04    3.28     169.5  T
   6    -34.4998906 -0.537597E-10  0.398E-05    3.28     628.4  T
     SCC iter.                  ...        0 min,  0.004 sec
     gradient                   ...        0 min,  0.014 sec
 * total energy  :   -34.2124012 Eh     change       -0.8630248E-04 Eh
   gradient norm :     0.0048079 Eh/α   predicted    -0.8254246E-04 (  -4.36%)
   displ. norm   :     0.6168268 α      lambda       -0.1319293E-03
   maximum displ.:     0.4060164 α      in ANC's #3, #2, #1, ...

........................................................................
.............................. CYCLE   56 ..............................
........................................................................
   1    -34.4956830 -0.344957E+02  0.191E-02    3.27       0.0  T
   2    -34.4956844 -0.139815E-05  0.935E-03    3.27       2.7  T
   3    -34.4956846 -0.132520E-06  0.509E-03    3.27       4.9  T
   4    -34.4956846 -0.628670E-07  0.639E-04    3.27      39.1  T
   5    -34.4956846 -0.553641E-09  0.183E-04    3.27     136.5  T
   6    -34.4956846 -0.106674E-09  0.501E-05    3.27     499.3  T
     SCC iter.                  ...        0 min,  0.004 sec
     gradient                   ...        0 min,  0.014 sec
 * total energy  :   -34.2124276 Eh     change       -0.2644627E-04 Eh
   gradient norm :     0.0092247 Eh/α   predicted    -0.9106062E-04 ( 244.32%)
   displ. norm   :     0.1148513 α      lambda       -0.1490216E-03
   maximum displ.:     0.0853101 α      in ANC's #3, #7, #2, ...

........................................................................
.............................. CYCLE   57 ..............................
........................................................................
   1    -34.4987934 -0.344988E+02  0.144E-02    3.29       0.0  T
   2    -34.4987947 -0.129348E-05  0.697E-03    3.29       3.6  T
   3    -34.4987948 -0.722071E-07  0.386E-03    3.29       6.5  T
   4    -34.4987948 -0.319484E-07  0.685E-04    3.29      36.5  T
   5    -34.4987948 -0.114067E-08  0.115E-04    3.29     217.6  T
   6    -34.4987948 -0.617746E-10  0.454E-05    3.29     551.1  T
     SCC iter.                  ...        0 min,  0.004 sec
     gradient                   ...        0 min,  0.014 sec
 * total energy  :   -34.2125046 Eh     change       -0.7690395E-04 Eh
   gradient norm :     0.0027590 Eh/α   predicted    -0.7549532E-04 (  -1.83%)
   displ. norm   :     0.2446500 α      lambda       -0.4878116E-04
   maximum displ.:     0.1549036 α      in ANC's #2, #3, #1, ...

........................................................................
.............................. CYCLE   58 ..............................
........................................................................
   1    -34.4988739 -0.344989E+02  0.181E-03    3.29       0.0  T
   2    -34.4988739 -0.251951E-07  0.857E-04    3.29      29.2  T
   3    -34.4988739 -0.962864E-09  0.417E-04    3.29      60.0  T
   4    -34.4988739 -0.194078E-09  0.127E-04    3.29     196.6  T
   5    -34.4988739 -0.289901E-10  0.261E-05    3.29     957.1  T
     SCC iter.                  ...        0 min,  0.003 sec
     gradient                   ...        0 min,  0.014 sec
 * total energy  :   -34.2125465 Eh     change       -0.4193825E-04 Eh
   gradient norm :     0.0020501 Eh/α   predicted    -0.2585159E-04 ( -38.36%)
   displ. norm   :     0.4762016 α      lambda       -0.6888638E-04
   maximum displ.:     0.3020706 α      in ANC's #2, #3, #1, ...

........................................................................
.............................. CYCLE   59 ..............................
........................................................................
   1    -34.4970681 -0.344971E+02  0.836E-03    3.28       0.0  T
   2    -34.4970687 -0.591336E-06  0.378E-03    3.28       6.6  T
   3    -34.4970688 -0.667502E-07  0.215E-03    3.28      11.6  T
   4    -34.4970688 -0.434196E-08  0.333E-04    3.28      75.0  T
   5    -34.4970688 -0.335412E-09  0.648E-05    3.28     385.9  T
   6    -34.4970688 -0.306102E-10  0.249E-05    3.28    1005.9  T
     SCC iter.                  ...        0 min,  0.004 sec
     gradient                   ...        0 min,  0.014 sec
 * total energy  :   -34.2125821 Eh     change       -0.3563934E-04 Eh
   gradient norm :     0.0041017 Eh/α   predicted    -0.4226298E-04 (  18.59%)
   displ. norm   :     0.1530711 α      lambda       -0.3126248E-04
   maximum displ.:     0.1043296 α      in ANC's #2, #3, #1, ...

........................................................................
.............................. CYCLE   60 ..............................
........................................................................
   1    -34.4981139 -0.344981E+02  0.608E-03    3.29       0.0  T
   2    -34.4981141 -0.223888E-06  0.262E-03    3.29       9.5  T
   3    -34.4981141 -0.216200E-07  0.161E-03    3.29      15.5  T
   4    -34.4981141 -0.348425E-08  0.173E-04    3.29     144.9  T
   5    -34.4981141 -0.740030E-10  0.172E-05    3.29    1453.5  T
     SCC iter.                  ...        0 min,  0.003 sec
     gradient                   ...        0 min,  0.014 sec
 * total energy  :   -34.2126070 Eh     change       -0.2488323E-04 Eh
   gradient norm :     0.0020467 Eh/α   predicted    -0.1599896E-04 ( -35.70%)
   displ. norm   :     0.4696371 α      lambda       -0.6475730E-04
   maximum displ.:     0.3186410 α      in ANC's #2, #3, #1, ...

........................................................................
.............................. CYCLE   61 ..............................
........................................................................
   1    -34.4981168 -0.344981E+02  0.492E-03    3.29       0.0  T
   2    -34.4981172 -0.333322E-06  0.237E-03    3.29      10.5  T
   3    -34.4981172 -0.464430E-07  0.854E-04    3.29      29.3  T
   4    -34.4981172  0.600195E-10  0.280E-04    3.29      89.2  T
   5    -34.4981172 -0.200863E-09  0.417E-05    3.29     600.2  T
   6    -34.4981172 -0.100826E-10  0.171E-05    3.29    1462.9  T
     SCC iter.                  ...        0 min,  0.004 sec
     gradient                   ...        0 min,  0.014 sec
 * total energy  :   -34.2126481 Eh     change       -0.4107539E-04 Eh
   gradient norm :     0.0028275 Eh/α   predicted    -0.3952096E-04 (  -3.78%)
   displ. norm   :     0.1353701 α      lambda       -0.3543165E-04
   maximum displ.:     0.0953840 α      in ANC's #2, #3, #1, ...

........................................................................
.............................. CYCLE   62 ..............................
........................................................................
[...]
   gradient norm :     0.0010314 Eh/α   predicted    -0.3532063E-05 ( -34.67%)
   displ. norm   :     0.0395764 α      lambda       -0.7327950E-05
   maximum displ.:     0.0251892 α      in ANC's #4, #5, #1, ...

........................................................................
.............................. CYCLE   73 ..............................
........................................................................
   1    -34.4998914 -0.344999E+02  0.420E-03    3.29       0.0  T
   2    -34.4998916 -0.154758E-06  0.162E-03    3.29      15.5  T
   3    -34.4998916 -0.158168E-07  0.958E-04    3.29      26.1  T
   4    -34.4998916 -0.107623E-08  0.176E-04    3.29     142.1  T
   5    -34.4998916 -0.571134E-10  0.353E-05    3.29     707.8  T
     SCC iter.                  ...        0 min,  0.003 sec
     gradient                   ...        0 min,  0.014 sec
 * total energy  :   -34.2129107 Eh     change       -0.5754806E-05 Eh
   gradient norm :     0.0009243 Eh/α   predicted    -0.3666319E-05 ( -36.29%)
   displ. norm   :     0.0314233 α      lambda       -0.2700847E-05
   maximum displ.:     0.0223109 α      in ANC's #4, #7, #3, ...

........................................................................
.............................. CYCLE   74 ..............................
........................................................................
   1    -34.4997916 -0.344998E+02  0.671E-04    3.29       0.0  T
   2    -34.4997916 -0.209127E-08  0.306E-04    3.29      81.7  T
   3    -34.4997916 -0.267562E-09  0.161E-04    3.29     154.9  T
   4    -34.4997916 -0.895710E-10  0.389E-05    3.29     642.4  T
     SCC iter.                  ...        0 min,  0.003 sec
     gradient                   ...        0 min,  0.014 sec
 * total energy  :   -34.2129145 Eh     change       -0.3820632E-05 Eh
   gradient norm :     0.0007033 Eh/α   predicted    -0.1351348E-05 ( -64.63%)
   displ. norm   :     0.2287030 α      lambda       -0.1781713E-04
   maximum displ.:     0.1562416 α      in ANC's #4, #7, #3, ...

   *** GEOMETRY OPTIMIZATION CONVERGED AFTER 74 ITERATIONS ***

------------------------------------------------------------------------
 total energy gain   :        -0.0550424 Eh      -34.5396 kcal/mol
 total RMSD          :         3.3547624 a0        1.7753 Å
 total power (kW/mol):        -1.9528896 (step)  -66.0116 (real)
------------------------------------------------------------------------

 ANCopt (total)                0 d,  0 h,  0 min,  2.189 sec
 optimizer setup                ...        0 min,  0.001 sec (  0.038%)
 model hessian                  ...        0 min,  0.010 sec (  0.447%)
 ANC generation                 ...        0 min,  0.002 sec (  0.072%)
 coordinate transformation      ...        0 min,  0.001 sec (  0.033%)
 single point calculation       ...        0 min,  2.152 sec ( 98.296%)
 optimization log               ...        0 min,  0.008 sec (  0.344%)
 hessian update                 ...        0 min,  0.001 sec (  0.036%)
 rational function              ...        0 min,  0.009 sec (  0.433%)

================
 final structure:
================
16
 xtb: 6.5.1 (579679a)
C           -2.69854472567652       -0.11818047248994        1.03518192272756
C           -1.44484891165610       -0.18252344107180        0.25564226713748
N           -1.31401300551769       -0.24358529424942       -1.03529144364746
N            0.01643946125263       -0.28605075303228       -1.29263516437906
C            0.62658648544806       -0.24871474327778       -0.14511997518560
C            2.08113860723757       -0.26082188982381        0.11597582810866
C            2.45705015927439       -0.17471199657742        1.56565072171189
O            2.88137912864954       -0.33608673657041       -0.78692144826705
Cl          -0.92715362614171        2.80751222069484       -6.48189933424185
O           -0.25826944964554       -0.18057842083213        0.87547786191417
H           -3.55259878705434       -0.22201340685974        0.37052207842738
H           -2.71171441447302       -0.91242493853003        1.77998815957308
H           -2.76048526374033        0.83395630200479        1.56217532311264
H            3.53737384405127       -0.11666179091946        1.67184660233372
H            2.08157875556026       -1.05577498955704        2.08426181330125
H            1.98608174244954        0.69665935112410        2.01702378737817
 
 Bond Distances (Angstroems)
 ---------------------------
C1-C2=1.4777         C1-H11=1.0872        C1-H12=1.0889        C1-H13=1.0900        C2-C1=1.4777         C2-N3=1.2990         
C2-O10=1.3387        N3-C2=1.2990         N3-N4=1.3558         N4-N3=1.3558         N4-C5=1.3002         C5-N4=1.3002         
C5-C6=1.4778         C5-O10=1.3525        C6-C5=1.4778         C6-C7=1.5001         C6-O8=1.2088         C7-C6=1.5001         
C7-H14=1.0871        C7-H15=1.0891        C7-H16=1.0885        O8-C6=1.2088         O10-C2=1.3387        O10-C5=1.3525        
H11-C1=1.0872        H12-C1=1.0889        H13-C1=1.0900        H14-C7=1.0871        H15-C7=1.0891        H16-C7=1.0885        
 C  H  Rav=1.0885 sigma=0.0010  Rmin=1.0871  Rmax=1.0900     6
 C  C  Rav=1.4852 sigma=0.0105  Rmin=1.4777  Rmax=1.5001     3
 N  C  Rav=1.2996 sigma=0.0006  Rmin=1.2990  Rmax=1.3002     2
 N  N  Rav=1.3558 sigma=0.0000  Rmin=1.3558  Rmax=1.3558     1
 O  C  Rav=1.3000 sigma=0.0647  Rmin=1.2088  Rmax=1.3525     3
 
 selected bond angles (degree)
 --------------------
H11-C1-C2=109.87               H12-C1-C2=109.84               H12-C1-H11=109.82              H13-C1-C2=109.96               
H13-C1-H11=109.53              H13-C1-H12=107.80              N3-C2-C1=127.72                O10-C2-C1=120.51               
O10-C2-N3=111.77               N4-N3-C2=106.80                C5-N4-N3=106.98                C6-C5-N4=128.14                
O10-C5-N4=111.13               O10-C5-C6=120.73               C7-C6-C5=114.64                O8-C6-C5=121.34                
O8-C6-C7=124.02                H14-C7-C6=110.27               H15-C7-C6=109.11               H15-C7-H14=109.83              
H16-C7-C6=109.77               H16-C7-H14=110.29              H16-C7-H15=107.52              C5-O10-C2=103.32               
 
 selected dihedral angles (degree)
 ---------------------------------
N3-C2-C1-H11=  5.26           N3-C2-C1-H12=126.16           N3-C2-C1-H13=244.64           O10-C2-C1-H11=185.17          
O10-C2-C1-H12=306.07          O10-C2-C1-H13= 64.55          N4-N3-C2-C1=179.99            N4-N3-C2-O10=  0.08           
C5-N4-N3-C2=  0.00            C6-C5-N4-N3=180.49            O10-C5-N4-N3=359.92           C7-C6-C5-N4=178.62            
C7-C6-C5-O10=359.24           O8-C6-C5-N4=358.57            O8-C6-C5-O10=179.19           H14-C7-C6-C5=184.08           
H14-C7-C6-O8=  4.14           H15-C7-C6-C5= 63.37           H15-C7-C6-O8=243.43           H16-C7-C6-C5=305.79           
H16-C7-C6-O8=125.84           C5-O10-C2-C1=179.96           C5-O10-C2-N3=359.88           C2-O10-C5-N4=  0.12           
C2-O10-C5-C6=179.60           
           -------------------------------------------------
          |                Final Singlepoint                |
           -------------------------------------------------

          ...................................................
          :                      SETUP                      :
          :.................................................:
          :  # basis functions                  58          :
          :  # atomic orbitals                  57          :
          :  # shells                           33          :
          :  # electrons                        56          :
          :  # halogen bonds                     4          :
          :  max. iterations                   250          :
          :  Hamiltonian                  GFN1-xTB          :
          :  restarted?                      false          :
          :  GBSA solvation                   true          :
          :  PC potential                    false          :
          :  electronic temp.          300.0000000     K    :
          :  accuracy                    1.0000000          :
          :  -> integral cutoff          0.2500000E+02      :
          :  -> integral neglect         0.1000000E-07      :
          :  -> SCF convergence          0.1000000E-05 Eh   :
          :  -> wf. convergence          0.2000000E-04 e    :
          :  Broyden damping             0.4000000          :
          ...................................................

 iter      E             dE          RMSdq      gap      omega  full diag
   1    -34.4997916 -0.344998E+02  0.884E-06    3.29       0.0  T
   2    -34.4997916 -0.213163E-12  0.472E-06    3.29    5296.8  T
   3    -34.4997916 -0.213163E-13  0.223E-06    3.29   11223.1  T

   *** convergence criteria satisfied after 3 iterations ***

         #    Occupation            Energy/Eh            Energy/eV
      -------------------------------------------------------------
         1        2.0000           -0.8684528             -23.6318
       ...           ...                  ...                  ...
        22        2.0000           -0.4841928             -13.1756
        23        2.0000           -0.4769957             -12.9797
        24        2.0000           -0.4769957             -12.9797
        25        2.0000           -0.4769957             -12.9797
        26        2.0000           -0.4679628             -12.7339
        27        2.0000           -0.4597677             -12.5109
        28        2.0000           -0.4523380             -12.3087 (HOMO)
        29                         -0.3315007              -9.0206 (LUMO)
        30                         -0.2605129              -7.0889
        31                         -0.2163549              -5.8873
        32                         -0.1439663              -3.9175
        33                         -0.1357339              -3.6935
       ...                                ...                  ...
        57                          0.7133876              19.4123
      -------------------------------------------------------------
                  HL-Gap            0.1208372 Eh            3.2881 eV
             Fermi-level           -0.3919194 Eh          -10.6647 eV

 SCC (total)                   0 d,  0 h,  0 min,  0.024 sec
 SCC setup                      ...        0 min,  0.001 sec (  2.330%)
 Dispersion                     ...        0 min,  0.000 sec (  0.244%)
 classical contributions        ...        0 min,  0.000 sec (  0.104%)
 integral evaluation            ...        0 min,  0.007 sec ( 29.062%)
 iterations                     ...        0 min,  0.002 sec (  8.435%)
 molecular gradient             ...        0 min,  0.014 sec ( 58.625%)
 printout                       ...        0 min,  0.000 sec (  1.063%)

         :::::::::::::::::::::::::::::::::::::::::::::::::::::
         ::                     SUMMARY                     ::
         :::::::::::::::::::::::::::::::::::::::::::::::::::::
         :: total energy             -34.212914524682 Eh    ::
         :: total w/o Gsasa/hb       -34.198333327010 Eh    ::
         :: gradient norm              0.000705448572 Eh/a0 ::
         :: HOMO-LUMO gap              3.288148177108 eV    ::
         ::.................................................::
         :: SCC energy               -34.499791558765 Eh    ::
         :: -> electrostatic           0.226602938802 Eh    ::
         :: -> Gsolv                  -0.133880729595 Eh    ::
         ::    -> Gelec               -0.119299531923 Eh    ::
         ::    -> Gsasa               -0.020747110766 Eh    ::
         ::    -> Ghb                 -0.001458365911 Eh    ::
         ::    -> Gshift               0.007624279005 Eh    ::
         :: repulsion energy           0.292725374436 Eh    ::
         :: dispersion energy         -0.005848340353 Eh    ::
         :: halogen bond corr.         0.000000000000 Eh    ::
         :: add. restraining           0.000000000000 Eh    ::
         :: total charge              -1.000000000000 e     ::
         :::::::::::::::::::::::::::::::::::::::::::::::::::::

           -------------------------------------------------
          |                Property Printout                |
           -------------------------------------------------

    * Orbital Energies and Occupations

         #    Occupation            Energy/Eh            Energy/eV
      -------------------------------------------------------------
         1        2.0000           -0.8684528             -23.6318
       ...           ...                  ...                  ...
        16        2.0000           -0.5482327             -14.9182
        17        2.0000           -0.5446918             -14.8218
        18        2.0000           -0.5366087             -14.6019
        19        2.0000           -0.5310675             -14.4511
        20        2.0000           -0.5263586             -14.3229
        21        2.0000           -0.5094475             -13.8628
        22        2.0000           -0.4841928             -13.1756
        23        2.0000           -0.4769957             -12.9797
        24        2.0000           -0.4769957             -12.9797
        25        2.0000           -0.4769957             -12.9797
        26        2.0000           -0.4679628             -12.7339
        27        2.0000           -0.4597677             -12.5109
        28        2.0000           -0.4523380             -12.3087 (HOMO)
        29                         -0.3315007              -9.0206 (LUMO)
        30                         -0.2605129              -7.0889
        31                         -0.2163549              -5.8873
        32                         -0.1439663              -3.9175
        33                         -0.1357339              -3.6935
        34                         -0.0760307              -2.0689
        35                         -0.0755706              -2.0564
        36                         -0.0729745              -1.9857
        37                         -0.0678455              -1.8462
        38                          0.0340466               0.9265
        39                          0.0357799               0.9736
       ...                                ...                  ...
        57                          0.7133876              19.4123
      -------------------------------------------------------------
                  HL-Gap            0.1208372 Eh            3.2881 eV
             Fermi-level           -0.3919194 Eh          -10.6647 eV

  Mulliken/CM5 charges         n(s)   n(p)   n(d)
     1C    -0.11157 -0.24906   1.012  3.100  0.000
     2C     0.39591  0.50436   1.009  2.595  0.000
     3N    -0.26025 -0.36753   1.562  3.698  0.000
     4N    -0.20627 -0.30974   1.566  3.640  0.000
     5C     0.32443  0.44352   1.009  2.667  0.000
     6C     0.39561  0.42748   1.051  2.553  0.000
     7C    -0.13702 -0.27812   1.024  3.113  0.000
     8O    -0.51447 -0.55944   1.731  4.784  0.000
     9Cl   -1.00000 -1.00000   2.000  6.000  0.000
    10O    -0.35341 -0.40990   1.696  4.658  0.000
    11H     0.07149  0.12727   0.929  0.000  0.000
    12H     0.08081  0.13561   0.919  0.000  0.000
    13H     0.08223  0.13664   0.918  0.000  0.000
    14H     0.07304  0.12829   0.927  0.000  0.000
    15H     0.08122  0.13648   0.919  0.000  0.000
    16H     0.07826  0.13413   0.922  0.000  0.000

Wiberg/Mayer (AO) data.
largest (>0.10) Wiberg bond orders for each atom

 ---------------------------------------------------------------------------
     #   Z sym  total        # sym  WBO       # sym  WBO       # sym  WBO
 ---------------------------------------------------------------------------
     1   6 C    3.985 --     2 C    1.033    11 H    0.982    12 H    0.964
                            13 H    0.959
     2   6 C    3.870 --     3 N    1.587    10 O    1.088     1 C    1.033
     3   7 N    2.985 --     2 C    1.587     4 N    1.221
     4   7 N    3.007 --     5 C    1.598     3 N    1.221
     5   6 C    3.870 --     4 N    1.598    10 O    1.043     6 C    1.017
     6   6 C    3.867 --     8 O    1.747     5 C    1.017     7 C    1.011
     7   6 C    3.991 --     6 C    1.011    14 H    0.982    16 H    0.960
                            15 H    0.954
     8   8 O    1.972 --     6 C    1.747
     9  17 Cl   0.000
    10   8 O    2.319 --     2 C    1.088     5 C    1.043
    11   1 H    0.998 --     1 C    0.982
    12   1 H    0.996 --     1 C    0.964
    13   1 H    0.996 --     1 C    0.959
    14   1 H    0.999 --     7 C    0.982
    15   1 H    0.997 --     7 C    0.954
    16   1 H    0.998 --     7 C    0.960
 ---------------------------------------------------------------------------

Topologies differ in total number of bonds
Writing topology from bond orders to xtbtopo.mol

 dipole moment from electron density (au)
     X       Y       Z   
   0.3037  -5.1214  15.1482  total (Debye):   40.651

           -------------------------------------------------
          |                Geometry Summary                 |
           -------------------------------------------------

      molecular mass/u    :      161.5664778
   center of mass at/Å    :        0.0108912       0.4409166      -1.3460258
  moments of inertia/u·Å² :        0.4573343E+03   0.1624286E+04   0.2028716E+04
rotational constants/cm⁻¹ :        0.3686063E-01   0.1037849E-01   0.8309509E-02

 * 12 selected distances

     #   Z          #   Z                                           value/Å
     1   6 C        2   6 C                                       1.4776927 (max)
     2   6 C        3   7 N                                       1.2989830
     4   7 N        5   6 C                                       1.3001788
     6   6 C        8   8 O                                       1.2088314
     2   6 C       10   8 O                                       1.3387199
     5   6 C       10   8 O                                       1.3524914
     1   6 C       11   1 H                                       1.0871810
     1   6 C       12   1 H                                       1.0889143
     1   6 C       13   1 H                                       1.0900107
     7   6 C       14   1 H                                       1.0870818 (min)
     7   6 C       15   1 H                                       1.0891320
     7   6 C       16   1 H                                       1.0885022

 * 4 distinct bonds (by element types)

   Z      Z             #   av. dist./Å        max./Å        min./Å
   1 H    6 C           6     1.0884703     1.0900107     1.0870818
   6 C    6 C           1     1.4776927     1.4776927     1.4776927
   6 C    7 N           2     1.2995809     1.3001788     1.2989830
   6 C    8 O           3     1.3000142     1.3524914     1.2088314


optimized geometry written to: xtbopt.xyz


           -------------------------------------------------
          | TOTAL ENERGY              -34.212914524682 Eh   |
          | GRADIENT NORM               0.000705448572 Eh/α |
          | HOMO-LUMO GAP               3.288148177108 eV   |
           -------------------------------------------------

------------------------------------------------------------------------
 * finished run on 2023/06/20 at 14:52:08.547     
------------------------------------------------------------------------
 total:
 * wall-time:     0 d,  0 h,  0 min,  2.347 sec
 *  cpu-time:     0 d,  0 h,  0 min,  2.188 sec
 * ratio c/w:     0.932 speedup
 SCF:
 * wall-time:     0 d,  0 h,  0 min,  0.053 sec
 *  cpu-time:     0 d,  0 h,  0 min,  0.038 sec
 * ratio c/w:     0.717 speedup
 ANC optimizer:
 * wall-time:     0 d,  0 h,  0 min,  2.229 sec
 *  cpu-time:     0 d,  0 h,  0 min,  2.128 sec
 * ratio c/w:     0.955 speedup

