42
 energy: -82.862435425575 gnorm: 0.000428262493 xtb: 6.5.1 (579679a)
C            4.63659675415918        2.93936817139380        1.56365075642658
O            3.80505345846415        1.91261984661661        1.01126552521412
C            4.40391883174552        0.77085152783030        0.69361975964231
O            5.58099572180755        0.56003647364735        0.85403266347648
C            3.43829694077635       -0.21827318724103        0.10607253885562
N            2.14662856054569        0.12444586706501        0.08376605316633
C            1.25748930073133       -0.78340217053356       -0.34612624306781
C           -0.19491606495682       -0.34801696361444       -0.25643167422698
C           -0.33936465300624        0.64534930194319       -1.44261581690776
C           -0.49805719408754        0.36698049634622        1.06575017177454
N           -1.00061455967953       -1.50550257984072       -0.42695183058316
C           -2.47420246978417       -1.51688496489301       -0.81824530556603
C           -3.01159868685944       -2.91521000411635       -0.47945716528002
O           -2.28027112536235       -1.25375882832875       -2.08873266761227
C           -3.25151548512102       -0.48968418067068       -0.01772637362689
N           -3.80226277422029       -0.67775601397350        1.13810570553890
N           -4.46320253701319        0.48152441289664        1.45212161317143
C           -4.27425172906989        1.29415409298358        0.46281464910362
C           -4.77262891077844        2.68007679042657        0.31769598236994
O           -3.51539730915789        0.73965302661353       -0.50144162152990
N            1.51614699331468       -1.95640643922658       -0.85788448434027
C            2.81266470160745       -2.37707245798476       -0.95842201915372
O            3.17355503664293       -3.43164812084673       -1.46127043028997
C            3.83361498872938       -1.45323546066677       -0.40300337522295
O            5.08569964778860       -1.83014675992511       -0.52770663007579
H            5.09286342873405        2.59174224958253        2.49313875644415
H            3.98903585629979        3.79234612945072        1.75348468199344
H            5.42076278308516        3.20704281534646        0.85194951473176
H           -1.35754485538876        1.02477466389162       -1.45284421632109
H            0.36177594397818        1.46666653174943       -1.31312028950481
H           -0.13633522032568        0.12084675321930       -2.37294148592724
H           -0.48229426505445       -0.35083746714879        1.88408738412528
H            0.26578566073349        1.12286787970669        1.23783155246401
H           -1.46988083263813        0.85147130351290        1.03384419615013
H           -0.51252996677407       -2.20404669398999       -0.99720786487931
H           -4.04633477509622       -2.98126188565308       -0.80890022423166
H           -2.95948700810416       -3.08475737836549        0.59341657348009
H           -2.42210691933328       -3.66373730364263       -1.00328886260851
H           -5.27801150062054        2.79824998735503       -0.64017765188002
H           -5.46095612586933        2.90763368030251        1.12806297851308
H           -3.93681962826118        3.37942626928825        0.34752293042226
H            5.11969798741672       -2.73649041050691       -0.89773675422723
