      -----------------------------------------------------------      
     |                   =====================                   |     
     |                           x T B                           |     
     |                   =====================                   |     
     |                         S. Grimme                         |     
     |          Mulliken Center for Theoretical Chemistry        |     
     |                    University of Bonn                     |     
      -----------------------------------------------------------      

   * xtb version 6.5.1 (579679a) compiled by 'ehlert@majestix' on 2022-07-11

   xtb is free software: you can redistribute it and/or modify it under
   the terms of the GNU Lesser General Public License as published by
   the Free Software Foundation, either version 3 of the License, or
   (at your option) any later version.
   
   xtb is distributed in the hope that it will be useful,
   but WITHOUT ANY WARRANTY; without even the implied warranty of
   MERCHANTABILITY or FITNESS FOR A PARTICULAR PURPOSE.  See the
   GNU Lesser General Public License for more details.
   
   Cite this work as:
   * C. Bannwarth, E. Caldeweyher, S. Ehlert, A. Hansen, P. Pracht,
     J. Seibert, S. Spicher, S. Grimme, WIREs Comput. Mol. Sci., 2020, 11,
     e01493. DOI: 10.1002/wcms.1493
   
   for GFN2-xTB:
   * C. Bannwarth, S. Ehlert and S. Grimme., J. Chem. Theory Comput., 2019,
     15, 1652-1671. DOI: 10.1021/acs.jctc.8b01176
   for GFN1-xTB:
   * S. Grimme, C. Bannwarth, P. Shushkov, J. Chem. Theory Comput., 2017,
     13, 1989-2009. DOI: 10.1021/acs.jctc.7b00118
   for GFN0-xTB:
   * P. Pracht, E. Caldeweyher, S. Ehlert, S. Grimme, ChemRxiv, 2019, preprint.
     DOI: 10.26434/chemrxiv.8326202.v1
   for GFN-FF:
   * S. Spicher and S. Grimme, Angew. Chem. Int. Ed., 2020, 59, 15665-15673.
     DOI: 10.1002/anie.202004239
   
   for ALPB and GBSA implicit solvation:
   * S. Ehlert, M. Stahn, S. Spicher, S. Grimme, J. Chem. Theory Comput.,
     2021, 17, 4250-4261. DOI: 10.1021/acs.jctc.1c00471
   
   for DFT-D4:
   * E. Caldeweyher, C. Bannwarth and S. Grimme, J. Chem. Phys., 2017,
     147, 034112. DOI: 10.1063/1.4993215
   * E. Caldeweyher, S. Ehlert, A. Hansen, H. Neugebauer, S. Spicher,
     C. Bannwarth and S. Grimme, J. Chem. Phys., 2019, 150, 154122.
     DOI: 10.1063/1.5090222
   * E. Caldeweyher, J.-M. Mewes, S. Ehlert and S. Grimme, Phys. Chem. Chem. Phys.
     2020, 22, 8499-8512. DOI: 10.1039/D0CP00502A
   
   for sTDA-xTB:
   * S. Grimme and C. Bannwarth, J. Chem. Phys., 2016, 145, 054103.
     DOI: 10.1063/1.4959605
   
   in the mass-spec context:
   * V. Asgeirsson, C. Bauer and S. Grimme, Chem. Sci., 2017, 8, 4879.
     DOI: 10.1039/c7sc00601b
   * J. Koopman and S. Grimme, ACS Omega 2019, 4, 12, 15120-15133.
     DOI: 10.1021/acsomega.9b02011
   
   for metadynamics refer to:
   * S. Grimme, J. Chem. Theory Comput., 2019, 155, 2847-2862
     DOI: 10.1021/acs.jctc.9b00143
   
   for SPH calculations refer to:
   * S. Spicher and S. Grimme, J. Chem. Theory Comput., 2021, 17, 1701-1714
     DOI: 10.1021/acs.jctc.0c01306
   
   with help from (in alphabetical order)
   P. Atkinson, C. Bannwarth, F. Bohle, G. Brandenburg, E. Caldeweyher
   M. Checinski, S. Dohm, S. Ehlert, S. Ehrlich, I. Gerasimov, C. Hölzer
   A. Katbashev, J. Koopman, C. Lavigne, S. Lehtola, F. März, M. Müller,
   F. Musil, H. Neugebauer, J. Pisarek, C. Plett, P. Pracht, F. Pultar,
   J. Seibert, P. Shushkov, S. Spicher, M. Stahn, M. Steiner, T. Strunk,
   J. Stückrath, T. Rose, and J. Unsleber
   
 * started run on 2023/06/21 at 17:15:19.422     

           -------------------------------------------------
          |                Calculation Setup                |
           -------------------------------------------------

          program call               : /lustre/hpc/kemi/ree/PhD/git/ReactivityQM/dep/xtb-6.5.1/bin/xtb --gfn 1 /lustre/hpc/kemi/ree/PhD/git/ReactivityQM/calculations/R02methylcation/reac01prodE06/conf17/R02methylcation_reac01prodE06_conf17_gfn1.xyz --opt --vfukui --chrg -2 --uhf 0 --alpb DMSO
          hostname                   : node317
          coordinate file            : /lustre/hpc/kemi/ree/PhD/git/ReactivityQM/calculations/R02methylcation/reac01prodE06/conf17/R02methylcation_reac01prodE06_conf17_gfn1.xyz
          omp threads                :                     1

   ID    Z sym.   atoms
    1    6 C      1, 3, 5, 6, 8, 11-15, 17, 19, 22, 23
    2    8 O      2, 4, 7, 9, 18, 24
    3    7 N      10, 16, 20, 21, 25
    4    1 H      26-42

           -------------------------------------------------
          |                 G F N 1 - x T B                 |
           -------------------------------------------------

        Reference                      10.1021/acs.jctc.7b00118
      * Hamiltonian:
        H0-scaling (s, p, d)           1.850000    2.250000    2.000000
        zeta-weighting                 0.000000
      * Dispersion:
        s8                             2.400000
        a1                             0.630000
        a2                             5.000000
        s9                             0.000000
      * Repulsion:
        kExp                           1.500000
        rExp                           1.000000
      * Coulomb:
        alpha                          2.000000
        third order                    atomic
        anisotropic                    false
      * Halogen bond correction:
        rad-scale                      1.300000
        damping                        0.440000

      * Solvation model:               ALPB
        Solvent                        DMSO
        Parameter file                 internal GFN1-xTB/ALPB
        Dielectric constant                4.6680E+01
        Reference state                gsolv [1 M gas/solution]
        Free energy shift                  7.6243E-03 Eh       4.7843E+00 kcal/mol
        Temperature                        2.9815E+02 K
        Density                            1.1000E+00 kg/L
        Solvent mass                       7.8130E+01 g/mol
        Interaction kernel             P16
        Born radius scaling (c1)           1.7672E+00
        Born radii integrator          GBOBC
        Born offset                        0.0000E+00 a0       0.0000E+00 AA
        H-bond correction              true
        Ion screening                  false
        Surface tension                    1.0000E-05 Eh       1.5569E+01 dyn/cm
        Grid points                               230 per atom

          ...................................................
          :                      SETUP                      :
          :.................................................:
          :  # basis functions                 134          :
          :  # atomic orbitals                 134          :
          :  # shells                           84          :
          :  # electrons                       136          :
          :  # halogen bonds                     0          :
          :  max. iterations                   250          :
          :  Hamiltonian                  GFN1-xTB          :
          :  restarted?                      false          :
          :  GBSA solvation                   true          :
          :  PC potential                    false          :
          :  electronic temp.          300.0000000     K    :
          :  accuracy                    1.0000000          :
          :  -> integral cutoff          0.2500000E+02      :
          :  -> integral neglect         0.1000000E-07      :
          :  -> SCF convergence          0.1000000E-05 Eh   :
          :  -> wf. convergence          0.2000000E-04 e    :
          :  Broyden damping             0.4000000          :
          ...................................................

 iter      E             dE          RMSdq      gap      omega  full diag
   1    -83.9804662 -0.839805E+02  0.867E+00    1.46       0.0  T
   2    -84.0208175 -0.403513E-01  0.544E+00    0.37       1.0  T
   3    -84.0226828 -0.186529E-02  0.307E+00    0.17       1.0  T
   4    -84.2585004 -0.235818E+00  0.118E+00    1.08       1.0  T
   5    -84.2743360 -0.158356E-01  0.842E-01    1.04       1.0  T
   6    -84.3138982 -0.395622E-01  0.370E-01    0.13       1.0  T
   7    -84.0513807  0.262518E+00  0.151E+00    0.56       1.0  T
   8    -84.3002398 -0.248859E+00  0.529E-01    0.42       1.0  T
   9    -84.3112463 -0.110065E-01  0.389E-01    0.17       1.0  T
  10    -84.2634799  0.477664E-01  0.708E-01    0.03       1.0  T
  11    -84.3051106 -0.416307E-01  0.447E-01    0.23       1.0  T
  12    -84.3163748 -0.112642E-01  0.321E-01    0.14       1.0  T
  13    -84.3285902 -0.122153E-01  0.844E-02    0.05       1.0  T
  14    -84.3286205 -0.303071E-04  0.835E-02    0.08       1.0  T
  15    -84.3291893 -0.568863E-03  0.505E-02    0.06       1.0  T
  16    -84.3294904 -0.301040E-03  0.160E-02    0.07       1.0  T
  17    -84.3295079 -0.175246E-04  0.109E-02    0.06       1.4  T
  18    -84.3295233 -0.153964E-04  0.906E-04    0.07      17.0  T
  19    -84.3295231  0.206441E-06  0.154E-03    0.06      10.0  T
  20    -84.3295234 -0.307058E-06  0.143E-04    0.07     107.6  T
  21    -84.3295234 -0.810573E-09  0.119E-04    0.07     129.6  T

   *** convergence criteria satisfied after 21 iterations ***

         #    Occupation            Energy/Eh            Energy/eV
      -------------------------------------------------------------
         1        2.0000           -0.8120601             -22.0973
       ...           ...                  ...                  ...
        62        2.0000           -0.3996020             -10.8737
        63        2.0000           -0.3945702             -10.7368
        64        2.0000           -0.3923156             -10.6755
        65        2.0000           -0.3808391             -10.3632
        66        2.0000           -0.3686439             -10.0313
        67        2.0000           -0.3309529              -9.0057
        68        1.5586           -0.2705400              -7.3618 (HOMO)
        69        0.4414           -0.2681428              -7.2965 (LUMO)
        70                         -0.2359866              -6.4215
        71                         -0.2194025              -5.9702
        72                         -0.1623351              -4.4174
        73                         -0.1514378              -4.1208
       ...                                ...                  ...
       134                          0.7967323              21.6802
      -------------------------------------------------------------
                  HL-Gap            0.0023972 Eh            0.0652 eV
             Fermi-level           -0.2693414 Eh           -7.3292 eV

 SCC (total)                   0 d,  0 h,  0 min,  0.230 sec
 SCC setup                      ...        0 min,  0.002 sec (  1.013%)
 Dispersion                     ...        0 min,  0.000 sec (  0.188%)
 classical contributions        ...        0 min,  0.000 sec (  0.061%)
 integral evaluation            ...        0 min,  0.057 sec ( 24.680%)
 iterations                     ...        0 min,  0.082 sec ( 35.592%)
 molecular gradient             ...        0 min,  0.087 sec ( 37.963%)
 printout                       ...        0 min,  0.001 sec (  0.478%)

         :::::::::::::::::::::::::::::::::::::::::::::::::::::
         ::                     SUMMARY                     ::
         :::::::::::::::::::::::::::::::::::::::::::::::::::::
         :: total energy             -83.605062497842 Eh    ::
         :: total w/o Gsasa/hb       -83.586807668866 Eh    ::
         :: gradient norm              0.116411384701 Eh/a0 ::
         :: HOMO-LUMO gap              0.065230180756 eV    ::
         ::.................................................::
         :: SCC energy               -84.329523402932 Eh    ::
         :: -> electrostatic           0.689199854480 Eh    ::
         :: -> Gsolv                  -0.271330257208 Eh    ::
         ::    -> Gelec               -0.253075428232 Eh    ::
         ::    -> Gsasa               -0.023387541195 Eh    ::
         ::    -> Ghb                 -0.002491566785 Eh    ::
         ::    -> Gshift               0.007624279005 Eh    ::
         :: repulsion energy           0.751907129671 Eh    ::
         :: dispersion energy         -0.027446224580 Eh    ::
         :: halogen bond corr.         0.000000000000 Eh    ::
         :: add. restraining           0.000000000000 Eh    ::
         :: total charge              -2.000000000000 e     ::
         :::::::::::::::::::::::::::::::::::::::::::::::::::::

      ----------------------------------------------------------- 
     |                   =====================                   |
     |                        A N C O P T                        |
     |                   =====================                   |
     |               Approximate Normal Coordinate               |
     |                Rational Function Optimizer                |
      ----------------------------------------------------------- 

          ...................................................
          :                      SETUP                      :
          :.................................................:
          :   optimization level            normal          :
          :   max. optcycles                   200          :
          :   ANC micro-cycles                  20          :
          :   degrees of freedom               120          :
          :.................................................:
          :   RF solver                   davidson          :
          :   write xtbopt.log                true          :
          :   linear?                        false          :
          :   energy convergence         0.5000000E-05 Eh   :
          :   grad. convergence          0.1000000E-02 Eh/α :
          :   maximium RF displ.         1.0000000          :
          :   Hlow (freq-cutoff)         0.1000000E-01      :
          :   Hmax (freq-cutoff)         5.0000000          :
          :   S6 in model hess.         20.0000000          :
          ...................................................

generating ANC from model Hessian ...
Using Lindh-Hessian (1995)
 Shifting diagonal of input Hessian by   9.833025805741602E-003
 Lowest  eigenvalues of input Hessian
    0.000000    0.000000    0.000000    0.000000    0.000000    0.000000
    0.010000    0.010103    0.010659    0.011161    0.011708    0.012314
    0.013266    0.014036    0.014675    0.014960    0.016087    0.016752
 Highest eigenvalues
    1.974660    2.048534    2.147469    2.262989    2.309943    2.318803
 

........................................................................
.............................. CYCLE    1 ..............................
........................................................................
   1    -84.3295234 -0.843295E+02  0.866E-06    0.07       0.0  T
   2    -84.3295234  0.251636E-08  0.140E-04    0.07     110.5  T
   3    -84.3295234 -0.252611E-08  0.109E-06    0.07   14216.0  T
     SCC iter.                  ...        0 min,  0.013 sec
     gradient                   ...        0 min,  0.079 sec
 * total energy  :   -83.6050625 Eh     change       -0.1855881E-08 Eh
   gradient norm :     0.1164089 Eh/α   predicted     0.0000000E+00 (-100.00%)
   displ. norm   :     0.2966201 α      lambda       -0.1583617E-01
   maximum displ.:     0.1333882 α      in ANC's #26, #57, #20, ...

........................................................................
.............................. CYCLE    2 ..............................
........................................................................
   1    -84.3173532 -0.843174E+02  0.324E-01    0.14       0.0  T
   2    -84.0322126  0.285141E+00  0.164E+00    0.69       1.0  T
   3    -84.2778058 -0.245593E+00  0.648E-01    0.03       1.0  T
   4    -84.3116610 -0.338553E-01  0.391E-01    0.18       1.0  T
   5    -84.3307214 -0.190603E-01  0.160E-02    0.07       1.0  T
   6    -84.3306657  0.556958E-04  0.247E-02    0.06       1.0  T
   7    -84.3307190 -0.532859E-04  0.848E-03    0.07       1.8  T
   8    -84.3306480  0.710216E-04  0.251E-02    0.07       1.0  T
   9    -84.3306975 -0.495136E-04  0.152E-02    0.07       1.0  T
  10    -84.3307239 -0.264735E-04  0.473E-03    0.07       3.3  T
  11    -84.3307267 -0.277208E-05  0.555E-04    0.07      27.8  T
  12    -84.3307267 -0.265391E-07  0.302E-04    0.07      51.1  T
  13    -84.3307267 -0.110683E-07  0.666E-05    0.07     231.7  T
  14    -84.3307267 -0.312482E-09  0.425E-05    0.07     362.8  T
     SCC iter.                  ...        0 min,  0.053 sec
     gradient                   ...        0 min,  0.080 sec
 * total energy  :   -83.6162732 Eh     change       -0.1121075E-01 Eh
   gradient norm :     0.0517964 Eh/α   predicted    -0.8623924E-02 ( -23.07%)
   displ. norm   :     0.3268050 α      lambda       -0.6364798E-02
   maximum displ.:     0.1455401 α      in ANC's #26, #7, #20, ...

........................................................................
.............................. CYCLE    3 ..............................
........................................................................
   1    -84.3285233 -0.843285E+02  0.264E-01    0.12       0.0  T
   2    -84.0330695  0.295454E+00  0.166E+00    0.55       1.0  T
   3    -84.3194480 -0.286379E+00  0.380E-01    0.03       1.0  T
   4    -84.3264637 -0.701564E-02  0.291E-01    0.13       1.0  T
   5    -84.3367879 -0.103242E-01  0.281E-02    0.07       1.0  T
   6    -84.3363508  0.437110E-03  0.671E-02    0.06       1.0  T
   7    -84.3366974 -0.346564E-03  0.392E-02    0.08       1.0  T
   8    -84.3368764 -0.179000E-03  0.860E-03    0.07       1.8  T
   9    -84.3368844 -0.799853E-05  0.254E-03    0.07       6.1  T
  10    -84.3368849 -0.516499E-06  0.152E-03    0.07      10.1  T
  11    -84.3368852 -0.280968E-06  0.120E-04    0.07     128.3  T
  12    -84.3368852 -0.129620E-08  0.562E-05    0.07     274.8  T
     SCC iter.                  ...        0 min,  0.046 sec
     gradient                   ...        0 min,  0.081 sec
 * total energy  :   -83.6201453 Eh     change       -0.3872047E-02 Eh
   gradient norm :     0.0192510 Eh/α   predicted    -0.3524221E-02 (  -8.98%)
   displ. norm   :     0.2379008 α      lambda       -0.1201950E-02
   maximum displ.:     0.1039940 α      in ANC's #7, #17, #26, ...

........................................................................
.............................. CYCLE    4 ..............................
........................................................................
   1    -84.3391253 -0.843391E+02  0.111E-01    0.09       0.0  T
   2    -84.0700680  0.269057E+00  0.152E+00    0.19       1.0  T
   3    -84.3404826 -0.270415E+00  0.244E-02    0.07       1.0  T
   4    -84.3404668  0.158436E-04  0.223E-02    0.07       1.0  T
   5    -84.3405236 -0.567969E-04  0.580E-03    0.07       2.7  T
   6    -84.3405256 -0.197442E-05  0.290E-03    0.07       5.3  T
   7    -84.3405261 -0.551052E-06  0.833E-04    0.07      18.5  T
   8    -84.3405262 -0.809044E-07  0.611E-05    0.07     252.7  T
   9    -84.3405262  0.499938E-10  0.541E-05    0.07     285.3  T
     SCC iter.                  ...        0 min,  0.035 sec
     gradient                   ...        0 min,  0.078 sec
 * total energy  :   -83.6210250 Eh     change       -0.8797533E-03 Eh
   gradient norm :     0.0122219 Eh/α   predicted    -0.6349974E-03 ( -27.82%)
   displ. norm   :     0.3008913 α      lambda       -0.8898134E-03
   maximum displ.:     0.1472521 α      in ANC's #7, #17, #16, ...

........................................................................
.............................. CYCLE    5 ..............................
........................................................................
   1    -84.3426307 -0.843426E+02  0.780E-02    0.08       0.0  T
   2    -84.1300482  0.212583E+00  0.134E+00    0.11       1.0  T
   3    -84.3431173 -0.213069E+00  0.417E-02    0.08       1.0  T
   4    -84.3433061 -0.188847E-03  0.723E-03    0.07       2.1  T
   5    -84.3432932  0.129618E-04  0.119E-02    0.07       1.3  T
   6    -84.3433089 -0.156924E-04  0.168E-03    0.07       9.2  T
   7    -84.3433088  0.555964E-08  0.886E-04    0.07      17.4  T
   8    -84.3433089 -0.930130E-07  0.730E-05    0.07     211.5  T
   9    -84.3433089 -0.398188E-10  0.582E-05    0.07     265.2  T
     SCC iter.                  ...        0 min,  0.035 sec
     gradient                   ...        0 min,  0.081 sec
 * total energy  :   -83.6216225 Eh     change       -0.5974046E-03 Eh
   gradient norm :     0.0076750 Eh/α   predicted    -0.4851880E-03 ( -18.78%)
   displ. norm   :     0.2314277 α      lambda       -0.3666341E-03
   maximum displ.:     0.1360619 α      in ANC's #7, #17, #15, ...

........................................................................
.............................. CYCLE    6 ..............................
........................................................................
   1    -84.3443997 -0.843444E+02  0.317E-02    0.08       0.0  T
   2    -84.2991131  0.452866E-01  0.615E-01    0.03       1.0  T
   3    -84.3444664 -0.453532E-01  0.204E-02    0.07       1.0  T
   4    -84.3444834 -0.170340E-04  0.158E-02    0.07       1.0  T
   5    -84.3444982 -0.147630E-04  0.105E-02    0.07       1.5  T
   6    -84.3445106 -0.124144E-04  0.213E-03    0.07       7.3  T
   7    -84.3445111 -0.459452E-06  0.249E-04    0.07      61.8  T
   8    -84.3445111 -0.586418E-08  0.893E-05    0.07     172.8  T
   9    -84.3445111 -0.709377E-09  0.376E-05    0.07     410.5  T
     SCC iter.                  ...        0 min,  0.035 sec
     gradient                   ...        0 min,  0.080 sec
 * total energy  :   -83.6218787 Eh     change       -0.2562044E-03 Eh
   gradient norm :     0.0076233 Eh/α   predicted    -0.1931755E-03 ( -24.60%)
   displ. norm   :     0.2184855 α      lambda       -0.2520327E-03
   maximum displ.:     0.1360641 α      in ANC's #7, #17, #15, ...

........................................................................
.............................. CYCLE    7 ..............................
........................................................................
   1    -84.3452083 -0.843452E+02  0.106E-02    0.07       0.0  T
   2    -84.3451804  0.278703E-04  0.175E-02    0.07       1.0  T
   3    -84.3446673  0.513153E-03  0.691E-02    0.08       1.0  T
   4    -84.3451883 -0.521063E-03  0.166E-02    0.08       1.0  T
   5    -84.3452127 -0.243615E-04  0.715E-03    0.07       2.2  T
   6    -84.3452179 -0.516396E-05  0.100E-03    0.07      15.4  T
   7    -84.3452180 -0.887716E-07  0.242E-04    0.07      63.7  T
   8    -84.3452180 -0.563655E-08  0.621E-05    0.07     248.4  T
   9    -84.3452180 -0.376559E-09  0.111E-05    0.07    1387.9  T
     SCC iter.                  ...        0 min,  0.036 sec
     gradient                   ...        0 min,  0.080 sec
 * total energy  :   -83.6220592 Eh     change       -0.1805473E-03 Eh
   gradient norm :     0.0064688 Eh/α   predicted    -0.1320332E-03 ( -26.87%)
   displ. norm   :     0.2225508 α      lambda       -0.2100491E-03
   maximum displ.:     0.1367462 α      in ANC's #7, #15, #3, ...

........................................................................
.............................. CYCLE    8 ..............................
........................................................................
   1    -84.3455752 -0.843456E+02  0.337E-02    0.07       0.0  T
   2    -84.3341251  0.114501E-01  0.317E-01    0.15       1.0  T
   3    -84.3456905 -0.115654E-01  0.158E-02    0.08       1.0  T
   4    -84.3456369  0.535661E-04  0.251E-02    0.08       1.0  T
   5    -84.3457071 -0.701583E-04  0.297E-03    0.08       5.2  T
   6    -84.3457054  0.167694E-05  0.478E-03    0.08       3.2  T
   7    -84.3457078 -0.234154E-05  0.121E-03    0.08      12.8  T
   8    -84.3457079 -0.145113E-06  0.444E-04    0.08      34.7  T
   9    -84.3457079 -0.180597E-07  0.217E-04    0.08      71.2  T
  10    -84.3457079 -0.559150E-08  0.144E-05    0.08    1069.1  T
  11    -84.3457079 -0.144667E-10  0.840E-06    0.08    1838.0  T
     SCC iter.                  ...        0 min,  0.044 sec
     gradient                   ...        0 min,  0.083 sec
 * total energy  :   -83.6222108 Eh     change       -0.1515888E-03 Eh
   gradient norm :     0.0047270 Eh/α   predicted    -0.1102303E-03 ( -27.28%)
   displ. norm   :     0.2190779 α      lambda       -0.1773982E-03
   maximum displ.:     0.1123726 α      in ANC's #7, #15, #8, ...

........................................................................
.............................. CYCLE    9 ..............................
........................................................................
   1    -84.3456011 -0.843456E+02  0.520E-02    0.07       0.0  T
   2    -84.3277498  0.178513E-01  0.399E-01    0.20       1.0  T
   3    -84.3456855 -0.179357E-01  0.463E-02    0.08       1.0  T
   4    -84.3459252 -0.239644E-03  0.249E-03    0.08       6.2  T
   5    -84.3459185  0.664211E-05  0.805E-03    0.08       1.9  T
   6    -84.3459253 -0.673159E-05  0.603E-04    0.08      25.6  T
   7    -84.3459248  0.440811E-06  0.197E-03    0.08       7.8  T
   8    -84.3459251 -0.282674E-06  0.123E-03    0.08      12.5  T
   9    -84.3459253 -0.171993E-06  0.316E-04    0.08      48.9  T
  10    -84.3459253 -0.981480E-08  0.133E-04    0.08     116.4  T
  11    -84.3459253 -0.177410E-08  0.543E-05    0.08     284.4  T
     SCC iter.                  ...        0 min,  0.043 sec
     gradient                   ...        0 min,  0.085 sec
 * total energy  :   -83.6223416 Eh     change       -0.1308009E-03 Eh
   gradient norm :     0.0051751 Eh/α   predicted    -0.9296479E-04 ( -28.93%)
   displ. norm   :     0.2394673 α      lambda       -0.1704878E-03
   maximum displ.:     0.0982304 α      in ANC's #8, #15, #7, ...

........................................................................
.............................. CYCLE   10 ..............................
........................................................................
   1    -84.3455431 -0.843455E+02  0.583E-02    0.08       0.0  T
   2    -84.3264227  0.191204E-01  0.414E-01    0.21       1.0  T
   3    -84.3455045 -0.190818E-01  0.615E-02    0.09       1.0  T
   4    -84.3457021 -0.197624E-03  0.454E-02    0.08       1.0  T
   5    -84.3459496 -0.247560E-03  0.569E-03    0.08       2.7  T
   6    -84.3459502 -0.537790E-06  0.545E-03    0.08       2.8  T
   7    -84.3459531 -0.295441E-05  0.167E-03    0.08       9.2  T
   8    -84.3459535 -0.331317E-06  0.150E-04    0.08     103.0  T
   9    -84.3459535  0.901359E-08  0.309E-04    0.08      50.0  T
  10    -84.3459535 -0.937756E-08  0.132E-04    0.08     117.3  T
     SCC iter.                  ...        0 min,  0.038 sec
     gradient                   ...        0 min,  0.080 sec
 * total energy  :   -83.6224681 Eh     change       -0.1264758E-03 Eh
   gradient norm :     0.0067972 Eh/α   predicted    -0.9013247E-04 ( -28.74%)
   displ. norm   :     0.2531921 α      lambda       -0.1647752E-03
   maximum displ.:     0.1135641 α      in ANC's #8, #15, #3, ...

........................................................................
.............................. CYCLE   11 ..............................
........................................................................
   1    -84.3456605 -0.843457E+02  0.389E-02    0.08       0.0  T
   2    -84.3322039  0.134566E-01  0.342E-01    0.17       1.0  T
   3    -84.3457605 -0.135566E-01  0.256E-02    0.09       1.0  T
   4    -84.3458324 -0.718888E-04  0.901E-03    0.09       1.7  T
   5    -84.3458414 -0.904668E-05  0.241E-03    0.09       6.4  T
   6    -84.3458406  0.854359E-06  0.346E-03    0.09       4.5  T
   7    -84.3458418 -0.127123E-05  0.121E-03    0.09      12.8  T
   8    -84.3458420 -0.171797E-06  0.344E-05    0.09     448.2  T
   9    -84.3458420 -0.298428E-12  0.262E-05    0.09     588.6  T
     SCC iter.                  ...        0 min,  0.035 sec
     gradient                   ...        0 min,  0.080 sec
 * total energy  :   -83.6225881 Eh     change       -0.1200609E-03 Eh
   gradient norm :     0.0069822 Eh/α   predicted    -0.8767722E-04 ( -26.97%)
   displ. norm   :     0.2300340 α      lambda       -0.1441121E-03
   maximum displ.:     0.1084141 α      in ANC's #8, #3, #15, ...

........................................................................
.............................. CYCLE   12 ..............................
........................................................................
   1    -84.3461506 -0.843462E+02  0.107E-02    0.09       0.0  T
   2    -84.3460628  0.877817E-04  0.280E-02    0.10       1.0  T
   3    -84.3456594  0.403456E-03  0.660E-02    0.09       1.0  T
   4    -84.3461538 -0.494404E-03  0.797E-03    0.09       1.9  T
   5    -84.3461590 -0.523487E-05  0.387E-03    0.09       4.0  T
   6    -84.3461603 -0.133150E-05  0.119E-03    0.09      13.0  T
   7    -84.3461605 -0.144852E-06  0.200E-04    0.09      77.0  T
   8    -84.3461605 -0.438911E-08  0.274E-05    0.09     563.4  T
   9    -84.3461605 -0.343476E-10  0.130E-05    0.09    1187.0  T
     SCC iter.                  ...        0 min,  0.044 sec
     gradient                   ...        0 min,  0.078 sec
 * total energy  :   -83.6226943 Eh     change       -0.1061355E-03 Eh
   gradient norm :     0.0054624 Eh/α   predicted    -0.7587329E-04 ( -28.51%)
   displ. norm   :     0.2289094 α      lambda       -0.1290213E-03
   maximum displ.:     0.1147799 α      in ANC's #3, #8, #15, ...

........................................................................
.............................. CYCLE   13 ..............................
........................................................................
   1    -84.3458448 -0.843458E+02  0.295E-02    0.10       0.0  T
   2    -84.3181673  0.276775E-01  0.484E-01    0.06       1.0  T
   3    -84.3459217 -0.277544E-01  0.139E-02    0.10       1.1  T
   4    -84.3459385 -0.168696E-04  0.640E-03    0.10       2.4  T
   5    -84.3459419 -0.331095E-05  0.329E-03    0.10       4.7  T
   6    -84.3459420 -0.117243E-06  0.272E-03    0.10       5.7  T
   7    -84.3459428 -0.773406E-06  0.648E-04    0.10      23.8  T
   8    -84.3459428 -0.498979E-07  0.274E-05    0.10     562.2  T
   9    -84.3459428 -0.329692E-10  0.893E-06    0.10    1728.1  T
     SCC iter.                  ...        0 min,  0.035 sec
     gradient                   ...        0 min,  0.081 sec
 * total energy  :   -83.6227872 Eh     change       -0.9295564E-04 Eh
   gradient norm :     0.0045309 Eh/α   predicted    -0.6789447E-04 ( -26.96%)
   displ. norm   :     0.1780672 α      lambda       -0.1097513E-03
   maximum displ.:     0.0950687 α      in ANC's #3, #8, #15, ...

........................................................................
.............................. CYCLE   14 ..............................
........................................................................
   1    -84.3478629 -0.843479E+02  0.551E-02    0.11       0.0  T
   2    -84.2385537  0.109309E+00  0.961E-01    0.08       1.0  T
   3    -84.3481152 -0.109562E+00  0.280E-02    0.11       1.0  T
   4    -84.3482075 -0.923593E-04  0.352E-03    0.10       4.4  T
   5    -84.3482080 -0.451438E-06  0.198E-03    0.10       7.8  T
   6    -84.3482078  0.158593E-06  0.212E-03    0.10       7.3  T
   7    -84.3482081 -0.273837E-06  0.128E-03    0.10      12.1  T
   8    -84.3482083 -0.190866E-06  0.201E-04    0.10      76.9  T
   9    -84.3482083 -0.423847E-08  0.649E-05    0.10     237.9  T
  10    -84.3482083 -0.457135E-09  0.213E-05    0.10     723.7  T
     SCC iter.                  ...        0 min,  0.039 sec
     gradient                   ...        0 min,  0.080 sec
 * total energy  :   -83.6228535 Eh     change       -0.6626671E-04 Eh
   gradient norm :     0.0050762 Eh/α   predicted    -0.5661741E-04 ( -14.56%)
   displ. norm   :     0.2854239 α      lambda       -0.1137137E-03
   maximum displ.:     0.1564614 α      in ANC's #3, #15, #8, ...

........................................................................
.............................. CYCLE   15 ..............................
........................................................................
   1    -84.3440869 -0.843441E+02  0.167E-02    0.11       0.0  T
   2    -84.3418203  0.226659E-02  0.141E-01    0.13       1.0  T
   3    -84.3441077 -0.228738E-02  0.623E-03    0.11       2.5  T
   4    -84.3440903  0.173687E-04  0.132E-02    0.11       1.2  T
   5    -84.3441090 -0.186618E-04  0.238E-03    0.11       6.5  T
   6    -84.3441092 -0.230858E-06  0.485E-04    0.11      31.8  T
   7    -84.3441092  0.749085E-08  0.491E-04    0.11      31.4  T
   8    -84.3441092 -0.273175E-07  0.410E-05    0.11     376.2  T
   9    -84.3441092  0.294634E-09  0.582E-05    0.11     265.0  T
     SCC iter.                  ...        0 min,  0.034 sec
     gradient                   ...        0 min,  0.079 sec
 * total energy  :   -83.6228924 Eh     change       -0.3891298E-04 Eh
   gradient norm :     0.0067209 Eh/α   predicted    -0.6149006E-04 (  58.02%)
   displ. norm   :     0.0616766 α      lambda       -0.7446807E-04
   maximum displ.:     0.0273618 α      in ANC's #8, #7, #11, ...

........................................................................
.............................. CYCLE   16 ..............................
........................................................................
   1    -84.3466909 -0.843467E+02  0.445E-02    0.11       0.0  T
   2    -84.2742368  0.724541E-01  0.781E-01    0.08       1.0  T
   3    -84.3468983 -0.726615E-01  0.139E-02    0.11       1.1  T
   4    -84.3469208 -0.225048E-04  0.336E-03    0.11       4.6  T
   5    -84.3469216 -0.821382E-06  0.131E-03    0.11      11.8  T
   6    -84.3469211  0.556629E-06  0.224E-03    0.11       6.9  T
   7    -84.3469216 -0.500078E-06  0.810E-04    0.11      19.0  T
   8    -84.3469217 -0.785084E-07  0.742E-05    0.11     207.8  T
   9    -84.3469217 -0.171951E-09  0.619E-05    0.11     249.3  T
     SCC iter.                  ...        0 min,  0.032 sec
     gradient                   ...        0 min,  0.080 sec
 * total energy  :   -83.6229419 Eh     change       -0.4952386E-04 Eh
   gradient norm :     0.0036379 Eh/α   predicted    -0.3737604E-04 ( -24.53%)
   displ. norm   :     0.1219419 α      lambda       -0.6199665E-04
   maximum displ.:     0.0671080 α      in ANC's #3, #16, #5, ...

........................................................................
.............................. CYCLE   17 ..............................
........................................................................
   1    -84.3476654 -0.843477E+02  0.108E-02    0.11       0.0  T
   2    -84.3463087  0.135668E-02  0.108E-01    0.13       1.0  T
   3    -84.3476762 -0.136741E-02  0.419E-03    0.11       3.7  T
   4    -84.3476761  0.495421E-07  0.344E-03    0.11       4.5  T
   5    -84.3476769 -0.750022E-06  0.145E-03    0.11      10.6  T
   6    -84.3476771 -0.224351E-06  0.279E-04    0.11      55.3  T
   7    -84.3476771 -0.842547E-09  0.206E-04    0.11      74.9  T
   8    -84.3476771 -0.467162E-08  0.342E-05    0.11     451.8  T
   9    -84.3476771 -0.124544E-09  0.462E-06    0.11    3340.0  T
     SCC iter.                  ...        0 min,  0.031 sec
     gradient                   ...        0 min,  0.079 sec
 * total energy  :   -83.6229803 Eh     change       -0.3838755E-04 Eh
   gradient norm :     0.0035727 Eh/α   predicted    -0.3145966E-04 ( -18.05%)
   displ. norm   :     0.1484195 α      lambda       -0.5304124E-04
   maximum displ.:     0.0909118 α      in ANC's #3, #16, #15, ...

........................................................................
.............................. CYCLE   18 ..............................
........................................................................
   1    -84.3477172 -0.843477E+02  0.165E-02    0.12       0.0  T
   2    -84.3415525  0.616472E-02  0.229E-01    0.09       1.0  T
   3    -84.3477446 -0.619209E-02  0.498E-03    0.11       3.1  T
   4    -84.3477461 -0.158377E-05  0.293E-03    0.11       5.3  T
   5    -84.3477469 -0.769790E-06  0.894E-04    0.11      17.3  T
   6    -84.3477469 -0.618564E-08  0.467E-04    0.11      33.1  T
   7    -84.3477469 -0.175120E-07  0.459E-05    0.11     336.0  T
   8    -84.3477469 -0.295586E-10  0.152E-05    0.11    1014.0  T
     SCC iter.                  ...        0 min,  0.028 sec
     gradient                   ...        0 min,  0.079 sec
 * total energy  :   -83.6230159 Eh     change       -0.3556733E-04 Eh
   gradient norm :     0.0040151 Eh/α   predicted    -0.2710526E-04 ( -23.79%)
   displ. norm   :     0.1671149 α      lambda       -0.4987818E-04
   maximum displ.:     0.0965425 α      in ANC's #3, #16, #15, ...

........................................................................
.............................. CYCLE   19 ..............................
........................................................................
   1    -84.3470508 -0.843471E+02  0.870E-03    0.12       0.0  T
   2    -84.3458313  0.121945E-02  0.102E-01    0.11       1.0  T
   3    -84.3470534 -0.122206E-02  0.748E-03    0.12       2.1  T
   4    -84.3470562 -0.279149E-05  0.536E-03    0.12       2.9  T
   5    -84.3470572 -0.979334E-06  0.412E-03    0.12       3.7  T
   6    -84.3470590 -0.187534E-05  0.298E-04    0.12      51.9  T
   7    -84.3470590 -0.469771E-08  0.746E-05    0.12     206.9  T
   8    -84.3470590  0.135969E-09  0.800E-05    0.12     193.0  T
     SCC iter.                  ...        0 min,  0.028 sec
     gradient                   ...        0 min,  0.079 sec
 * total energy  :   -83.6230516 Eh     change       -0.3571723E-04 Eh
   gradient norm :     0.0040525 Eh/α   predicted    -0.2564035E-04 ( -28.21%)
   displ. norm   :     0.1749768 α      lambda       -0.5314176E-04
   maximum displ.:     0.0957421 α      in ANC's #3, #16, #15, ...

........................................................................
.............................. CYCLE   20 ..............................
........................................................................
   1    -84.3462521 -0.843463E+02  0.150E-02    0.12       0.0  T
   2    -84.3440238  0.222829E-02  0.138E-01    0.15       1.0  T
   3    -84.3462704 -0.224658E-02  0.716E-03    0.12       2.2  T
   4    -84.3462719 -0.153558E-05  0.534E-03    0.12       2.9  T
   5    -84.3462748 -0.287912E-05  0.165E-03    0.12       9.3  T
   6    -84.3462749 -0.129510E-06  0.869E-04    0.12      17.8  T
   7    -84.3462750 -0.785635E-07  0.110E-04    0.12     140.6  T
   8    -84.3462750 -0.105896E-08  0.177E-05    0.12     869.7  T
     SCC iter.                  ...        0 min,  0.028 sec
     gradient                   ...        0 min,  0.079 sec
 * total energy  :   -83.6230871 Eh     change       -0.3547680E-04 Eh
   gradient norm :     0.0045386 Eh/α   predicted    -0.2738587E-04 ( -22.81%)
   displ. norm   :     0.1142887 α      lambda       -0.5153251E-04
   maximum displ.:     0.0536665 α      in ANC's #16, #6, #3, ...
 * RMSD in coord.:     0.4523266 α      energy gain  -0.1802458E-01 Eh

generating ANC from model Hessian ...
Using Lindh-Hessian (1995)
 Shifting diagonal of input Hessian by   9.809601043977708E-003
 Lowest  eigenvalues of input Hessian
    0.000000    0.000000    0.000000    0.000000    0.000000    0.000000
    0.010000    0.010101    0.010576    0.011343    0.011704    0.012258
    0.013376    0.013940    0.014505    0.014924    0.016075    0.017000
 Highest eigenvalues
    2.000016    2.087675    2.103774    2.247111    2.282664    2.341528
 

........................................................................
.............................. CYCLE   21 ..............................
........................................................................
   1    -84.3470806 -0.843471E+02  0.654E-02    0.14       0.0  T
   2    -84.2111855  0.135895E+00  0.107E+00    0.12       1.0  T
   3    -84.3476153 -0.136430E+00  0.790E-03    0.13       2.0  T
   4    -84.3476044  0.109385E-04  0.126E-02    0.13       1.2  T
   5    -84.3475997  0.463042E-05  0.136E-02    0.13       1.1  T
   6    -84.3476117 -0.120097E-04  0.874E-03    0.13       1.8  T
   7    -84.3476195 -0.777114E-05  0.249E-03    0.13       6.2  T
   8    -84.3476202 -0.714069E-06  0.216E-04    0.13      71.6  T
   9    -84.3476202 -0.489622E-08  0.211E-05    0.13     732.2  T
  10    -84.3476202  0.139981E-08  0.110E-04    0.13     140.0  T
     SCC iter.                  ...        0 min,  0.030 sec
     gradient                   ...        0 min,  0.079 sec
 * total energy  :   -83.6231124 Eh     change       -0.2535666E-04 Eh
   gradient norm :     0.0044585 Eh/α   predicted     0.0000000E+00 (-100.00%)
   displ. norm   :     0.0302047 α      lambda       -0.2555174E-04
   maximum displ.:     0.0154839 α      in ANC's #4, #5, #7, ...

........................................................................
.............................. CYCLE   22 ..............................
........................................................................
   1    -84.3475807 -0.843476E+02  0.159E-02    0.13       0.0  T
   2    -84.3445096  0.307112E-02  0.164E-01    0.16       1.0  T
   3    -84.3475870 -0.307736E-02  0.157E-02    0.13       1.0  T
   4    -84.3476117 -0.247541E-04  0.512E-03    0.13       3.0  T
   5    -84.3476133 -0.156868E-05  0.305E-03    0.13       5.1  T
   6    -84.3476141 -0.830943E-06  0.101E-03    0.13      15.3  T
   7    -84.3476142 -0.102173E-06  0.199E-04    0.13      77.7  T
   8    -84.3476142 -0.443670E-08  0.202E-05    0.13     765.5  T
     SCC iter.                  ...        0 min,  0.028 sec
     gradient                   ...        0 min,  0.079 sec
 * total energy  :   -83.6231398 Eh     change       -0.2734920E-04 Eh
   gradient norm :     0.0020388 Eh/α   predicted    -0.1752838E-04 ( -35.91%)
   displ. norm   :     0.0795110 α      lambda       -0.4601698E-04
   maximum displ.:     0.0425733 α      in ANC's #4, #5, #7, ...

........................................................................
.............................. CYCLE   23 ..............................
........................................................................
   1    -84.3474642 -0.843475E+02  0.118E-02    0.13       0.0  T
   2    -84.3456425  0.182175E-02  0.126E-01    0.15       1.0  T
   3    -84.3474520 -0.180950E-02  0.170E-02    0.13       1.0  T
   4    -84.3474776 -0.256514E-04  0.730E-03    0.13       2.1  T
   5    -84.3474810 -0.335123E-05  0.426E-03    0.13       3.6  T
   6    -84.3474829 -0.187872E-05  0.697E-04    0.13      22.1  T
   7    -84.3474829 -0.366474E-07  0.226E-04    0.13      68.3  T
   8    -84.3474829 -0.566152E-08  0.176E-05    0.13     879.0  T
   9    -84.3474829 -0.852651E-11  0.108E-05    0.13    1427.6  T
     SCC iter.                  ...        0 min,  0.031 sec
     gradient                   ...        0 min,  0.079 sec
 * total energy  :   -83.6231707 Eh     change       -0.3094889E-04 Eh
   gradient norm :     0.0021960 Eh/α   predicted    -0.2315438E-04 ( -25.19%)
   displ. norm   :     0.0875865 α      lambda       -0.2794478E-04
   maximum displ.:     0.0476160 α      in ANC's #4, #5, #6, ...

........................................................................
.............................. CYCLE   24 ..............................
........................................................................
   1    -84.3473486 -0.843473E+02  0.489E-03    0.13       0.0  T
   2    -84.3471495  0.199110E-03  0.409E-02    0.13       1.0  T
   3    -84.3473432 -0.193648E-03  0.831E-03    0.13       1.9  T
   4    -84.3473472 -0.403779E-05  0.537E-03    0.13       2.9  T
   5    -84.3473498 -0.263052E-05  0.227E-03    0.13       6.8  T
   6    -84.3473503 -0.465983E-06  0.627E-04    0.13      24.6  T
   7    -84.3473504 -0.403815E-07  0.753E-05    0.13     204.9  T
   8    -84.3473504 -0.484050E-09  0.247E-05    0.13     624.2  T
     SCC iter.                  ...        0 min,  0.029 sec
     gradient                   ...        0 min,  0.084 sec
 * total energy  :   -83.6231933 Eh     change       -0.2258641E-04 Eh
   gradient norm :     0.0034252 Eh/α   predicted    -0.1422397E-04 ( -37.02%)
   displ. norm   :     0.1657554 α      lambda       -0.4936610E-04
   maximum displ.:     0.0858565 α      in ANC's #4, #5, #6, ...

........................................................................
.............................. CYCLE   25 ..............................
........................................................................
   1    -84.3470147 -0.843470E+02  0.115E-02    0.14       0.0  T
   2    -84.3450830  0.193167E-02  0.128E-01    0.12       1.0  T
   3    -84.3470231 -0.194011E-02  0.701E-03    0.14       2.2  T
   4    -84.3470259 -0.273635E-05  0.448E-03    0.14       3.4  T
   5    -84.3470278 -0.193735E-05  0.172E-03    0.14       9.0  T
   6    -84.3470280 -0.197019E-06  0.742E-04    0.14      20.8  T
   7    -84.3470281 -0.553787E-07  0.162E-04    0.14      95.4  T
   8    -84.3470281 -0.267123E-08  0.181E-05    0.14     852.4  T
     SCC iter.                  ...        0 min,  0.020 sec
     gradient                   ...        0 min,  0.044 sec
 * total energy  :   -83.6232322 Eh     change       -0.3887967E-04 Eh
   gradient norm :     0.0040642 Eh/α   predicted    -0.2536154E-04 ( -34.77%)
   displ. norm   :     0.2421317 α      lambda       -0.6609061E-04
   maximum displ.:     0.1235166 α      in ANC's #4, #5, #16, ...

........................................................................
.............................. CYCLE   26 ..............................
........................................................................
   1    -84.3463600 -0.843464E+02  0.656E-03    0.14       0.0  T
   2    -84.3463021  0.578666E-04  0.227E-02    0.15       1.0  T
   3    -84.3463478 -0.457094E-04  0.112E-02    0.14       1.4  T
   4    -84.3463620 -0.141609E-04  0.121E-03    0.14      12.8  T
   5    -84.3463619  0.105400E-06  0.112E-03    0.14      13.8  T
   6    -84.3463620 -0.129495E-06  0.157E-04    0.14      98.4  T
   7    -84.3463620 -0.125289E-08  0.502E-05    0.14     307.1  T
     SCC iter.                  ...        0 min,  0.018 sec
     gradient                   ...        0 min,  0.062 sec
 * total energy  :   -83.6232799 Eh     change       -0.4771094E-04 Eh
   gradient norm :     0.0043376 Eh/α   predicted    -0.3498488E-04 ( -26.67%)
   displ. norm   :     0.2116795 α      lambda       -0.6338921E-04
   maximum displ.:     0.1067270 α      in ANC's #5, #4, #16, ...

........................................................................
.............................. CYCLE   27 ..............................
........................................................................
   1    -84.3464194 -0.843464E+02  0.685E-03    0.15       0.0  T
   2    -84.3464083  0.110351E-04  0.116E-02    0.15       1.3  T
   3    -84.3463564  0.519173E-04  0.232E-02    0.15       1.0  T
   4    -84.3464170 -0.605833E-04  0.647E-03    0.15       2.4  T
   5    -84.3464211 -0.415544E-05  0.224E-03    0.15       6.9  T
   6    -84.3464216 -0.436299E-06  0.457E-04    0.15      33.7  T
   7    -84.3464216 -0.111549E-07  0.225E-04    0.15      68.5  T
   8    -84.3464216 -0.375982E-08  0.110E-04    0.15     140.6  T
   9    -84.3464216 -0.127217E-08  0.724E-06    0.15    2132.1  T
     SCC iter.                  ...        0 min,  0.033 sec
     gradient                   ...        0 min,  0.084 sec
 * total energy  :   -83.6233275 Eh     change       -0.4759573E-04 Eh
   gradient norm :     0.0037481 Eh/α   predicted    -0.3311506E-04 ( -30.42%)
   displ. norm   :     0.2170617 α      lambda       -0.9158313E-04
   maximum displ.:     0.1080723 α      in ANC's #5, #4, #16, ...

........................................................................
.............................. CYCLE   28 ..............................
........................................................................
   1    -84.3477149 -0.843477E+02  0.224E-02    0.16       0.0  T
   2    -84.3402550  0.745991E-02  0.255E-01    0.13       1.0  T
   3    -84.3477684 -0.751341E-02  0.777E-03    0.16       2.0  T
   4    -84.3477494  0.189302E-04  0.145E-02    0.16       1.1  T
   5    -84.3477630 -0.135759E-04  0.924E-03    0.16       1.7  T
   6    -84.3477713 -0.825942E-05  0.252E-03    0.16       6.1  T
   7    -84.3477720 -0.691060E-06  0.230E-04    0.16      67.2  T
   8    -84.3477720 -0.461229E-08  0.837E-05    0.16     184.5  T
   9    -84.3477720 -0.492449E-09  0.400E-05    0.16     385.3  T
     SCC iter.                  ...        0 min,  0.034 sec
     gradient                   ...        0 min,  0.084 sec
 * total energy  :   -83.6233954 Eh     change       -0.6791705E-04 Eh
   gradient norm :     0.0032276 Eh/α   predicted    -0.4794976E-04 ( -29.40%)
   displ. norm   :     0.4054401 α      lambda       -0.1036201E-03
   maximum displ.:     0.2219055 α      in ANC's #5, #4, #16, ...

........................................................................
.............................. CYCLE   29 ..............................
........................................................................
   1    -84.3431609 -0.843432E+02  0.131E-01    0.16       0.0  T
   2    -84.3225222  0.206388E-01  0.471E-01    0.43       1.0  T
   3    -84.3419353 -0.194131E-01  0.169E-01    0.21       1.0  T
   4    -84.3449611 -0.302586E-02  0.492E-02    0.18       1.0  T
   5    -84.3451394 -0.178282E-03  0.285E-02    0.17       1.0  T
   6    -84.3451882 -0.487645E-04  0.206E-02    0.18       1.0  T
   7    -84.3452328 -0.446340E-04  0.482E-03    0.17       3.2  T
   8    -84.3452353 -0.251468E-05  0.608E-04    0.17      25.4  T
   9    -84.3452353 -0.215350E-07  0.395E-04    0.17      39.1  T
  10    -84.3452353 -0.130306E-07  0.209E-04    0.17      73.7  T
  11    -84.3452354 -0.476001E-08  0.587E-05    0.17     262.8  T
  12    -84.3452354 -0.384787E-09  0.837E-06    0.17    1844.1  T
     SCC iter.                  ...        0 min,  0.044 sec
     gradient                   ...        0 min,  0.084 sec
 * total energy  :   -83.6234275 Eh     change       -0.3207104E-04 Eh
   gradient norm :     0.0095131 Eh/α   predicted    -0.6034558E-04 (  88.16%)
   displ. norm   :     0.0944710 α      lambda       -0.1511507E-03
   maximum displ.:     0.0438982 α      in ANC's #4, #17, #7, ...

........................................................................
.............................. CYCLE   30 ..............................
........................................................................
   1    -84.3482265 -0.843482E+02  0.966E-02    0.19       0.0  T
   2    -84.1771488  0.171078E+00  0.122E+00    0.18       1.0  T
   3    -84.3493605 -0.172212E+00  0.793E-03    0.17       1.9  T
   4    -84.3493531  0.742132E-05  0.114E-02    0.17       1.3  T
   5    -84.3493521  0.946096E-06  0.114E-02    0.17       1.3  T
   6    -84.3493546 -0.248812E-05  0.969E-03    0.17       1.6  T
   7    -84.3493647 -0.100497E-04  0.197E-03    0.17       7.8  T
   8    -84.3493651 -0.438127E-06  0.119E-04    0.17     129.3  T
   9    -84.3493651 -0.551807E-09  0.650E-05    0.17     237.3  T
     SCC iter.                  ...        0 min,  0.033 sec
     gradient                   ...        0 min,  0.084 sec
 * total energy  :   -83.6235022 Eh     change       -0.7471485E-04 Eh
   gradient norm :     0.0052872 Eh/α   predicted    -0.7635054E-04 (   2.19%)
   displ. norm   :     0.1338442 α      lambda       -0.5129669E-04
   maximum displ.:     0.0801876 α      in ANC's #5, #16, #1, ...

........................................................................
.............................. CYCLE   31 ..............................
........................................................................
   1    -84.3488739 -0.843489E+02  0.256E-02    0.17       0.0  T
   2    -84.3448966  0.397725E-02  0.189E-01    0.22       1.0  T
   3    -84.3489319 -0.403527E-02  0.141E-02    0.18       1.1  T
   4    -84.3489529 -0.210259E-04  0.337E-03    0.18       4.6  T
   5    -84.3489537 -0.822903E-06  0.113E-03    0.18      13.6  T
   6    -84.3489537  0.579942E-07  0.118E-03    0.18      13.1  T
   7    -84.3489538 -0.132458E-06  0.259E-04    0.18      59.7  T
   8    -84.3489538 -0.699893E-08  0.364E-05    0.18     423.6  T
   9    -84.3489538 -0.123777E-09  0.178E-05    0.18     867.7  T
     SCC iter.                  ...        0 min,  0.033 sec
     gradient                   ...        0 min,  0.084 sec
 * total energy  :   -83.6235465 Eh     change       -0.4425518E-04 Eh
   gradient norm :     0.0041791 Eh/α   predicted    -0.2611727E-04 ( -40.98%)
   displ. norm   :     0.3152285 α      lambda       -0.1160330E-03
   maximum displ.:     0.1953361 α      in ANC's #5, #16, #1, ...

........................................................................
.............................. CYCLE   32 ..............................
........................................................................
   1    -84.3461341 -0.843461E+02  0.762E-02    0.18       0.0  T
   2    -84.3320466  0.140875E-01  0.372E-01    0.33       1.0  T
   3    -84.3461409 -0.140943E-01  0.802E-02    0.20       1.0  T
   4    -84.3468187 -0.677814E-03  0.201E-02    0.19       1.0  T
   5    -84.3468358 -0.170560E-04  0.131E-02    0.18       1.2  T
   6    -84.3468512 -0.154237E-04  0.797E-03    0.19       1.9  T
   7    -84.3468574 -0.618034E-05  0.972E-04    0.19      15.9  T
   8    -84.3468575 -0.824243E-07  0.254E-04    0.19      60.7  T
   9    -84.3468575 -0.765152E-08  0.239E-05    0.19     644.7  T
  10    -84.3468575  0.875914E-09  0.874E-05    0.19     176.5  T
     SCC iter.                  ...        0 min,  0.037 sec
     gradient                   ...        0 min,  0.083 sec
 * total energy  :   -83.6236115 Eh     change       -0.6502898E-04 Eh
   gradient norm :     0.0053754 Eh/α   predicted    -0.6378479E-04 (  -1.91%)
   displ. norm   :     0.0564186 α      lambda       -0.4306699E-04
   maximum displ.:     0.0245520 α      in ANC's #4, #17, #6, ...

........................................................................
.............................. CYCLE   33 ..............................
........................................................................
   1    -84.3477557 -0.843478E+02  0.533E-02    0.20       0.0  T
   2    -84.2996294  0.481263E-01  0.642E-01    0.15       1.0  T
   3    -84.3480902 -0.484608E-01  0.883E-03    0.19       1.7  T
   4    -84.3480961 -0.586283E-05  0.349E-03    0.19       4.4  T
   5    -84.3480973 -0.125027E-05  0.188E-03    0.19       8.2  T
   6    -84.3480969  0.364264E-06  0.239E-03    0.19       6.5  T
   7    -84.3480975 -0.517395E-06  0.903E-04    0.19      17.1  T
   8    -84.3480976 -0.949024E-07  0.935E-05    0.19     165.0  T
   9    -84.3480976 -0.780091E-09  0.392E-05    0.19     393.5  T
     SCC iter.                  ...        0 min,  0.033 sec
     gradient                   ...        0 min,  0.084 sec
 * total energy  :   -83.6236350 Eh     change       -0.2346538E-04 Eh
   gradient norm :     0.0040507 Eh/α   predicted    -0.2160580E-04 (  -7.92%)
   displ. norm   :     0.1676584 α      lambda       -0.4522148E-04
   maximum displ.:     0.1008552 α      in ANC's #5, #1, #16, ...

........................................................................
.............................. CYCLE   34 ..............................
........................................................................
   1    -84.3479435 -0.843479E+02  0.632E-03    0.19       0.0  T
   2    -84.3478136  0.129933E-03  0.338E-02    0.19       1.0  T
   3    -84.3479417 -0.128162E-03  0.628E-03    0.19       2.5  T
   4    -84.3479459 -0.420019E-05  0.109E-03    0.19      14.1  T
   5    -84.3479459 -0.339963E-07  0.585E-04    0.19      26.4  T
   6    -84.3479460 -0.274150E-07  0.159E-04    0.19      96.8  T
   7    -84.3479460 -0.134746E-08  0.482E-05    0.19     320.0  T
     SCC iter.                  ...        0 min,  0.026 sec
     gradient                   ...        0 min,  0.084 sec
 * total energy  :   -83.6236696 Eh     change       -0.3459581E-04 Eh
   gradient norm :     0.0029307 Eh/α   predicted    -0.2325037E-04 ( -32.79%)
   displ. norm   :     0.2438864 α      lambda       -0.6602256E-04
   maximum displ.:     0.1540132 α      in ANC's #5, #1, #16, ...

........................................................................
.............................. CYCLE   35 ..............................
........................................................................
   1    -84.3475489 -0.843475E+02  0.186E-02    0.20       0.0  T
   2    -84.3457737  0.177515E-02  0.126E-01    0.23       1.0  T
   3    -84.3475857 -0.181191E-02  0.465E-03    0.20       3.3  T
   4    -84.3475877 -0.202861E-05  0.132E-03    0.20      11.7  T
   5    -84.3475877 -0.231547E-07  0.106E-03    0.20      14.6  T
   6    -84.3475878 -0.676884E-07  0.233E-04    0.20      66.3  T
   7    -84.3475878 -0.295488E-08  0.397E-05    0.20     388.5  T
   8    -84.3475878 -0.253948E-10  0.160E-05    0.20     964.5  T
     SCC iter.                  ...        0 min,  0.030 sec
     gradient                   ...        0 min,  0.084 sec
 * total energy  :   -83.6237166 Eh     change       -0.4707975E-04 Eh
   gradient norm :     0.0037009 Eh/α   predicted    -0.3497642E-04 ( -25.71%)
   displ. norm   :     0.1933152 α      lambda       -0.6261633E-04
   maximum displ.:     0.1176916 α      in ANC's #5, #1, #2, ...

........................................................................
.............................. CYCLE   36 ..............................
........................................................................
   1    -84.3483929 -0.843484E+02  0.170E-02    0.21       0.0  T
   2    -84.3454767  0.291620E-02  0.161E-01    0.18       1.0  T
   3    -84.3484220 -0.294530E-02  0.938E-03    0.20       1.6  T
   4    -84.3484231 -0.105333E-05  0.832E-03    0.20       1.9  T
   5    -84.3484292 -0.609523E-05  0.287E-03    0.20       5.4  T
   6    -84.3484300 -0.842643E-06  0.500E-04    0.20      30.9  T
   7    -84.3484300 -0.212741E-07  0.103E-04    0.20     149.8  T
   8    -84.3484300 -0.100304E-08  0.223E-05    0.20     692.1  T
     SCC iter.                  ...        0 min,  0.029 sec
     gradient                   ...        0 min,  0.096 sec
 * total energy  :   -83.6237574 Eh     change       -0.4081262E-04 Eh
   gradient norm :     0.0038310 Eh/α   predicted    -0.3248013E-04 ( -20.42%)
   displ. norm   :     0.2616085 α      lambda       -0.4871689E-04
   maximum displ.:     0.1713913 α      in ANC's #5, #1, #2, ...

........................................................................
.............................. CYCLE   37 ..............................
........................................................................
   1    -84.3457266 -0.843457E+02  0.716E-02    0.20       0.0  T
   2    -84.3340780  0.116485E-01  0.337E-01    0.33       1.0  T
   3    -84.3460239 -0.119459E-01  0.523E-02    0.22       1.0  T
   4    -84.3463229 -0.298994E-03  0.108E-02    0.21       1.4  T
   5    -84.3463314 -0.844751E-05  0.533E-03    0.21       2.9  T
   6    -84.3463337 -0.235656E-05  0.317E-03    0.21       4.9  T
   7    -84.3463347 -0.943417E-06  0.601E-04    0.21      25.7  T
   8    -84.3463347 -0.358965E-07  0.117E-04    0.21     131.3  T
   9    -84.3463347  0.400604E-10  0.111E-04    0.21     139.6  T
     SCC iter.                  ...        0 min,  0.034 sec
     gradient                   ...        0 min,  0.083 sec
 * total energy  :   -83.6237763 Eh     change       -0.1881248E-04 Eh
   gradient norm :     0.0067765 Eh/α   predicted    -0.2602885E-04 (  38.36%)
   displ. norm   :     0.0901804 α      lambda       -0.8717761E-04
   maximum displ.:     0.0449481 α      in ANC's #1, #5, #2, ...

........................................................................
.............................. CYCLE   38 ..............................
........................................................................
   1    -84.3484800 -0.843485E+02  0.430E-02    0.22       0.0  T
   2    -84.3240548  0.244252E-01  0.461E-01    0.17       1.0  T
   3    -84.3487062 -0.246515E-01  0.117E-02    0.21       1.3  T
   4    -84.3487046  0.163724E-05  0.118E-02    0.21       1.3  T
   5    -84.3487078 -0.322146E-05  0.969E-03    0.21       1.6  T
   6    -84.3487159 -0.801897E-05  0.441E-03    0.21       3.5  T
   7    -84.3487179 -0.207611E-05  0.519E-04    0.21      29.7  T
   8    -84.3487180 -0.309740E-07  0.676E-05    0.21     228.3  T
   9    -84.3487180 -0.444373E-09  0.194E-05    0.21     795.9  T
     SCC iter.                  ...        0 min,  0.034 sec
     gradient                   ...        0 min,  0.083 sec
 * total energy  :   -83.6238225 Eh     change       -0.4626195E-04 Eh
   gradient norm :     0.0039964 Eh/α   predicted    -0.4394404E-04 (  -5.01%)
   displ. norm   :     0.1370567 α      lambda       -0.4793699E-04
   maximum displ.:     0.0836590 α      in ANC's #5, #1, #2, ...

........................................................................
.............................. CYCLE   39 ..............................
........................................................................
   1    -84.3485407 -0.843485E+02  0.249E-02    0.21       0.0  T
   2    -84.3459772  0.256351E-02  0.153E-01    0.25       1.0  T
   3    -84.3486073 -0.263015E-02  0.497E-03    0.21       3.1  T
   4    -84.3486094 -0.207025E-05  0.196E-03    0.21       7.9  T
   5    -84.3486095 -0.665675E-07  0.131E-03    0.21      11.8  T
   6    -84.3486096 -0.109771E-06  0.339E-04    0.21      45.5  T
   7    -84.3486096 -0.512810E-08  0.231E-04    0.21      66.8  T
   8    -84.3486096 -0.571151E-08  0.548E-05    0.21     281.5  T
   9    -84.3486096 -0.333642E-09  0.518E-06    0.21    2978.4  T
     SCC iter.                  ...        0 min,  0.033 sec
     gradient                   ...        0 min,  0.084 sec
 * total energy  :   -83.6238585 Eh     change       -0.3600225E-04 Eh
   gradient norm :     0.0032814 Eh/α   predicted    -0.2441884E-04 ( -32.17%)
   displ. norm   :     0.3591661 α      lambda       -0.9800329E-04
   maximum displ.:     0.2259067 α      in ANC's #5, #1, #2, ...

........................................................................
.............................. CYCLE   40 ..............................
........................................................................
   1    -84.3457527 -0.843458E+02  0.806E-02    0.21       0.0  T
   2    -84.3329366  0.128161E-01  0.358E-01    0.36       1.0  T
   3    -84.3460197 -0.130831E-01  0.686E-02    0.23       1.0  T
   4    -84.3465109 -0.491182E-03  0.175E-02    0.22       1.0  T
   5    -84.3465396 -0.287231E-04  0.273E-03    0.22       5.7  T
   6    -84.3465391  0.493443E-06  0.409E-03    0.22       3.8  T
   7    -84.3465406 -0.142570E-05  0.712E-04    0.22      21.7  T
   8    -84.3465406 -0.419408E-07  0.218E-04    0.22      70.7  T
   9    -84.3465406 -0.257015E-08  0.131E-04    0.22     118.0  T
  10    -84.3465406 -0.140524E-08  0.727E-05    0.22     212.4  T
     SCC iter.                  ...        0 min,  0.037 sec
     gradient                   ...        0 min,  0.084 sec
 * total energy  :   -83.6239109 Eh     change       -0.5235598E-04 Eh
   gradient norm :     0.0069156 Eh/α   predicted    -0.5532278E-04 (   5.67%)
   displ. norm   :     0.0801373 α      lambda       -0.6248421E-04
   maximum displ.:     0.0351103 α      in ANC's #3, #1, #6, ...

........................................................................
.............................. CYCLE   41 ..............................
........................................................................
   1    -84.3481282 -0.843481E+02  0.423E-02    0.23       0.0  T
   2    -84.3287759  0.193523E-01  0.410E-01    0.18       1.0  T
   3    -84.3483385 -0.195627E-01  0.648E-03    0.22       2.4  T
   4    -84.3483410 -0.251700E-05  0.247E-03    0.22       6.2  T
   5    -84.3483412 -0.122803E-06  0.230E-03    0.22       6.7  T
   6    -84.3483411  0.897380E-08  0.200E-03    0.22       7.7  T
   7    -84.3483416 -0.425248E-06  0.434E-04    0.22      35.5  T
   8    -84.3483416 -0.218084E-07  0.360E-05    0.22     428.5  T
   9    -84.3483416 -0.843272E-10  0.177E-05    0.22     871.8  T
     SCC iter.                  ...        0 min,  0.033 sec
     gradient                   ...        0 min,  0.083 sec
 * total energy  :   -83.6239534 Eh     change       -0.4247949E-04 Eh
   gradient norm :     0.0050496 Eh/α   predicted    -0.3144527E-04 ( -25.98%)
   displ. norm   :     0.2954805 α      lambda       -0.9149651E-04
   maximum displ.:     0.1705850 α      in ANC's #5, #1, #3, ...

........................................................................
.............................. CYCLE   42 ..............................
........................................................................
   1    -84.3477652 -0.843478E+02  0.191E-02    0.22       0.0  T
   2    -84.3462978  0.146736E-02  0.117E-01    0.25       1.0  T
   3    -84.3478041 -0.150625E-02  0.566E-03    0.22       2.7  T
   4    -84.3478017  0.238779E-05  0.660E-03    0.22       2.3  T
   5    -84.3478058 -0.410657E-05  0.194E-03    0.22       8.0  T
   6    -84.3478060 -0.219425E-06  0.535E-04    0.22      28.9  T
   7    -84.3478060 -0.175083E-07  0.233E-04    0.22      66.3  T
   8    -84.3478060 -0.531327E-08  0.203E-05    0.22     759.0  T
   9    -84.3478060 -0.854072E-11  0.729E-06    0.22    2116.6  T
     SCC iter.                  ...        0 min,  0.033 sec
     gradient                   ...        0 min,  0.085 sec
 * total energy  :   -83.6240143 Eh     change       -0.6092929E-04 Eh
   gradient norm :     0.0047059 Eh/α   predicted    -0.4974675E-04 ( -18.35%)
   displ. norm   :     0.1684888 α      lambda       -0.8785895E-04
   maximum displ.:     0.0757824 α      in ANC's #1, #5, #3, ...
 * RMSD in coord.:     0.5224268 α      energy gain  -0.9272096E-03 Eh

generating ANC from model Hessian ...
Using Lindh-Hessian (1995)
 Shifting diagonal of input Hessian by   9.797766390326895E-003
 Lowest  eigenvalues of input Hessian
    0.000000    0.000000    0.000000    0.000000    0.000000    0.000000
    0.010000    0.010083    0.010436    0.011625    0.011805    0.012226
    0.013359    0.013887    0.014111    0.014675    0.016119    0.017416
 Highest eigenvalues
    2.002111    2.091432    2.106933    2.254281    2.285983    2.344181
 

........................................................................
.............................. CYCLE   43 ..............................
........................................................................
   1    -84.3489189 -0.843489E+02  0.439E-02    0.23       0.0  T
   2    -84.3292080  0.197108E-01  0.415E-01    0.19       1.0  T
   3    -84.3491478 -0.199398E-01  0.395E-03    0.23       3.9  T
   4    -84.3491476  0.265473E-06  0.418E-03    0.23       3.7  T
   5    -84.3491464  0.116254E-05  0.495E-03    0.22       3.1  T
   6    -84.3491482 -0.177854E-05  0.272E-03    0.23       5.7  T
   7    -84.3491489 -0.674669E-06  0.845E-04    0.23      18.3  T
   8    -84.3491489 -0.795786E-07  0.277E-05    0.23     557.2  T
   9    -84.3491489 -0.120934E-10  0.135E-05    0.23    1142.0  T
     SCC iter.                  ...        0 min,  0.033 sec
     gradient                   ...        0 min,  0.084 sec
 * total energy  :   -83.6240660 Eh     change       -0.5171189E-04 Eh
   gradient norm :     0.0034577 Eh/α   predicted     0.0000000E+00 (-100.00%)
   displ. norm   :     0.0281644 α      lambda       -0.2376439E-04
   maximum displ.:     0.0115649 α      in ANC's #4, #7, #3, ...

........................................................................
.............................. CYCLE   44 ..............................
........................................................................
   1    -84.3494539 -0.843495E+02  0.708E-03    0.22       0.0  T
   2    -84.3492590  0.194811E-03  0.416E-02    0.23       1.0  T
   3    -84.3494581 -0.199061E-03  0.349E-03    0.23       4.4  T
   4    -84.3494589 -0.789356E-06  0.134E-03    0.23      11.5  T
   5    -84.3494590 -0.114393E-06  0.726E-04    0.23      21.3  T
   6    -84.3494590 -0.198035E-07  0.364E-04    0.23      42.4  T
   7    -84.3494590 -0.120844E-07  0.598E-05    0.23     257.9  T
   8    -84.3494590 -0.337650E-09  0.100E-05    0.23    1536.1  T
     SCC iter.                  ...        0 min,  0.029 sec
     gradient                   ...        0 min,  0.085 sec
 * total energy  :   -83.6240881 Eh     change       -0.2205226E-04 Eh
   gradient norm :     0.0016709 Eh/α   predicted    -0.1384717E-04 ( -37.21%)
   displ. norm   :     0.1064588 α      lambda       -0.3552226E-04
   maximum displ.:     0.0493301 α      in ANC's #4, #7, #3, ...

........................................................................
.............................. CYCLE   45 ..............................
........................................................................
   1    -84.3495636 -0.843496E+02  0.225E-02    0.22       0.0  T
   2    -84.3478076  0.175602E-02  0.126E-01    0.26       1.0  T
   3    -84.3496151 -0.180750E-02  0.755E-03    0.23       2.0  T
   4    -84.3496185 -0.339601E-05  0.255E-03    0.23       6.0  T
   5    -84.3496186 -0.871838E-07  0.211E-03    0.23       7.3  T
   6    -84.3496188 -0.209182E-06  0.100E-03    0.23      15.4  T
   7    -84.3496189 -0.954454E-07  0.643E-05    0.23     239.9  T
   8    -84.3496189 -0.172449E-09  0.214E-05    0.23     720.4  T
     SCC iter.                  ...        0 min,  0.030 sec
     gradient                   ...        0 min,  0.084 sec
 * total energy  :   -83.6241134 Eh     change       -0.2532000E-04 Eh
   gradient norm :     0.0028129 Eh/α   predicted    -0.1881879E-04 ( -25.68%)
   displ. norm   :     0.0278393 α      lambda       -0.1038860E-04
   maximum displ.:     0.0160123 α      in ANC's #4, #6, #3, ...

........................................................................
.............................. CYCLE   46 ..............................
........................................................................
   1    -84.3495097 -0.843495E+02  0.150E-03    0.23       0.0  T
   2    -84.3495022  0.756537E-05  0.823E-03    0.23       1.9  T
   3    -84.3495099 -0.776304E-05  0.460E-04    0.23      33.5  T
   4    -84.3495099 -0.656804E-08  0.239E-04    0.23      64.5  T
   5    -84.3495099 -0.236095E-08  0.127E-04    0.23     121.6  T
   6    -84.3495100 -0.465690E-09  0.479E-05    0.23     322.4  T
     SCC iter.                  ...        0 min,  0.022 sec
     gradient                   ...        0 min,  0.085 sec
 * total energy  :   -83.6241235 Eh     change       -0.1016830E-04 Eh
   gradient norm :     0.0021215 Eh/α   predicted    -0.5584125E-05 ( -45.08%)
   displ. norm   :     0.1598747 α      lambda       -0.5102717E-04
   maximum displ.:     0.0903624 α      in ANC's #4, #6, #5, ...

........................................................................
.............................. CYCLE   47 ..............................
........................................................................
   1    -84.3488172 -0.843488E+02  0.951E-03    0.23       0.0  T
   2    -84.3484334  0.383814E-03  0.589E-02    0.24       1.0  T
   3    -84.3488264 -0.393005E-03  0.321E-03    0.23       4.8  T
   4    -84.3488273 -0.905645E-06  0.118E-03    0.23      13.1  T
   5    -84.3488273 -0.977744E-08  0.806E-04    0.23      19.2  T
   6    -84.3488274 -0.317635E-07  0.331E-04    0.23      46.6  T
   7    -84.3488274 -0.684877E-08  0.740E-05    0.23     208.6  T
   8    -84.3488274 -0.508635E-09  0.168E-05    0.23     918.7  T
     SCC iter.                  ...        0 min,  0.028 sec
     gradient                   ...        0 min,  0.084 sec
 * total energy  :   -83.6241574 Eh     change       -0.3383411E-04 Eh
   gradient norm :     0.0019831 Eh/α   predicted    -0.2616578E-04 ( -22.66%)
   displ. norm   :     0.1950269 α      lambda       -0.2316008E-04
   maximum displ.:     0.1112605 α      in ANC's #4, #6, #5, ...

........................................................................
.............................. CYCLE   48 ..............................
........................................................................
   1    -84.3480195 -0.843480E+02  0.150E-02    0.23       0.0  T
   2    -84.3469906  0.102893E-02  0.968E-02    0.25       1.0  T
   3    -84.3480429 -0.105236E-02  0.616E-03    0.23       2.5  T
   4    -84.3480469 -0.394929E-05  0.169E-03    0.23       9.1  T
   5    -84.3480470 -0.157549E-06  0.671E-04    0.23      23.0  T
   6    -84.3480470  0.114780E-07  0.509E-04    0.23      30.3  T
   7    -84.3480470 -0.275651E-07  0.251E-05    0.23     615.9  T
   8    -84.3480470 -0.104450E-10  0.141E-05    0.23    1097.6  T
     SCC iter.                  ...        0 min,  0.029 sec
     gradient                   ...        0 min,  0.085 sec
 * total energy  :   -83.6241798 Eh     change       -0.2239367E-04 Eh
   gradient norm :     0.0039873 Eh/α   predicted    -0.1177722E-04 ( -47.41%)
   displ. norm   :     0.1115347 α      lambda       -0.2963536E-04
   maximum displ.:     0.0630492 α      in ANC's #4, #5, #6, ...

........................................................................
.............................. CYCLE   49 ..............................
........................................................................
   1    -84.3484140 -0.843484E+02  0.229E-03    0.24       0.0  T
   2    -84.3484141 -0.113309E-06  0.117E-03    0.24      13.2  T
   3    -84.3484134  0.716416E-06  0.268E-03    0.23       5.8  T
   4    -84.3484141 -0.724056E-06  0.968E-04    0.24      15.9  T
   5    -84.3484142 -0.748213E-07  0.271E-04    0.24      57.0  T
   6    -84.3484142 -0.257997E-08  0.534E-05    0.24     288.8  T
   7    -84.3484142 -0.670184E-10  0.174E-05    0.24     888.9  T
     SCC iter.                  ...        0 min,  0.024 sec
     gradient                   ...        0 min,  0.074 sec
 * total energy  :   -83.6242062 Eh     change       -0.2648196E-04 Eh
   gradient norm :     0.0035009 Eh/α   predicted    -0.1500274E-04 ( -43.35%)
   displ. norm   :     0.3579716 α      lambda       -0.9174901E-04
   maximum displ.:     0.2004948 α      in ANC's #4, #5, #6, ...

........................................................................
.............................. CYCLE   50 ..............................
........................................................................
   1    -84.3478463 -0.843478E+02  0.221E-02    0.24       0.0  T
   2    -84.3461036  0.174261E-02  0.127E-01    0.27       1.0  T
   3    -84.3478979 -0.179420E-02  0.579E-03    0.24       2.7  T
   4    -84.3479006 -0.270814E-05  0.234E-03    0.24       6.6  T
   5    -84.3479007 -0.187783E-06  0.118E-03    0.24      13.1  T
   6    -84.3479008 -0.714610E-07  0.178E-04    0.24      86.8  T
   7    -84.3479008  0.176526E-08  0.167E-04    0.24      92.2  T
     SCC iter.                  ...        0 min,  0.026 sec
     gradient                   ...        0 min,  0.078 sec
 * total energy  :   -83.6242723 Eh     change       -0.6603646E-04 Eh
   gradient norm :     0.0042445 Eh/α   predicted    -0.5175452E-04 ( -21.63%)
   displ. norm   :     0.2036450 α      lambda       -0.6758494E-04
   maximum displ.:     0.1126042 α      in ANC's #5, #4, #3, ...

........................................................................
.............................. CYCLE   51 ..............................
........................................................................
   1    -84.3492228 -0.843492E+02  0.716E-03    0.25       0.0  T
   2    -84.3490564  0.166337E-03  0.390E-02    0.24       1.0  T
   3    -84.3492270 -0.170564E-03  0.209E-03    0.24       7.4  T
   4    -84.3492269  0.645416E-07  0.169E-03    0.24       9.1  T
   5    -84.3492271 -0.141642E-06  0.492E-04    0.24      31.3  T
   6    -84.3492271 -0.191530E-07  0.143E-04    0.24     107.8  T
   7    -84.3492271 -0.424933E-09  0.966E-05    0.24     159.8  T
     SCC iter.                  ...        0 min,  0.025 sec
     gradient                   ...        0 min,  0.078 sec
 * total energy  :   -83.6243161 Eh     change       -0.4380989E-04 Eh
   gradient norm :     0.0035117 Eh/α   predicted    -0.3519779E-04 ( -19.66%)
   displ. norm   :     0.2134050 α      lambda       -0.4750930E-04
   maximum displ.:     0.1208948 α      in ANC's #5, #4, #3, ...

........................................................................
.............................. CYCLE   52 ..............................
........................................................................
   1    -84.3485592 -0.843486E+02  0.174E-02    0.24       0.0  T
   2    -84.3474071  0.115205E-02  0.103E-01    0.27       1.0  T
   3    -84.3485925 -0.118539E-02  0.373E-03    0.25       4.1  T
   4    -84.3485938 -0.127589E-05  0.115E-03    0.25      13.4  T
   5    -84.3485938 -0.403796E-07  0.564E-04    0.25      27.4  T
   6    -84.3485938 -0.220447E-08  0.300E-04    0.25      51.4  T
   7    -84.3485938 -0.834936E-08  0.842E-05    0.25     183.3  T
   8    -84.3485938 -0.706635E-09  0.106E-05    0.25    1450.6  T
     SCC iter.                  ...        0 min,  0.029 sec
     gradient                   ...        0 min,  0.082 sec
 * total energy  :   -83.6243525 Eh     change       -0.3639398E-04 Eh
   gradient norm :     0.0038919 Eh/α   predicted    -0.2484928E-04 ( -31.72%)
   displ. norm   :     0.3233026 α      lambda       -0.1555398E-03
   maximum displ.:     0.2147613 α      in ANC's #5, #4, #1, ...

........................................................................
.............................. CYCLE   53 ..............................
........................................................................
   1    -84.3524084 -0.843524E+02  0.348E-02    0.26       0.0  T
   2    -84.3437579  0.865056E-02  0.278E-01    0.22       1.0  T
   3    -84.3525436 -0.878569E-02  0.132E-02    0.25       1.2  T
   4    -84.3525466 -0.300830E-05  0.111E-02    0.25       1.4  T
   5    -84.3525495 -0.295326E-05  0.850E-03    0.25       1.8  T
   6    -84.3525559 -0.635306E-05  0.323E-03    0.25       4.8  T
   7    -84.3525570 -0.107329E-05  0.564E-04    0.25      27.4  T
   8    -84.3525570 -0.332114E-07  0.430E-05    0.25     358.7  T
   9    -84.3525570 -0.166395E-09  0.130E-05    0.25    1188.5  T
     SCC iter.                  ...        0 min,  0.032 sec
     gradient                   ...        0 min,  0.082 sec
 * total energy  :   -83.6243820 Eh     change       -0.2948863E-04 Eh
   gradient norm :     0.0081487 Eh/α   predicted    -0.8591312E-04 ( 191.34%)
   displ. norm   :     0.4533721 α      lambda       -0.1717157E-03
   maximum displ.:     0.2670837 α      in ANC's #5, #4, #3, ...

........................................................................
.............................. CYCLE   54 ..............................
........................................................................
[...]
H35-C14=1.0901       H36-C15=1.0873       H37-C15=1.0901       H38-C15=1.0915       H39-N16=1.0124       H40-C23=1.0877       
H41-C23=1.0901       H42-C23=1.0903       
 C  H  Rav=1.0903 sigma=0.0027  Rmin=1.0873  Rmax=1.0964    15
 C  C  Rav=1.5046 sigma=0.0576  Rmin=1.4266  Rmax=1.6245     9
 N  H  Rav=1.0096 sigma=0.0029  Rmin=1.0067  Rmax=1.0124     2
 N  C  Rav=1.3783 sigma=0.0522  Rmin=1.2930  Rmax=1.4551     8
 N  N  Rav=1.3694 sigma=0.0000  Rmin=1.3694  Rmax=1.3694     1
 O  C  Rav=1.3129 sigma=0.0698  Rmin=1.2291  Rmax=1.4143     8
 
 selected bond angles (degree)
 --------------------
H26-C1-O2=111.17               H27-C1-O2=107.33               H27-C1-H26=109.34              H28-C1-O2=111.18               
H28-C1-H26=108.44              H28-C1-H27=109.34              C3-O2-C1=115.38                O4-C3-O2=118.91                
C5-C3-O2=112.65                C5-C3-O4=128.44                C6-C5-C3=119.79                N25-C5-C3=114.81               
N25-C5-C6=125.31               O7-C6-C5=125.81                C8-C6-C5=115.19                C8-C6-O7=118.98                
O9-C8-C6=124.32                N10-C8-C6=116.52               N10-C8-O9=119.14               C11-N10-C8=126.24              
H29-N10-C8=116.69              H29-N10-C11=117.03             
 
 selected dihedral angles (degree)
 ---------------------------------
C3-O2-C1-H26= 61.68           C3-O2-C1-H27=181.21           C3-O2-C1-H28=300.76           O4-C3-O2-C1=359.70            
C5-C3-O2-C1=179.51            C6-C5-C3-O2=180.78            C6-C5-C3-O4=  0.56            N25-C5-C3-O2=357.38           
N25-C5-C3-O4=177.16           O7-C6-C5-C3=355.48            O7-C6-C5-N25=179.26           C8-C6-C5-C3=173.81            
C8-C6-C5-N25=357.60           O9-C8-C6-C5=188.45            O9-C8-C6-O7=  6.91            N10-C8-C6-C5=  6.55           
N10-C8-C6-O7=185.00           C11-N10-C8-C6=  2.66          C11-N10-C8-O9=180.86          H29-N10-C8-C6=180.23          
H29-N10-C8-O9=358.42          
           -------------------------------------------------
          |                Final Singlepoint                |
           -------------------------------------------------

          ...................................................
          :                      SETUP                      :
          :.................................................:
          :  # basis functions                 134          :
          :  # atomic orbitals                 134          :
          :  # shells                           84          :
          :  # electrons                       136          :
          :  # halogen bonds                     0          :
          :  max. iterations                   250          :
          :  Hamiltonian                  GFN1-xTB          :
          :  restarted?                      false          :
          :  GBSA solvation                   true          :
          :  PC potential                    false          :
          :  electronic temp.          300.0000000     K    :
          :  accuracy                    1.0000000          :
          :  -> integral cutoff          0.2500000E+02      :
          :  -> integral neglect         0.1000000E-07      :
          :  -> SCF convergence          0.1000000E-05 Eh   :
          :  -> wf. convergence          0.2000000E-04 e    :
          :  Broyden damping             0.4000000          :
          ...................................................

 iter      E             dE          RMSdq      gap      omega  full diag
   1    -84.3504381 -0.843504E+02  0.114E-05    0.28       0.0  T
   2    -84.3504381  0.284913E-09  0.512E-05    0.28     301.6  T
   3    -84.3504381 -0.293554E-09  0.598E-06    0.28    2580.1  T

   *** convergence criteria satisfied after 3 iterations ***

         #    Occupation            Energy/Eh            Energy/eV
      -------------------------------------------------------------
         1        2.0000           -0.8154456             -22.1894
       ...           ...                  ...                  ...
        62        2.0000           -0.4050290             -11.0214
        63        2.0000           -0.4025396             -10.9537
        64        2.0000           -0.3913382             -10.6489
        65        2.0000           -0.3736554             -10.1677
        66        2.0000           -0.3687132             -10.0332
        67        2.0000           -0.3359045              -9.1404
        68        1.9919           -0.2790321              -7.5928 (HOMO)
        69        0.0081           -0.2685754              -7.3083 (LUMO)
        70                         -0.2373793              -6.4594
        71                         -0.2199914              -5.9863
        72                         -0.1645269              -4.4770
        73                         -0.1489394              -4.0528
       ...                                ...                  ...
       134                          0.7577213              20.6186
      -------------------------------------------------------------
                  HL-Gap            0.0104566 Eh            0.2845 eV
             Fermi-level           -0.2738037 Eh           -7.4506 eV

 SCC (total)                   0 d,  0 h,  0 min,  0.135 sec
 SCC setup                      ...        0 min,  0.002 sec (  1.488%)
 Dispersion                     ...        0 min,  0.000 sec (  0.261%)
 classical contributions        ...        0 min,  0.000 sec (  0.093%)
 integral evaluation            ...        0 min,  0.036 sec ( 26.363%)
 iterations                     ...        0 min,  0.012 sec (  9.094%)
 molecular gradient             ...        0 min,  0.084 sec ( 61.938%)
 printout                       ...        0 min,  0.001 sec (  0.723%)

         :::::::::::::::::::::::::::::::::::::::::::::::::::::
         ::                     SUMMARY                     ::
         :::::::::::::::::::::::::::::::::::::::::::::::::::::
         :: total energy             -83.625276162791 Eh    ::
         :: total w/o Gsasa/hb       -83.607160501545 Eh    ::
         :: gradient norm              0.000982990073 Eh/a0 ::
         :: HOMO-LUMO gap              0.284539375550 eV    ::
         ::.................................................::
         :: SCC energy               -84.350438072817 Eh    ::
         :: -> electrostatic           0.701320090406 Eh    ::
         :: -> Gsolv                  -0.272675028144 Eh    ::
         ::    -> Gelec               -0.254559366899 Eh    ::
         ::    -> Gsasa               -0.023149586847 Eh    ::
         ::    -> Ghb                 -0.002590353404 Eh    ::
         ::    -> Gshift               0.007624279005 Eh    ::
         :: repulsion energy           0.752996083948 Eh    ::
         :: dispersion energy         -0.027834173922 Eh    ::
         :: halogen bond corr.         0.000000000000 Eh    ::
         :: add. restraining           0.000000000000 Eh    ::
         :: total charge              -2.000000000000 e     ::
         :::::::::::::::::::::::::::::::::::::::::::::::::::::

           -------------------------------------------------
          |                Property Printout                |
           -------------------------------------------------

    * Orbital Energies and Occupations

         #    Occupation            Energy/Eh            Energy/eV
      -------------------------------------------------------------
         1        2.0000           -0.8154456             -22.1894
       ...           ...                  ...                  ...
        56        2.0000           -0.4460302             -12.1371
        57        2.0000           -0.4402633             -11.9802
        58        2.0000           -0.4179787             -11.3738
        59        2.0000           -0.4164530             -11.3323
        60        2.0000           -0.4139596             -11.2644
        61        2.0000           -0.4110997             -11.1866
        62        2.0000           -0.4050290             -11.0214
        63        2.0000           -0.4025396             -10.9537
        64        2.0000           -0.3913382             -10.6489
        65        2.0000           -0.3736554             -10.1677
        66        2.0000           -0.3687132             -10.0332
        67        2.0000           -0.3359045              -9.1404
        68        1.9919           -0.2790321              -7.5928 (HOMO)
        69        0.0081           -0.2685754              -7.3083 (LUMO)
        70                         -0.2373793              -6.4594
        71                         -0.2199914              -5.9863
        72                         -0.1645269              -4.4770
        73                         -0.1489394              -4.0528
        74                         -0.1278882              -3.4800
        75                         -0.1131972              -3.0803
        76                         -0.0997396              -2.7141
        77                         -0.0924544              -2.5158
        78                         -0.0889642              -2.4208
        79                         -0.0798506              -2.1728
       ...                                ...                  ...
       134                          0.7577213              20.6186
      -------------------------------------------------------------
                  HL-Gap            0.0104566 Eh            0.2845 eV
             Fermi-level           -0.2738037 Eh           -7.4506 eV

  Mulliken/CM5 charges         n(s)   n(p)   n(d)
     1C     0.17820  0.05972   0.966  2.856  0.000
     2O    -0.45591 -0.53580   1.695  4.760  0.000
     3C     0.52311  0.58566   0.987  2.490  0.000
     4O    -0.63557 -0.68011   1.739  4.897  0.000
     5C     0.01139  0.08828   1.045  2.943  0.000
     6C     0.23710  0.27985   1.028  2.735  0.000
     7O    -0.68581 -0.72222   1.756  4.930  0.000
     8C     0.41602  0.51853   1.009  2.575  0.000
     9O    -0.66203 -0.69902   1.744  4.918  0.000
    10N    -0.37771 -0.72670   1.434  3.944  0.000
    11C     0.27229  0.37879   1.043  2.684  0.000
    12C    -0.09614 -0.22988   1.016  3.080  0.000
    13C     0.14891  0.19013   1.074  2.777  0.000
    14C    -0.09741 -0.23591   1.015  3.082  0.000
    15C    -0.08453 -0.22379   1.010  3.075  0.000
    16N    -0.35710 -0.71016   1.433  3.924  0.000
    17C     0.40471  0.50659   0.966  2.629  0.000
    18O    -0.65353 -0.69866   1.740  4.914  0.000
    19C     0.29246  0.41069   1.007  2.700  0.000
    20N    -0.31843 -0.42531   1.578  3.741  0.000
    21N    -0.29622 -0.40438   1.569  3.727  0.000
    22C     0.36435  0.47328   0.996  2.639  0.000
    23C    -0.11044 -0.24767   1.009  3.101  0.000
    24O    -0.38154 -0.43135   1.702  4.680  0.000
    25N    -0.53743 -0.71616   1.551  3.986  0.000
    26H     0.02252  0.08395   0.977  0.000  0.000
    27H     0.02107  0.08123   0.979  0.000  0.000
    28H     0.02237  0.08404   0.978  0.000  0.000
    29H     0.22191  0.42533   0.778  0.000  0.000
    30H     0.01592  0.07411   0.984  0.000  0.000
    31H     0.02140  0.08421   0.979  0.000  0.000
    32H     0.02772  0.08679   0.972  0.000  0.000
    33H     0.02830  0.08984   0.972  0.000  0.000
    34H     0.02149  0.07722   0.979  0.000  0.000
    35H     0.03209  0.09160   0.968  0.000  0.000
    36H     0.03669  0.09903   0.963  0.000  0.000
    37H     0.01600  0.07191   0.984  0.000  0.000
    38H     0.02204  0.08213   0.978  0.000  0.000
    39H     0.21839  0.42636   0.782  0.000  0.000
    40H     0.05284  0.10870   0.947  0.000  0.000
    41H     0.06053  0.11498   0.939  0.000  0.000
    42H     0.05999  0.11420   0.940  0.000  0.000

Wiberg/Mayer (AO) data.
largest (>0.10) Wiberg bond orders for each atom

 ---------------------------------------------------------------------------
     #   Z sym  total        # sym  WBO       # sym  WBO       # sym  WBO
 ---------------------------------------------------------------------------
     1   6 C    3.913 --    27 H    0.987    26 H    0.980    28 H    0.980
                             2 O    0.942
     2   8 O    2.115 --     3 C    0.991     1 C    0.942
     3   6 C    3.813 --     4 O    1.559     5 C    1.125     2 O    0.991
     4   8 O    1.828 --     3 C    1.559
     5   6 C    3.917 --    25 N    1.250     6 C    1.235     3 C    1.125
                             7 O    0.101
     6   6 C    3.878 --     7 O    1.432     5 C    1.235     8 C    0.994
     7   8 O    1.681 --     6 C    1.432     5 C    0.101
     8   6 C    3.872 --     9 O    1.518    10 N    1.196     6 C    0.994
     9   8 O    1.788 --     8 C    1.518    10 N    0.142
    10   7 N    3.308 --     8 C    1.196    11 C    0.926    29 H    0.915
                             9 O    0.142
    11   6 C    3.935 --    25 N    1.071    12 C    0.980    10 N    0.926
                            13 C    0.855
    12   6 C    3.995 --    31 H    0.986    30 H    0.986    32 H    0.982
                            11 C    0.980
    13   6 C    3.925 --    15 C    1.002    14 C    0.999    16 N    0.959
                            11 C    0.855
    14   6 C    3.996 --    13 C    0.999    34 H    0.987    33 H    0.983
                            35 H    0.983
    15   6 C    3.994 --    13 C    1.002    37 H    0.986    38 H    0.982
                            36 H    0.977
    16   7 N    3.309 --    17 C    1.166    13 C    0.959    39 H    0.910
                            18 O    0.142
    17   6 C    3.879 --    18 O    1.451    16 N    1.166    19 C    1.094
    18   8 O    1.775 --    17 C    1.451    16 N    0.142
    19   6 C    3.747 --    20 N    1.461    17 C    1.094    24 O    1.004
    20   7 N    2.837 --    19 C    1.461    21 N    1.179
    21   7 N    2.980 --    22 C    1.632    20 N    1.179
    22   6 C    3.839 --    21 N    1.632    24 O    1.057    23 C    1.025
    23   6 C    3.993 --    22 C    1.025    40 H    0.985    41 H    0.971
                            42 H    0.968
    24   8 O    2.227 --    22 C    1.057    19 C    1.004
    25   7 N    2.722 --     5 C    1.250    11 C    1.071
    26   1 H    1.018 --     1 C    0.980
    27   1 H    1.019 --     1 C    0.987
    28   1 H    1.018 --     1 C    0.980
    29   1 H    0.964 --    10 N    0.915
    30   1 H    1.019 --    12 C    0.986
    31   1 H    1.009 --    12 C    0.986
    32   1 H    1.020 --    12 C    0.982
    33   1 H    1.009 --    14 C    0.983
    34   1 H    1.007 --    14 C    0.987
    35   1 H    1.014 --    14 C    0.983
    36   1 H    1.025 --    15 C    0.977
    37   1 H    1.006 --    15 C    0.986
    38   1 H    1.029 --    15 C    0.982
    39   1 H    0.975 --    16 N    0.910
    40   1 H    1.003 --    23 C    0.985
    41   1 H    1.000 --    23 C    0.971
    42   1 H    1.000 --    23 C    0.968
 ---------------------------------------------------------------------------

Topologies differ in total number of bonds
Writing topology from bond orders to xtbtopo.mol

 dipole moment from electron density (au)
     X       Y       Z   
   7.6895   4.2587  -2.7243  total (Debye):   23.390

           -------------------------------------------------
          |                Geometry Summary                 |
           -------------------------------------------------

      molecular mass/u    :      351.3152409
   center of mass at/Å    :       -0.1339530      -0.3254985       0.2149494
  moments of inertia/u·Å² :        0.9727428E+03   0.4747836E+04   0.5332694E+04
rotational constants/cm⁻¹ :        0.1733000E-01   0.3550593E-02   0.3161185E-02

 * 36 selected distances

     #   Z          #   Z                                           value/Å
     1   6 C        2   8 O                                       1.4143138
     2   8 O        3   6 C                                       1.3850450
     3   6 C        4   8 O                                       1.2290662
     5   6 C        6   6 C                                       1.4265615
     8   6 C        9   8 O                                       1.2415784
     8   6 C       10   7 N                                       1.3623435
    10   7 N       11   6 C                                       1.4551373
    13   6 C       14   6 C                                       1.5353784 (max)
    13   6 C       15   6 C                                       1.5300500
    13   6 C       16   7 N                                       1.4454028
    16   7 N       17   6 C                                       1.3711680
    17   6 C       19   6 C                                       1.4478641
    19   6 C       20   7 N                                       1.3252053
    21   7 N       22   6 C                                       1.2929829
    22   6 C       23   6 C                                       1.4831920
    19   6 C       24   8 O                                       1.3699442
    22   6 C       24   8 O                                       1.3513997
     5   6 C       25   7 N                                       1.3663447
    11   6 C       25   7 N                                       1.4077993
     1   6 C       26   1 H                                       1.0963539
     1   6 C       27   1 H                                       1.0903146
     1   6 C       28   1 H                                       1.0963871
    10   7 N       29   1 H                                       1.0067123 (min)
    12   6 C       30   1 H                                       1.0899351
    12   6 C       31   1 H                                       1.0872907
    12   6 C       32   1 H                                       1.0873706
    14   6 C       33   1 H                                       1.0900083
    14   6 C       34   1 H                                       1.0896470
    14   6 C       35   1 H                                       1.0900883
    15   6 C       36   1 H                                       1.0872912
    15   6 C       37   1 H                                       1.0900505
    15   6 C       38   1 H                                       1.0914583
    16   7 N       39   1 H                                       1.0124154
    23   6 C       40   1 H                                       1.0876500
    23   6 C       41   1 H                                       1.0900683
    23   6 C       42   1 H                                       1.0903336

 * 5 distinct bonds (by element types)

   Z      Z             #   av. dist./Å        max./Å        min./Å
   1 H    6 C          15     1.0902832     1.0963871     1.0872907
   6 C    6 C           5     1.4846092     1.5353784     1.4265615
   1 H    7 N           2     1.0095639     1.0124154     1.0067123
   6 C    7 N           8     1.3782980     1.4551373     1.2929829
   6 C    8 O           6     1.3318912     1.4143138     1.2290662


optimized geometry written to: xtbopt.xyz


           -------------------------------------------------
          | TOTAL ENERGY              -83.625276162791 Eh   |
          | GRADIENT NORM               0.000982990073 Eh/α |
          | HOMO-LUMO GAP               0.284539375550 eV   |
           -------------------------------------------------

------------------------------------------------------------------------
 * finished run on 2023/06/21 at 17:15:33.246     
------------------------------------------------------------------------
 total:
 * wall-time:     0 d,  0 h,  0 min, 13.824 sec
 *  cpu-time:     0 d,  0 h,  0 min, 13.637 sec
 * ratio c/w:     0.987 speedup
 SCF:
 * wall-time:     0 d,  0 h,  0 min,  0.230 sec
 *  cpu-time:     0 d,  0 h,  0 min,  0.210 sec
 * ratio c/w:     0.913 speedup
 ANC optimizer:
 * wall-time:     0 d,  0 h,  0 min, 13.466 sec
 *  cpu-time:     0 d,  0 h,  0 min, 13.373 sec
 * ratio c/w:     0.993 speedup

