47
 energy: -80.191947131356 gnorm: 0.000271884658 xtb: 6.5.1 (579679a)
C            5.83719120737088        1.78441342334567        0.73797759353016
C            5.16286851777868        0.61282740636928       -0.03647797281194
C            6.03736774071145       -0.61998744264545        0.01559314745724
C            5.68705518691236       -1.67285204116125        0.79073232362629
F            6.56280257251908       -2.72312628203706        0.86828522511889
C            4.47336489988001       -1.81398181621243        1.47738268795061
C            3.52144829844361       -0.79717436373611        1.26714194093436
C            3.78344598400560        0.32507802856325        0.53288836631342
C            2.70967867572161        1.35073140567727        0.26428150185376
N            1.49956826023638        0.70840808680645       -0.26348906770320
C            0.29138153033720        0.87866138321011        0.30823268599881
O            0.09368946101332        1.68718356210064        1.22003205689385
C           -0.82383642802161        0.06772100508108       -0.26225392573105
N           -2.07224517475099        0.53979454328426        0.05197803623766
C           -3.15276791261000       -0.03016940579801       -0.37048230206102
C           -4.46306916497896        0.61098266346548        0.07493595282753
C           -4.99197099859442       -0.13286206953635        1.31058343968796
C           -4.20218401924136        2.08153527208586        0.44490454468221
N           -5.46075318533306        0.54635386972846       -0.99049516849948
N           -3.12087919951655       -1.17500675391147       -1.13558340381038
C           -4.31542489921017       -1.86557811954670       -1.61538972285876
C           -1.90382704227271       -1.72733286828140       -1.52978529529855
O           -1.84294010598974       -2.73936796224385       -2.24148564818957
C           -0.72893727669228       -1.05707838440716       -1.04952975695928
O            0.45182592492395       -1.62567439074082       -1.42032641809890
H            5.94970944833133        1.52213530859590        1.79047681401003
H            5.23225004648403        2.68869991865967        0.66350178276376
H            6.82343491859089        1.98872128729088        0.32015434331625
H            5.07214826341212        0.95499363702212       -1.08464631567853
H            6.97027069943207       -0.60840027505288       -0.53412752861701
H            4.25698902164200       -2.69602524379533        2.06297967347192
H            2.52449929257938       -0.93143091577879        1.68511231388542
H            2.41503433620743        1.89723365648343        1.17054542439015
H            3.05960117016590        2.08893911395820       -0.46933867401209
H            1.63509532066047        0.00749430184356       -0.97373427023275
H           -5.24943992594890       -1.16268227014969        1.06932597756165
H           -5.88464598762615        0.36627783732217        1.68461642442827
H           -4.23516156412089       -0.13507672963970        2.09483457123146
H           -3.49881411565520        2.14813278187764        1.27480888283838
H           -5.13987263010068        2.55313076789484        0.73283005130956
H           -3.78774115673630        2.61477836869394       -0.40985408618374
H           -5.22978396970792        1.21401959591572       -1.71493544927580
H           -6.36236574671170        0.80584582241705       -0.61756737263420
H           -5.07120386619027       -1.90463205103498       -0.83698952382557
H           -4.03166710367044       -2.87956015941627       -1.89928278427846
H           -4.72400032088810       -1.34743804867771       -2.48249878622955
H            0.24281301721611       -2.39865745389861       -1.97586128933089
