42
 energy: -83.000422859873 gnorm: 0.000961601110 xtb: 6.5.1 (579679a)
C           -3.49466077632539        2.48483169004640        0.53208032702528
O           -2.99286083906749        1.21064024895942        0.09433153336888
C           -3.79911030871825        0.17830099109405        0.24677599927938
O           -4.91016095046176        0.22748290804573        0.69879473093071
C           -3.14634050799712       -1.13965542292694       -0.25883680870809
C           -4.05360375419543       -2.31329378286278        0.12491904363624
N           -1.88311769336101       -1.27689621618056        0.42625200069681
C           -0.78035675935309       -1.06900778208081       -0.16054786186384
C            0.52128397080580       -1.28881598948312        0.58358291145676
C            1.07092888212062       -2.65535383003552        0.14658921109564
C            0.28698238183970       -1.24147648592830        2.09570961318132
N            1.44200240121214       -0.21849333675046        0.18912018625739
C            2.73562763758385       -0.17109197005459        0.59315883023111
O            3.32875987444682       -1.05211973604947        1.18472524120839
C            3.35840566954346        1.11484157079378        0.19048765214276
N            2.75163448935133        2.11208034159287       -0.38066899005028
N            3.68467756268990        3.08625128097524       -0.56476582746665
C            4.80281395021726        2.62168739418399       -0.09308482031933
C            6.12042240738223        3.29400709882278       -0.06875167898897
O            4.65998280291823        1.38234805767569        0.39861666812716
N           -0.65939397921191       -0.71199455770021       -1.49645618608327
C           -1.70410006841051       -0.60857708183846       -2.36490329323417
O           -1.56168058351865       -0.27671651012204       -3.51959189682528
C           -3.06338052086465       -0.99106562343815       -1.76757723572791
O           -4.02134920466377       -1.15141026028056       -2.47871638176926
H           -2.69177872234693        3.20201001158501        0.38152080338474
H           -4.37040401744389        2.75992806140302       -0.05901518743774
H           -3.76740821200695        2.43089833176837        1.58747531968676
H           -3.59084604560640       -3.24759423424215       -0.18481210355627
H           -4.19377922057983       -2.32169880686774        1.20352735493818
H           -5.01911586318008       -2.20369114939067       -0.36597787602435
H            1.32042473407166       -2.63583684968122       -0.91294196238552
H            1.96172429003837       -2.90534032292428        0.71905694421253
H            0.31279330493743       -3.41776035520142        0.32079908082590
H            1.22412410335168       -1.41862246619963        2.62011716717069
H           -0.43342262204422       -2.00823153951339        2.37548368903120
H           -0.10633461223706       -0.26694674470091        2.37986905254344
H            1.04139376015548        0.64563071494077       -0.14591868675718
H            6.58316719319675        3.17303083331126        0.90986000218469
H            5.99649118756275        4.35131398871708       -0.29280925229416
H            6.77935579125315        2.84550198760123       -0.81385297216298
H            0.26020986691469       -0.52909445706153       -1.86953734096012
