16
 energy: -34.208351221176 gnorm: 0.000523351974 xtb: 6.5.1 (579679a)
C            3.23223978651913       -0.28237688814236        0.08676904428602
C            1.77234878286091       -0.30049375485829       -0.14754038188609
N            1.15445515916152       -0.57561441789456       -1.25823261182423
N           -0.17285930459854       -0.47171621546502       -0.99908361653611
C           -0.29196811626201       -0.13801635298535        0.25307315871833
C           -1.55117398760579        0.09185651338079        0.99730171086281
C           -2.78566451189828       -0.06384532310501        0.16288773432419
O           -1.55730389141745        0.37653472412304        2.17325615766221
Cl          -2.27462150396893        2.51093080492174       -2.40541099445478
O            0.91938653996097       -0.01814399660939        0.84149387840729
H            3.53294954838287        0.67792533775121        0.50413840939283
H            3.75594701799201       -0.45666155811299       -0.84953793172481
H            3.50320734939637       -1.05810587691048        0.80233223622628
H           -3.67258772584242        0.03477388202308        0.78284974578113
H           -2.78651113347147        0.70599492938143       -0.61253609976493
H           -2.77784500921174       -1.03304280750662       -0.33176143949767
