21
 energy: -31.459004129650 gnorm: 0.000937150720 xtb: 6.5.1 (579679a)
C            2.53346837230988        1.07467595677637        0.60141553887610
C            1.59998382247213        0.32952061097071       -0.40793931126234
C            0.16297404519683        0.80347901133340       -0.29861723144193
C           -0.83500013575016        0.04691816023136        0.25954694890046
C           -2.22485427320228        0.63749563819728        0.39047675234619
N           -3.10685955965559        0.13315850043283       -0.68022731853521
C           -0.64684410223126       -1.29466916601687        0.65224199505768
C            0.61069420210792       -1.88644371775875        0.37387554348231
C            1.60631931420744       -1.14890150692265       -0.16282698292269
F            2.80654191898220       -1.77506227829527       -0.50218719474042
H            2.20085062631878        0.89006869426724        1.62352670881227
H            2.50568305598701        2.14882601209059        0.41392729751670
H            3.56192088280667        0.72485559560586        0.49681281261108
H            2.00934363712248        0.55113709887557       -1.41477923946599
H           -0.03114852137072        1.81926592961884       -0.63575036934726
H           -2.19293971956730        1.73102242555003        0.30711428009806
H           -2.65196103924790        0.38858869020857        1.37640144035780
H           -3.19710540012481       -0.87078085308880       -0.57016938286100
H           -4.02707251033562        0.52396062091794       -0.53636357189562
H           -1.44975682074969       -1.87933320806721        1.08438721560114
H            0.76576120472398       -2.94778221492733        0.55238006881240
