13
 energy: -19.065248868811 gnorm: 0.000587248079 xtb: 6.5.1 (579679a)
C            1.97644400072492       -0.43082902278386       -0.14515516018307
O            0.54897095319996       -0.66060407916791        0.04939230460495
B           -0.46654647540558        0.39743650949090        0.17821214854836
C           -1.94106098664957       -0.06775299145241        0.27812821221560
O            0.08507350921514        1.60493548545053        0.17251078311940
H            2.51887577898233       -1.16005823897205        0.45260589282038
H            2.17801334930951        0.58128871520745        0.19852127382816
H            2.20708908945734       -0.53474318215249       -1.20499216539445
H            0.28418227267625       -1.58549702323188       -0.03832441718105
H           -2.54312222039657        0.63945294432719        0.84602001987778
H           -2.03092335190012       -1.05116566743262        0.73431855761345
H           -2.37351099493380       -0.13178421012161       -0.72149408658706
H           -0.44348492427996        2.39932076083910        0.24891063671744
