      -----------------------------------------------------------      
     |                   =====================                   |     
     |                           x T B                           |     
     |                   =====================                   |     
     |                         S. Grimme                         |     
     |          Mulliken Center for Theoretical Chemistry        |     
     |                    University of Bonn                     |     
      -----------------------------------------------------------      

   * xtb version 6.5.1 (579679a) compiled by 'ehlert@majestix' on 2022-07-11

   xtb is free software: you can redistribute it and/or modify it under
   the terms of the GNU Lesser General Public License as published by
   the Free Software Foundation, either version 3 of the License, or
   (at your option) any later version.
   
   xtb is distributed in the hope that it will be useful,
   but WITHOUT ANY WARRANTY; without even the implied warranty of
   MERCHANTABILITY or FITNESS FOR A PARTICULAR PURPOSE.  See the
   GNU Lesser General Public License for more details.
   
   Cite this work as:
   * C. Bannwarth, E. Caldeweyher, S. Ehlert, A. Hansen, P. Pracht,
     J. Seibert, S. Spicher, S. Grimme, WIREs Comput. Mol. Sci., 2020, 11,
     e01493. DOI: 10.1002/wcms.1493
   
   for GFN2-xTB:
   * C. Bannwarth, S. Ehlert and S. Grimme., J. Chem. Theory Comput., 2019,
     15, 1652-1671. DOI: 10.1021/acs.jctc.8b01176
   for GFN1-xTB:
   * S. Grimme, C. Bannwarth, P. Shushkov, J. Chem. Theory Comput., 2017,
     13, 1989-2009. DOI: 10.1021/acs.jctc.7b00118
   for GFN0-xTB:
   * P. Pracht, E. Caldeweyher, S. Ehlert, S. Grimme, ChemRxiv, 2019, preprint.
     DOI: 10.26434/chemrxiv.8326202.v1
   for GFN-FF:
   * S. Spicher and S. Grimme, Angew. Chem. Int. Ed., 2020, 59, 15665-15673.
     DOI: 10.1002/anie.202004239
   
   for ALPB and GBSA implicit solvation:
   * S. Ehlert, M. Stahn, S. Spicher, S. Grimme, J. Chem. Theory Comput.,
     2021, 17, 4250-4261. DOI: 10.1021/acs.jctc.1c00471
   
   for DFT-D4:
   * E. Caldeweyher, C. Bannwarth and S. Grimme, J. Chem. Phys., 2017,
     147, 034112. DOI: 10.1063/1.4993215
   * E. Caldeweyher, S. Ehlert, A. Hansen, H. Neugebauer, S. Spicher,
     C. Bannwarth and S. Grimme, J. Chem. Phys., 2019, 150, 154122.
     DOI: 10.1063/1.5090222
   * E. Caldeweyher, J.-M. Mewes, S. Ehlert and S. Grimme, Phys. Chem. Chem. Phys.
     2020, 22, 8499-8512. DOI: 10.1039/D0CP00502A
   
   for sTDA-xTB:
   * S. Grimme and C. Bannwarth, J. Chem. Phys., 2016, 145, 054103.
     DOI: 10.1063/1.4959605
   
   in the mass-spec context:
   * V. Asgeirsson, C. Bauer and S. Grimme, Chem. Sci., 2017, 8, 4879.
     DOI: 10.1039/c7sc00601b
   * J. Koopman and S. Grimme, ACS Omega 2019, 4, 12, 15120-15133.
     DOI: 10.1021/acsomega.9b02011
   
   for metadynamics refer to:
   * S. Grimme, J. Chem. Theory Comput., 2019, 155, 2847-2862
     DOI: 10.1021/acs.jctc.9b00143
   
   for SPH calculations refer to:
   * S. Spicher and S. Grimme, J. Chem. Theory Comput., 2021, 17, 1701-1714
     DOI: 10.1021/acs.jctc.0c01306
   
   with help from (in alphabetical order)
   P. Atkinson, C. Bannwarth, F. Bohle, G. Brandenburg, E. Caldeweyher
   M. Checinski, S. Dohm, S. Ehlert, S. Ehrlich, I. Gerasimov, C. Hölzer
   A. Katbashev, J. Koopman, C. Lavigne, S. Lehtola, F. März, M. Müller,
   F. Musil, H. Neugebauer, J. Pisarek, C. Plett, P. Pracht, F. Pultar,
   J. Seibert, P. Shushkov, S. Spicher, M. Stahn, M. Steiner, T. Strunk,
   J. Stückrath, T. Rose, and J. Unsleber
   
 * started run on 2023/06/21 at 17:43:43.109     

           -------------------------------------------------
          |                Calculation Setup                |
           -------------------------------------------------

          program call               : /lustre/hpc/kemi/ree/PhD/git/ReactivityQM/dep/xtb-6.5.1/bin/xtb --gfn 1 /lustre/hpc/kemi/ree/PhD/git/ReactivityQM/calculations/R02methylcation/reac01prodN11/conf05/R02methylcation_reac01prodN11_conf05_gfn1.xyz --opt --vfukui --chrg 0 --uhf 0 --alpb DMSO
          hostname                   : node317
          coordinate file            : /lustre/hpc/kemi/ree/PhD/git/ReactivityQM/calculations/R02methylcation/reac01prodN11/conf05/R02methylcation_reac01prodN11_conf05_gfn1.xyz
          omp threads                :                     1

   ID    Z sym.   atoms
    1    6 C      1, 3, 5, 7-10, 12, 13, 15, 18, 19, 22, 24
    2    8 O      2, 4, 14, 20, 23, 25
    3    7 N      6, 11, 16, 17, 21
    4    1 H      26-42

           -------------------------------------------------
          |                 G F N 1 - x T B                 |
           -------------------------------------------------

        Reference                      10.1021/acs.jctc.7b00118
      * Hamiltonian:
        H0-scaling (s, p, d)           1.850000    2.250000    2.000000
        zeta-weighting                 0.000000
      * Dispersion:
        s8                             2.400000
        a1                             0.630000
        a2                             5.000000
        s9                             0.000000
      * Repulsion:
        kExp                           1.500000
        rExp                           1.000000
      * Coulomb:
        alpha                          2.000000
        third order                    atomic
        anisotropic                    false
      * Halogen bond correction:
        rad-scale                      1.300000
        damping                        0.440000

      * Solvation model:               ALPB
        Solvent                        DMSO
        Parameter file                 internal GFN1-xTB/ALPB
        Dielectric constant                4.6680E+01
        Reference state                gsolv [1 M gas/solution]
        Free energy shift                  7.6243E-03 Eh       4.7843E+00 kcal/mol
        Temperature                        2.9815E+02 K
        Density                            1.1000E+00 kg/L
        Solvent mass                       7.8130E+01 g/mol
        Interaction kernel             P16
        Born radius scaling (c1)           1.7672E+00
        Born radii integrator          GBOBC
        Born offset                        0.0000E+00 a0       0.0000E+00 AA
        H-bond correction              true
        Ion screening                  false
        Surface tension                    1.0000E-05 Eh       1.5569E+01 dyn/cm
        Grid points                               230 per atom

          ...................................................
          :                      SETUP                      :
          :.................................................:
          :  # basis functions                 134          :
          :  # atomic orbitals                 134          :
          :  # shells                           84          :
          :  # electrons                       134          :
          :  # halogen bonds                     0          :
          :  max. iterations                   250          :
          :  Hamiltonian                  GFN1-xTB          :
          :  restarted?                      false          :
          :  GBSA solvation                   true          :
          :  PC potential                    false          :
          :  electronic temp.          300.0000000     K    :
          :  accuracy                    1.0000000          :
          :  -> integral cutoff          0.2500000E+02      :
          :  -> integral neglect         0.1000000E-07      :
          :  -> SCF convergence          0.1000000E-05 Eh   :
          :  -> wf. convergence          0.2000000E-04 e    :
          :  Broyden damping             0.4000000          :
          ...................................................

 iter      E             dE          RMSdq      gap      omega  full diag
   1    -83.1236091 -0.831236E+02  0.845E+00    0.07       0.0  T
   2    -83.2798129 -0.156204E+00  0.548E+00    0.26       1.0  T
   3    -83.3419436 -0.621307E-01  0.312E+00    0.64       1.0  T
   4    -83.0975847  0.244359E+00  0.293E+00    0.99       1.0  T
   5    -83.4816080 -0.384023E+00  0.129E+00    0.48       1.0  T
   6    -83.3785669  0.103041E+00  0.158E+00    0.18       1.0  T
   7    -83.5015465 -0.122980E+00  0.108E+00    0.46       1.0  T
   8    -83.5443101 -0.427636E-01  0.793E-01    0.16       1.0  T
   9    -83.5800764 -0.357664E-01  0.599E-01    0.08       1.0  T
  10    -83.5678247  0.122517E-01  0.641E-01    0.11       1.0  T
  11    -83.5545391  0.132856E-01  0.681E-01    0.09       1.0  T
  12    -83.6070530 -0.525139E-01  0.241E-01    0.04       1.0  T
  13    -83.6034403  0.361277E-02  0.268E-01    0.05       1.0  T
  14    -83.5880178  0.154225E-01  0.440E-01    0.05       1.0  T
  15    -83.6089937 -0.209759E-01  0.148E-01    0.04       1.0  T
  16    -83.6113470 -0.235325E-02  0.314E-02    0.03       1.0  T
  17    -83.6113511 -0.414032E-05  0.288E-02    0.03       1.0  T
  18    -83.6114178 -0.666726E-04  0.993E-03    0.03       1.6  T
  19    -83.6114277 -0.989608E-05  0.321E-03    0.03       4.8  T
  20    -83.6114287 -0.101557E-05  0.631E-04    0.03      24.5  T
  21    -83.6114287 -0.856291E-08  0.575E-04    0.03      26.8  T
  22    -83.6114287 -0.216732E-07  0.383E-04    0.03      40.3  T
  23    -83.6114288 -0.174650E-07  0.570E-05    0.03     270.6  T
  24    -83.6114288 -0.153008E-09  0.243E-05    0.03     634.1  T

   *** convergence criteria satisfied after 24 iterations ***

         #    Occupation            Energy/Eh            Energy/eV
      -------------------------------------------------------------
         1        2.0000           -0.8681629             -23.6239
       ...           ...                  ...                  ...
        61        2.0000           -0.4849919             -13.1973
        62        2.0000           -0.4634607             -12.6114
        63        2.0000           -0.4515453             -12.2872
        64        2.0000           -0.4468509             -12.1594
        65        2.0000           -0.4447845             -12.1032
        66        1.9999           -0.4380341             -11.9195
        67        1.2677           -0.4293567             -11.6834 (HOMO)
        68        0.7324           -0.4283140             -11.6550 (LUMO)
        69                         -0.3362977              -9.1511
        70                         -0.3090042              -8.4084
        71                         -0.2827153              -7.6931
        72                         -0.2552401              -6.9454
       ...                                ...                  ...
       134                          0.7452850              20.2802
      -------------------------------------------------------------
                  HL-Gap            0.0010426 Eh            0.0284 eV
             Fermi-level           -0.4288352 Eh          -11.6692 eV

 SCC (total)                   0 d,  0 h,  0 min,  0.230 sec
 SCC setup                      ...        0 min,  0.002 sec (  0.945%)
 Dispersion                     ...        0 min,  0.000 sec (  0.185%)
 classical contributions        ...        0 min,  0.000 sec (  0.056%)
 integral evaluation            ...        0 min,  0.045 sec ( 19.596%)
 iterations                     ...        0 min,  0.098 sec ( 42.660%)
 molecular gradient             ...        0 min,  0.083 sec ( 36.029%)
 printout                       ...        0 min,  0.001 sec (  0.501%)

         :::::::::::::::::::::::::::::::::::::::::::::::::::::
         ::                     SUMMARY                     ::
         :::::::::::::::::::::::::::::::::::::::::::::::::::::
         :: total energy             -82.863472367171 Eh    ::
         :: total w/o Gsasa/hb       -82.842865898891 Eh    ::
         :: gradient norm              0.118752813153 Eh/a0 ::
         :: HOMO-LUMO gap              0.028371845895 eV    ::
         ::.................................................::
         :: SCC energy               -83.611428760699 Eh    ::
         :: -> electrostatic           0.376572601578 Eh    ::
         :: -> Gsolv                  -0.062748546076 Eh    ::
         ::    -> Gelec               -0.042142077797 Eh    ::
         ::    -> Gsasa               -0.024170251324 Eh    ::
         ::    -> Ghb                 -0.004060495960 Eh    ::
         ::    -> Gshift               0.007624279005 Eh    ::
         :: repulsion energy           0.774132678898 Eh    ::
         :: dispersion energy         -0.026176285370 Eh    ::
         :: halogen bond corr.         0.000000000000 Eh    ::
         :: add. restraining           0.000000000000 Eh    ::
         :: total charge               0.000000000001 e     ::
         :::::::::::::::::::::::::::::::::::::::::::::::::::::

      ----------------------------------------------------------- 
     |                   =====================                   |
     |                        A N C O P T                        |
     |                   =====================                   |
     |               Approximate Normal Coordinate               |
     |                Rational Function Optimizer                |
      ----------------------------------------------------------- 

          ...................................................
          :                      SETUP                      :
          :.................................................:
          :   optimization level            normal          :
          :   max. optcycles                   200          :
          :   ANC micro-cycles                  20          :
          :   degrees of freedom               120          :
          :.................................................:
          :   RF solver                   davidson          :
          :   write xtbopt.log                true          :
          :   linear?                        false          :
          :   energy convergence         0.5000000E-05 Eh   :
          :   grad. convergence          0.1000000E-02 Eh/α :
          :   maximium RF displ.         1.0000000          :
          :   Hlow (freq-cutoff)         0.1000000E-01      :
          :   Hmax (freq-cutoff)         5.0000000          :
          :   S6 in model hess.         20.0000000          :
          ...................................................

generating ANC from model Hessian ...
Using Lindh-Hessian (1995)
 Shifting diagonal of input Hessian by   9.812397682682219E-003
 Lowest  eigenvalues of input Hessian
    0.000000    0.000000    0.000000    0.000000    0.000000    0.000000
    0.010000    0.010183    0.010637    0.010742    0.012199    0.012587
    0.012896    0.013019    0.014511    0.014619    0.015431    0.016952
 Highest eigenvalues
    1.980491    2.094290    2.099470    2.235466    2.359499    2.459357
 

........................................................................
.............................. CYCLE    1 ..............................
........................................................................
   1    -83.6114288 -0.836114E+02  0.575E-06    0.03       0.0  T
   2    -83.6114288  0.139657E-08  0.108E-04    0.03     143.4  T
   3    -83.6114288 -0.139892E-08  0.422E-06    0.03    3656.1  T
     SCC iter.                  ...        0 min,  0.011 sec
     gradient                   ...        0 min,  0.084 sec
 * total energy  :   -82.8634724 Eh     change       -0.7059953E-10 Eh
   gradient norm :     0.1187525 Eh/α   predicted     0.0000000E+00 (-100.00%)
   displ. norm   :     0.3063374 α      lambda       -0.1532459E-01
   maximum displ.:     0.1027387 α      in ANC's #22, #7, #6, ...

........................................................................
.............................. CYCLE    2 ..............................
........................................................................
   1    -83.6257355 -0.836257E+02  0.943E-02    0.04       0.0  T
   2    -83.5679344  0.578011E-01  0.703E-01    0.13       1.0  T
   3    -83.6236429 -0.557084E-01  0.169E-01    0.04       1.0  T
   4    -83.6213366  0.230629E-02  0.211E-01    0.05       1.0  T
   5    -83.6260543 -0.471769E-02  0.653E-02    0.04       1.0  T
   6    -83.6264618 -0.407541E-03  0.407E-03    0.04       3.8  T
   7    -83.6264283  0.335390E-04  0.167E-02    0.04       1.0  T
   8    -83.6264596 -0.313210E-04  0.457E-03    0.04       3.4  T
   9    -83.6264621 -0.248745E-05  0.735E-04    0.04      21.0  T
  10    -83.6264621 -0.521137E-07  0.306E-04    0.04      50.4  T
  11    -83.6264621 -0.329909E-08  0.254E-04    0.04      60.7  T
  12    -83.6264621 -0.750217E-08  0.521E-05    0.04     296.4  T
  13    -83.6264621 -0.262119E-09  0.214E-05    0.04     721.1  T
     SCC iter.                  ...        0 min,  0.047 sec
     gradient                   ...        0 min,  0.082 sec
 * total energy  :   -82.8748192 Eh     change       -0.1134680E-01 Eh
   gradient norm :     0.0661249 Eh/α   predicted    -0.8392785E-02 ( -26.03%)
   displ. norm   :     0.3510913 α      lambda       -0.8810844E-02
   maximum displ.:     0.1598117 α      in ANC's #22, #7, #6, ...

........................................................................
.............................. CYCLE    3 ..............................
........................................................................
   1    -83.6287624 -0.836288E+02  0.280E-01    0.06       0.0  T
   2    -83.5284386  0.100324E+00  0.104E+00    0.50       1.0  T
   3    -83.5727821 -0.443435E-01  0.749E-01    0.16       1.0  T
   4    -83.5994124 -0.266303E-01  0.580E-01    0.11       1.0  T
   5    -83.5962228  0.318962E-02  0.588E-01    0.08       1.0  T
   6    -83.6023013 -0.607852E-02  0.544E-01    0.08       1.0  T
   7    -83.6175701 -0.152688E-01  0.424E-01    0.09       1.0  T
   8    -83.6384822 -0.209121E-01  0.944E-02    0.06       1.0  T
   9    -83.6391088 -0.626590E-03  0.573E-02    0.06       1.0  T
  10    -83.6394430 -0.334160E-03  0.194E-02    0.05       1.0  T
  11    -83.6394316  0.113306E-04  0.193E-02    0.05       1.0  T
  12    -83.6394730 -0.413574E-04  0.370E-03    0.05       4.2  T
  13    -83.6394723  0.747272E-06  0.391E-03    0.05       3.9  T
  14    -83.6394739 -0.165771E-05  0.142E-03    0.05      10.9  T
  15    -83.6394741 -0.206598E-06  0.582E-04    0.05      26.5  T
  16    -83.6394742 -0.415948E-07  0.470E-05    0.05     328.3  T
  17    -83.6394742  0.167489E-09  0.579E-05    0.05     266.3  T
     SCC iter.                  ...        0 min,  0.062 sec
     gradient                   ...        0 min,  0.083 sec
 * total energy  :   -82.8803001 Eh     change       -0.5480924E-02 Eh
   gradient norm :     0.0199109 Eh/α   predicted    -0.4948459E-02 (  -9.71%)
   displ. norm   :     0.2924043 α      lambda       -0.1936164E-02
   maximum displ.:     0.1706106 α      in ANC's #7, #6, #22, ...

........................................................................
.............................. CYCLE    4 ..............................
........................................................................
   1    -83.6345847 -0.836346E+02  0.228E-01    0.07       0.0  T
   2    -83.5353007  0.992840E-01  0.989E-01    0.49       1.0  T
   3    -83.6006447 -0.653440E-01  0.577E-01    0.12       1.0  T
   4    -83.6273347 -0.266900E-01  0.341E-01    0.08       1.0  T
   5    -83.6400039 -0.126692E-01  0.105E-01    0.06       1.0  T
   6    -83.6411124 -0.110853E-02  0.531E-02    0.06       1.0  T
   7    -83.6414217 -0.309273E-03  0.727E-03    0.06       2.1  T
   8    -83.6413565  0.651350E-04  0.233E-02    0.06       1.0  T
   9    -83.6414107 -0.541704E-04  0.104E-02    0.06       1.5  T
  10    -83.6414241 -0.134316E-04  0.388E-04    0.06      39.8  T
  11    -83.6414239  0.226523E-06  0.137E-03    0.06      11.3  T
  12    -83.6414241 -0.233560E-06  0.124E-04    0.06     124.2  T
  13    -83.6414241  0.601347E-08  0.253E-04    0.06      60.9  T
  14    -83.6414241 -0.788644E-08  0.263E-05    0.06     586.5  T
     SCC iter.                  ...        0 min,  0.052 sec
     gradient                   ...        0 min,  0.083 sec
 * total energy  :   -82.8817230 Eh     change       -0.1422862E-02 Eh
   gradient norm :     0.0143197 Eh/α   predicted    -0.1051007E-02 ( -26.13%)
   displ. norm   :     0.3697549 α      lambda       -0.1449085E-02
   maximum displ.:     0.2491216 α      in ANC's #7, #6, #22, ...

........................................................................
.............................. CYCLE    5 ..............................
........................................................................
   1    -83.6297039 -0.836297E+02  0.314E-01    0.08       0.0  T
   2    -83.5254715  0.104232E+00  0.106E+00    0.52       1.0  T
   3    -83.5767592 -0.512877E-01  0.733E-01    0.17       1.0  T
   4    -83.6260752 -0.493161E-01  0.364E-01    0.09       1.0  T
   5    -83.6367870 -0.107118E-01  0.208E-01    0.07       1.0  T
   6    -83.6403363 -0.354934E-02  0.123E-01    0.07       1.0  T
   7    -83.6421089 -0.177261E-02  0.385E-02    0.07       1.0  T
   8    -83.6422185 -0.109587E-03  0.231E-02    0.07       1.0  T
   9    -83.6422584 -0.398436E-04  0.144E-02    0.07       1.1  T
  10    -83.6422837 -0.252781E-04  0.232E-03    0.07       6.6  T
  11    -83.6422839 -0.207849E-06  0.192E-03    0.07       8.0  T
  12    -83.6422843 -0.462575E-06  0.109E-04    0.07     141.1  T
  13    -83.6422843  0.115567E-08  0.145E-04    0.07     106.2  T
     SCC iter.                  ...        0 min,  0.049 sec
     gradient                   ...        0 min,  0.084 sec
 * total energy  :   -82.8827701 Eh     change       -0.1047135E-02 Eh
   gradient norm :     0.0147886 Eh/α   predicted    -0.8236030E-03 ( -21.35%)
   displ. norm   :     0.3559653 α      lambda       -0.9000262E-03
   maximum displ.:     0.2606706 α      in ANC's #7, #6, #22, ...

........................................................................
.............................. CYCLE    6 ..............................
........................................................................
   1    -83.6291352 -0.836291E+02  0.339E-01    0.09       0.0  T
   2    -83.5212103  0.107925E+00  0.109E+00    0.52       1.0  T
   3    -83.5730904 -0.518801E-01  0.761E-01    0.18       1.0  T
   4    -83.6317652 -0.586748E-01  0.310E-01    0.08       1.0  T
   5    -83.6411983 -0.943303E-02  0.137E-01    0.07       1.0  T
   6    -83.6426246 -0.142631E-02  0.860E-02    0.07       1.0  T
   7    -83.6434373 -0.812697E-03  0.330E-02    0.07       1.0  T
   8    -83.6435676 -0.130335E-03  0.263E-03    0.07       5.9  T
   9    -83.6435536  0.140022E-04  0.109E-02    0.07       1.4  T
  10    -83.6435674 -0.137790E-04  0.289E-03    0.07       5.3  T
  11    -83.6435682 -0.806681E-06  0.141E-03    0.07      11.0  T
  12    -83.6435684 -0.248240E-06  0.101E-04    0.07     152.7  T
  13    -83.6435684 -0.109139E-08  0.429E-05    0.07     359.3  T
     SCC iter.                  ...        0 min,  0.056 sec
     gradient                   ...        0 min,  0.084 sec
 * total energy  :   -82.8834264 Eh     change       -0.6563455E-03 Eh
   gradient norm :     0.0126674 Eh/α   predicted    -0.5070352E-03 ( -22.75%)
   displ. norm   :     0.3099720 α      lambda       -0.5682908E-03
   maximum displ.:     0.2333546 α      in ANC's #7, #6, #5, ...

........................................................................
.............................. CYCLE    7 ..............................
........................................................................
   1    -83.6320157 -0.836320E+02  0.333E-01    0.09       0.0  T
   2    -83.5205350  0.111481E+00  0.110E+00    0.52       1.0  T
   3    -83.5773503 -0.568154E-01  0.750E-01    0.17       1.0  T
   4    -83.6359324 -0.585821E-01  0.285E-01    0.08       1.0  T
   5    -83.6455465 -0.961405E-02  0.540E-02    0.07       1.0  T
   6    -83.6457856 -0.239064E-03  0.290E-02    0.07       1.0  T
   7    -83.6458077 -0.221570E-04  0.265E-02    0.07       1.0  T
   8    -83.6458743 -0.665770E-04  0.121E-02    0.07       1.3  T
   9    -83.6458881 -0.137830E-04  0.603E-03    0.07       2.6  T
  10    -83.6458921 -0.403733E-05  0.201E-03    0.07       7.7  T
  11    -83.6458926 -0.476938E-06  0.493E-04    0.07      31.3  T
  12    -83.6458926 -0.264227E-07  0.186E-04    0.07      83.0  T
  13    -83.6458926 -0.384857E-08  0.574E-05    0.07     268.9  T
     SCC iter.                  ...        0 min,  0.050 sec
     gradient                   ...        0 min,  0.083 sec
 * total energy  :   -82.8838316 Eh     change       -0.4051517E-03 Eh
   gradient norm :     0.0087989 Eh/α   predicted    -0.3114480E-03 ( -23.13%)
   displ. norm   :     0.2259540 α      lambda       -0.2816294E-03
   maximum displ.:     0.1691284 α      in ANC's #7, #6, #15, ...

........................................................................
.............................. CYCLE    8 ..............................
........................................................................
   1    -83.6402065 -0.836402E+02  0.251E-01    0.09       0.0  T
   2    -83.5285460  0.111661E+00  0.105E+00    0.50       1.0  T
   3    -83.6096773 -0.811313E-01  0.558E-01    0.12       1.0  T
   4    -83.6419746 -0.322973E-01  0.224E-01    0.08       1.0  T
   5    -83.6480874 -0.611283E-02  0.145E-02    0.08       1.1  T
   6    -83.6480917 -0.428804E-05  0.107E-02    0.08       1.4  T
   7    -83.6480905  0.114232E-05  0.112E-02    0.08       1.4  T
   8    -83.6481046 -0.141017E-04  0.223E-03    0.08       6.9  T
   9    -83.6481050 -0.372582E-06  0.110E-03    0.08      14.0  T
  10    -83.6481052 -0.139907E-06  0.275E-04    0.08      56.1  T
  11    -83.6481052 -0.885451E-08  0.582E-05    0.08     265.1  T
  12    -83.6481052  0.230548E-08  0.148E-04    0.08     104.1  T
     SCC iter.                  ...        0 min,  0.043 sec
     gradient                   ...        0 min,  0.051 sec
 * total energy  :   -82.8840228 Eh     change       -0.1912014E-03 Eh
   gradient norm :     0.0057784 Eh/α   predicted    -0.1480053E-03 ( -22.59%)
   displ. norm   :     0.1382357 α      lambda       -0.1125466E-03
   maximum displ.:     0.0968495 α      in ANC's #7, #1, #15, ...

........................................................................
.............................. CYCLE    9 ..............................
........................................................................
   1    -83.6471959 -0.836472E+02  0.129E-01    0.08       0.0  T
   2    -83.5462985  0.100897E+00  0.937E-01    0.30       1.0  T
   3    -83.6460833 -0.997848E-01  0.161E-01    0.08       1.0  T
   4    -83.6492087 -0.312535E-02  0.241E-02    0.08       1.0  T
   5    -83.6492636 -0.549033E-04  0.597E-03    0.08       2.6  T
   6    -83.6492644 -0.792537E-06  0.605E-03    0.08       2.6  T
   7    -83.6492674 -0.301212E-05  0.263E-03    0.08       5.9  T
   8    -83.6492682 -0.813464E-06  0.319E-04    0.08      48.4  T
   9    -83.6492682 -0.272587E-08  0.274E-04    0.08      56.3  T
  10    -83.6492682  0.116187E-08  0.289E-04    0.08      53.3  T
  11    -83.6492682 -0.879015E-08  0.117E-04    0.08     132.3  T
  12    -83.6492682 -0.160125E-08  0.286E-05    0.08     539.4  T
     SCC iter.                  ...        0 min,  0.042 sec
     gradient                   ...        0 min,  0.070 sec
 * total energy  :   -82.8841009 Eh     change       -0.7806466E-04 Eh
   gradient norm :     0.0040575 Eh/α   predicted    -0.5735397E-04 ( -26.53%)
   displ. norm   :     0.1054585 α      lambda       -0.6654292E-04
   maximum displ.:     0.0571400 α      in ANC's #7, #1, #3, ...

........................................................................
.............................. CYCLE   10 ..............................
........................................................................
   1    -83.6495913 -0.836496E+02  0.418E-02    0.08       0.0  T
   2    -83.6099869  0.396044E-01  0.569E-01    0.12       1.0  T
   3    -83.6497847 -0.397978E-01  0.171E-02    0.08       1.0  T
   4    -83.6497425  0.421952E-04  0.221E-02    0.08       1.0  T
   5    -83.6497989 -0.564210E-04  0.471E-03    0.08       3.3  T
   6    -83.6498006 -0.167056E-05  0.224E-03    0.08       6.9  T
   7    -83.6498011 -0.516754E-06  0.294E-04    0.08      52.4  T
   8    -83.6498011 -0.955873E-08  0.738E-05    0.08     209.1  T
   9    -83.6498011 -0.338261E-09  0.514E-05    0.08     300.3  T
     SCC iter.                  ...        0 min,  0.033 sec
     gradient                   ...        0 min,  0.084 sec
 * total energy  :   -82.8841496 Eh     change       -0.4870588E-04 Eh
   gradient norm :     0.0029980 Eh/α   predicted    -0.3365409E-04 ( -30.90%)
   displ. norm   :     0.1298330 α      lambda       -0.6293493E-04
   maximum displ.:     0.0582883 α      in ANC's #1, #3, #7, ...

........................................................................
.............................. CYCLE   11 ..............................
........................................................................
   1    -83.6495602 -0.836496E+02  0.151E-02    0.08       0.0  T
   2    -83.6493979  0.162331E-03  0.425E-02    0.08       1.0  T
   3    -83.6484163  0.981597E-03  0.959E-02    0.08       1.0  T
   4    -83.6495579 -0.114161E-02  0.113E-02    0.08       1.4  T
   5    -83.6495716 -0.136668E-04  0.358E-03    0.08       4.3  T
   6    -83.6495730 -0.139119E-05  0.444E-04    0.08      34.7  T
   7    -83.6495730 -0.664338E-08  0.803E-05    0.08     192.1  T
   8    -83.6495730 -0.586283E-09  0.176E-05    0.08     877.6  T
     SCC iter.                  ...        0 min,  0.028 sec
     gradient                   ...        0 min,  0.082 sec
 * total energy  :   -82.8841960 Eh     change       -0.4642345E-04 Eh
   gradient norm :     0.0034690 Eh/α   predicted    -0.3200213E-04 ( -31.06%)
   displ. norm   :     0.1753384 α      lambda       -0.7029976E-04
   maximum displ.:     0.0804631 α      in ANC's #1, #6, #3, ...

........................................................................
.............................. CYCLE   12 ..............................
........................................................................
   1    -83.6490281 -0.836490E+02  0.494E-02    0.09       0.0  T
   2    -83.5991668  0.498613E-01  0.637E-01    0.14       1.0  T
   3    -83.6493226 -0.501557E-01  0.548E-03    0.08       2.8  T
   4    -83.6493226 -0.387372E-07  0.452E-03    0.09       3.4  T
   5    -83.6493222  0.418758E-06  0.421E-03    0.08       3.7  T
   6    -83.6493240 -0.175551E-05  0.811E-04    0.08      19.0  T
   7    -83.6493240 -0.642372E-07  0.244E-04    0.08      63.1  T
   8    -83.6493240 -0.614418E-08  0.984E-05    0.08     156.8  T
   9    -83.6493240 -0.108690E-08  0.173E-05    0.08     889.4  T
     SCC iter.                  ...        0 min,  0.026 sec
     gradient                   ...        0 min,  0.077 sec
 * total energy  :   -82.8842462 Eh     change       -0.5025153E-04 Eh
   gradient norm :     0.0047837 Eh/α   predicted    -0.3623641E-04 ( -27.89%)
   displ. norm   :     0.2135470 α      lambda       -0.7855128E-04
   maximum displ.:     0.0982628 α      in ANC's #1, #6, #3, ...

........................................................................
.............................. CYCLE   13 ..............................
........................................................................
   1    -83.6478651 -0.836479E+02  0.205E-02    0.09       0.0  T
   2    -83.6418863  0.597877E-02  0.219E-01    0.09       1.0  T
   3    -83.6477614 -0.587510E-02  0.374E-02    0.08       1.0  T
   4    -83.6479017 -0.140285E-03  0.279E-03    0.09       5.5  T
   5    -83.6479018 -0.929684E-07  0.153E-03    0.09      10.1  T
   6    -83.6479019 -0.159504E-06  0.404E-04    0.09      38.2  T
   7    -83.6479019 -0.139628E-07  0.975E-05    0.09     158.3  T
   8    -83.6479019 -0.926704E-09  0.167E-05    0.09     926.4  T
     SCC iter.                  ...        0 min,  0.030 sec
     gradient                   ...        0 min,  0.074 sec
 * total energy  :   -82.8842994 Eh     change       -0.5321365E-04 Eh
   gradient norm :     0.0061971 Eh/α   predicted    -0.4106952E-04 ( -22.82%)
   displ. norm   :     0.1881602 α      lambda       -0.9176099E-04
   maximum displ.:     0.0969208 α      in ANC's #6, #1, #3, ...

........................................................................
.............................. CYCLE   14 ..............................
........................................................................
   1    -83.6479984 -0.836480E+02  0.414E-02    0.09       0.0  T
   2    -83.6084485  0.395500E-01  0.567E-01    0.13       1.0  T
   3    -83.6482032 -0.397548E-01  0.873E-03    0.09       1.8  T
   4    -83.6482095 -0.631166E-05  0.536E-03    0.09       2.9  T
   5    -83.6482105 -0.905834E-06  0.250E-03    0.09       6.2  T
   6    -83.6482110 -0.558388E-06  0.592E-04    0.09      26.1  T
   7    -83.6482110  0.415194E-07  0.636E-04    0.09      24.2  T
   8    -83.6482110 -0.474225E-07  0.103E-04    0.09     149.5  T
   9    -83.6482110 -0.121030E-08  0.176E-05    0.09     875.9  T
     SCC iter.                  ...        0 min,  0.031 sec
     gradient                   ...        0 min,  0.078 sec
 * total energy  :   -82.8843678 Eh     change       -0.6833637E-04 Eh
   gradient norm :     0.0056039 Eh/α   predicted    -0.4750511E-04 ( -30.48%)
   displ. norm   :     0.2018333 α      lambda       -0.1108122E-03
   maximum displ.:     0.0981435 α      in ANC's #1, #6, #3, ...

........................................................................
.............................. CYCLE   15 ..............................
........................................................................
   1    -83.6488152 -0.836488E+02  0.368E-02    0.09       0.0  T
   2    -83.6161459  0.326692E-01  0.516E-01    0.12       1.0  T
   3    -83.6489765 -0.328306E-01  0.578E-03    0.09       2.7  T
   4    -83.6489797 -0.315033E-05  0.189E-03    0.09       8.2  T
   5    -83.6489789  0.746473E-06  0.281E-03    0.09       5.5  T
   6    -83.6489798 -0.832008E-06  0.785E-04    0.09      19.7  T
   7    -83.6489798 -0.261847E-07  0.679E-05    0.09     227.1  T
   8    -83.6489798  0.369511E-09  0.671E-05    0.09     229.8  T
     SCC iter.                  ...        0 min,  0.029 sec
     gradient                   ...        0 min,  0.077 sec
 * total energy  :   -82.8844478 Eh     change       -0.7999040E-04 Eh
   gradient norm :     0.0041620 Eh/α   predicted    -0.5766685E-04 ( -27.91%)
   displ. norm   :     0.2815523 α      lambda       -0.9260280E-04
   maximum displ.:     0.1383989 α      in ANC's #1, #3, #6, ...

........................................................................
.............................. CYCLE   16 ..............................
........................................................................
   1    -83.6474640 -0.836475E+02  0.730E-02    0.09       0.0  T
   2    -83.5721287  0.753354E-01  0.791E-01    0.18       1.0  T
   3    -83.6478510 -0.757224E-01  0.479E-02    0.09       1.0  T
   4    -83.6481224 -0.271388E-03  0.115E-02    0.08       1.3  T
   5    -83.6481315 -0.911505E-05  0.418E-03    0.09       3.7  T
   6    -83.6481329 -0.132370E-05  0.283E-03    0.09       5.5  T
   7    -83.6481337 -0.810327E-06  0.481E-04    0.09      32.1  T
   8    -83.6481337 -0.255470E-07  0.135E-04    0.09     114.0  T
   9    -83.6481337 -0.200303E-08  0.338E-05    0.09     455.9  T
     SCC iter.                  ...        0 min,  0.032 sec
     gradient                   ...        0 min,  0.081 sec
 * total energy  :   -82.8845125 Eh     change       -0.6471720E-04 Eh
   gradient norm :     0.0057178 Eh/α   predicted    -0.4997225E-04 ( -22.78%)
   displ. norm   :     0.2326129 α      lambda       -0.1148975E-03
   maximum displ.:     0.1192409 α      in ANC's #1, #3, #6, ...

........................................................................
.............................. CYCLE   17 ..............................
........................................................................
   1    -83.6493260 -0.836493E+02  0.101E-01    0.09       0.0  T
   2    -83.5565728  0.927532E-01  0.886E-01    0.24       1.0  T
   3    -83.6488121 -0.922393E-01  0.121E-01    0.09       1.0  T
   4    -83.6505122 -0.170004E-02  0.316E-02    0.08       1.0  T
   5    -83.6505904 -0.782116E-04  0.180E-02    0.08       1.0  T
   6    -83.6506288 -0.383981E-04  0.516E-03    0.08       3.0  T
   7    -83.6506313 -0.248708E-05  0.204E-03    0.08       7.6  T
   8    -83.6506318 -0.503779E-06  0.362E-04    0.08      42.6  T
   9    -83.6506318 -0.154377E-07  0.666E-05    0.08     231.6  T
  10    -83.6506318  0.786287E-09  0.994E-05    0.08     155.2  T
     SCC iter.                  ...        0 min,  0.036 sec
     gradient                   ...        0 min,  0.081 sec
 * total energy  :   -82.8845782 Eh     change       -0.6572209E-04 Eh
   gradient norm :     0.0056185 Eh/α   predicted    -0.6056061E-04 (  -7.85%)
   displ. norm   :     0.3310869 α      lambda       -0.8741477E-04
   maximum displ.:     0.1690884 α      in ANC's #1, #3, #6, ...

........................................................................
.............................. CYCLE   18 ..............................
........................................................................
   1    -83.6468501 -0.836469E+02  0.712E-02    0.09       0.0  T
   2    -83.5725107  0.743393E-01  0.784E-01    0.18       1.0  T
   3    -83.6473277 -0.748169E-01  0.348E-02    0.08       1.0  T
   4    -83.6474546 -0.126905E-03  0.133E-02    0.08       1.2  T
   5    -83.6474749 -0.203164E-04  0.219E-03    0.08       7.0  T
   6    -83.6474749 -0.438976E-07  0.115E-03    0.08      13.4  T
   7    -83.6474750 -0.153774E-07  0.687E-04    0.08      22.5  T
   8    -83.6474750 -0.516061E-07  0.255E-04    0.08      60.5  T
   9    -83.6474750 -0.798065E-08  0.158E-05    0.08     976.8  T
  10    -83.6474750 -0.436273E-11  0.105E-05    0.08    1472.2  T
     SCC iter.                  ...        0 min,  0.035 sec
     gradient                   ...        0 min,  0.082 sec
 * total energy  :   -82.8846233 Eh     change       -0.4510902E-04 Eh
   gradient norm :     0.0073690 Eh/α   predicted    -0.4849919E-04 (   7.52%)
   displ. norm   :     0.0917596 α      lambda       -0.1001222E-03
   maximum displ.:     0.0495757 α      in ANC's #1, #2, #7, ...

........................................................................
.............................. CYCLE   19 ..............................
........................................................................
   1    -83.6488918 -0.836489E+02  0.844E-03    0.09       0.0  T
   2    -83.6476844  0.120749E-02  0.986E-02    0.09       1.0  T
   3    -83.6488872 -0.120281E-02  0.975E-03    0.09       1.6  T
   4    -83.6488972 -0.100085E-04  0.283E-03    0.09       5.4  T
   5    -83.6488973 -0.971665E-07  0.223E-03    0.09       6.9  T
   6    -83.6488975 -0.230748E-06  0.242E-04    0.09      63.7  T
   7    -83.6488975  0.439887E-08  0.219E-04    0.09      70.4  T
   8    -83.6488975 -0.589033E-08  0.246E-05    0.09     628.2  T
   9    -83.6488975 -0.127045E-10  0.227E-05    0.09     678.5  T
     SCC iter.                  ...        0 min,  0.033 sec
     gradient                   ...        0 min,  0.078 sec
 * total energy  :   -82.8846945 Eh     change       -0.7117767E-04 Eh
   gradient norm :     0.0036257 Eh/α   predicted    -0.5048391E-04 ( -29.07%)
   displ. norm   :     0.2694504 α      lambda       -0.1033487E-03
   maximum displ.:     0.1437713 α      in ANC's #1, #6, #3, ...

........................................................................
.............................. CYCLE   20 ..............................
........................................................................
   1    -83.6492406 -0.836492E+02  0.437E-02    0.08       0.0  T
   2    -83.6104474  0.387931E-01  0.561E-01    0.13       1.0  T
   3    -83.6494348 -0.389874E-01  0.189E-02    0.09       1.0  T
   4    -83.6494619 -0.270780E-04  0.299E-03    0.08       5.2  T
   5    -83.6494624 -0.509424E-06  0.160E-03    0.09       9.6  T
   6    -83.6494625 -0.635336E-07  0.825E-04    0.09      18.7  T
   7    -83.6494625 -0.304640E-07  0.355E-04    0.09      43.5  T
   8    -83.6494625 -0.139445E-07  0.714E-05    0.09     216.1  T
   9    -83.6494625 -0.488285E-10  0.683E-05    0.09     225.8  T
     SCC iter.                  ...        0 min,  0.032 sec
     gradient                   ...        0 min,  0.079 sec
 * total energy  :   -82.8847646 Eh     change       -0.7011574E-04 Eh
   gradient norm :     0.0055058 Eh/α   predicted    -0.5542791E-04 ( -20.95%)
   displ. norm   :     0.2162134 α      lambda       -0.8474383E-04
   maximum displ.:     0.1155033 α      in ANC's #1, #2, #8, ...
 * RMSD in coord.:     0.4955175 α      energy gain  -0.2129225E-01 Eh

generating ANC from model Hessian ...
Using Lindh-Hessian (1995)
 Shifting diagonal of input Hessian by   9.822088030331395E-003
 Lowest  eigenvalues of input Hessian
    0.000000    0.000000    0.000000    0.000000    0.000000    0.000000
    0.010000    0.010117    0.010595    0.010710    0.011873    0.012403
    0.012811    0.012900    0.014332    0.014415    0.015049    0.016984
 Highest eigenvalues
    2.048977    2.102010    2.129525    2.249156    2.391617    2.404450
 

........................................................................
.............................. CYCLE   21 ..............................
........................................................................
   1    -83.6493702 -0.836494E+02  0.458E-02    0.08       0.0  T
   2    -83.6053571  0.440131E-01  0.597E-01    0.13       1.0  T
   3    -83.6496069 -0.442498E-01  0.180E-02    0.09       1.0  T
   4    -83.6496174 -0.105314E-04  0.101E-02    0.08       1.5  T
   5    -83.6496299 -0.124710E-04  0.837E-04    0.08      18.4  T
   6    -83.6496296  0.324496E-06  0.178E-03    0.08       8.7  T
   7    -83.6496298 -0.291402E-06  0.602E-04    0.08      25.7  T
   8    -83.6496299 -0.430191E-07  0.756E-05    0.08     204.2  T
   9    -83.6496299 -0.471161E-09  0.311E-05    0.08     495.6  T
     SCC iter.                  ...        0 min,  0.032 sec
     gradient                   ...        0 min,  0.081 sec
 * total energy  :   -82.8848273 Eh     change       -0.6270204E-04 Eh
   gradient norm :     0.0052399 Eh/α   predicted     0.0000000E+00 (-100.00%)
   displ. norm   :     0.0368038 α      lambda       -0.3680011E-04
   maximum displ.:     0.0188407 α      in ANC's #10, #7, #2, ...

........................................................................
.............................. CYCLE   22 ..............................
........................................................................
   1    -83.6500587 -0.836501E+02  0.117E-02    0.08       0.0  T
   2    -83.6460628  0.399592E-02  0.179E-01    0.09       1.0  T
   3    -83.6500735 -0.401073E-02  0.404E-03    0.08       3.8  T
   4    -83.6500747 -0.112538E-05  0.209E-03    0.08       7.4  T
   5    -83.6500750 -0.381796E-06  0.105E-03    0.08      14.6  T
   6    -83.6500751 -0.181019E-07  0.538E-04    0.08      28.7  T
   7    -83.6500751 -0.205528E-07  0.251E-04    0.08      61.5  T
   8    -83.6500751 -0.770139E-08  0.430E-05    0.08     359.0  T
   9    -83.6500751 -0.228937E-09  0.338E-06    0.08    4558.7  T
     SCC iter.                  ...        0 min,  0.032 sec
     gradient                   ...        0 min,  0.079 sec
 * total energy  :   -82.8848684 Eh     change       -0.4108210E-04 Eh
   gradient norm :     0.0029940 Eh/α   predicted    -0.2541404E-04 ( -38.14%)
   displ. norm   :     0.1003484 α      lambda       -0.7790530E-04
   maximum displ.:     0.0528157 α      in ANC's #10, #7, #2, ...

........................................................................
.............................. CYCLE   23 ..............................
........................................................................
   1    -83.6502477 -0.836502E+02  0.446E-02    0.08       0.0  T
   2    -83.6061007  0.441469E-01  0.598E-01    0.13       1.0  T
   3    -83.6504363 -0.443356E-01  0.249E-02    0.08       1.0  T
   4    -83.6504802 -0.438972E-04  0.133E-02    0.08       1.2  T
   5    -83.6505005 -0.202776E-04  0.183E-03    0.08       8.4  T
   6    -83.6505000  0.473540E-06  0.234E-03    0.08       6.6  T
   7    -83.6505004 -0.346015E-06  0.129E-03    0.08      12.0  T
   8    -83.6505006 -0.191666E-06  0.353E-04    0.08      43.7  T
   9    -83.6505006 -0.145403E-07  0.589E-05    0.08     262.0  T
  10    -83.6505006 -0.280892E-09  0.314E-05    0.08     491.7  T
     SCC iter.                  ...        0 min,  0.035 sec
     gradient                   ...        0 min,  0.079 sec
 * total energy  :   -82.8849180 Eh     change       -0.4956844E-04 Eh
   gradient norm :     0.0019843 Eh/α   predicted    -0.3934519E-04 ( -20.62%)
   displ. norm   :     0.1195955 α      lambda       -0.2905948E-04
   maximum displ.:     0.0635166 α      in ANC's #7, #10, #2, ...

........................................................................
.............................. CYCLE   24 ..............................
........................................................................
   1    -83.6498887 -0.836499E+02  0.576E-02    0.08       0.0  T
   2    -83.5895178  0.603709E-01  0.702E-01    0.16       1.0  T
   3    -83.6501652 -0.606475E-01  0.379E-02    0.08       1.0  T
   4    -83.6502616 -0.963485E-04  0.201E-02    0.08       1.0  T
   5    -83.6503099 -0.483601E-04  0.298E-03    0.08       5.2  T
   6    -83.6503099  0.683728E-07  0.328E-03    0.08       4.7  T
   7    -83.6503106 -0.732139E-06  0.188E-03    0.08       8.2  T
   8    -83.6503110 -0.413859E-06  0.418E-04    0.08      36.9  T
   9    -83.6503110 -0.193429E-07  0.118E-04    0.08     131.2  T
  10    -83.6503110 -0.149952E-08  0.352E-05    0.08     438.8  T
     SCC iter.                  ...        0 min,  0.035 sec
     gradient                   ...        0 min,  0.079 sec
 * total energy  :   -82.8849490 Eh     change       -0.3100409E-04 Eh
   gradient norm :     0.0034019 Eh/α   predicted    -0.1462227E-04 ( -52.84%)
   displ. norm   :     0.1181285 α      lambda       -0.3991339E-04
   maximum displ.:     0.0638950 α      in ANC's #7, #10, #2, ...

........................................................................
.............................. CYCLE   25 ..............................
........................................................................
   1    -83.6496952 -0.836497E+02  0.487E-02    0.08       0.0  T
   2    -83.6000711  0.496241E-01  0.635E-01    0.14       1.0  T
   3    -83.6499422 -0.498711E-01  0.245E-02    0.08       1.0  T
   4    -83.6499688 -0.265274E-04  0.142E-02    0.08       1.1  T
   5    -83.6499934 -0.246104E-04  0.863E-04    0.08      17.9  T
   6    -83.6499928  0.590453E-06  0.242E-03    0.08       6.4  T
   7    -83.6499933 -0.525806E-06  0.101E-03    0.08      15.2  T
   8    -83.6499934 -0.123162E-06  0.516E-05    0.08     298.9  T
   9    -83.6499934  0.988081E-10  0.555E-05    0.08     277.8  T
     SCC iter.                  ...        0 min,  0.032 sec
     gradient                   ...        0 min,  0.079 sec
 * total energy  :   -82.8849823 Eh     change       -0.3334088E-04 Eh
   gradient norm :     0.0032485 Eh/α   predicted    -0.2023711E-04 ( -39.30%)
   displ. norm   :     0.2585661 α      lambda       -0.7297458E-04
   maximum displ.:     0.1398836 α      in ANC's #7, #10, #2, ...

........................................................................
.............................. CYCLE   26 ..............................
........................................................................
   1    -83.6478294 -0.836478E+02  0.834E-02    0.08       0.0  T
   2    -83.5658728  0.819567E-01  0.824E-01    0.20       1.0  T
   3    -83.6481482 -0.822755E-01  0.744E-02    0.09       1.0  T
   4    -83.6485264 -0.378181E-03  0.377E-02    0.08       1.0  T
   5    -83.6486660 -0.139624E-03  0.159E-02    0.08       1.0  T
   6    -83.6486941 -0.280205E-04  0.628E-03    0.08       2.5  T
   7    -83.6486975 -0.340097E-05  0.286E-03    0.08       5.4  T
   8    -83.6486984 -0.923326E-06  0.528E-04    0.08      29.2  T
   9    -83.6486984 -0.284363E-07  0.220E-04    0.08      70.1  T
  10    -83.6486984 -0.559223E-08  0.454E-05    0.08     340.1  T
  11    -83.6486984 -0.217014E-09  0.192E-05    0.08     805.6  T
     SCC iter.                  ...        0 min,  0.038 sec
     gradient                   ...        0 min,  0.079 sec
 * total energy  :   -82.8850237 Eh     change       -0.4142471E-04 Eh
   gradient norm :     0.0044817 Eh/α   predicted    -0.3894175E-04 (  -5.99%)
   displ. norm   :     0.0543510 α      lambda       -0.3173056E-04
   maximum displ.:     0.0266962 α      in ANC's #7, #6, #2, ...

........................................................................
.............................. CYCLE   27 ..............................
........................................................................
   1    -83.6496046 -0.836496E+02  0.699E-03    0.08       0.0  T
   2    -83.6483719  0.123271E-02  0.992E-02    0.08       1.0  T
   3    -83.6496061 -0.123422E-02  0.660E-03    0.08       2.3  T
   4    -83.6496085 -0.240123E-05  0.381E-03    0.08       4.1  T
   5    -83.6496100 -0.148194E-05  0.710E-04    0.08      21.7  T
   6    -83.6496100  0.890310E-09  0.374E-04    0.08      41.2  T
   7    -83.6496100 -0.130431E-07  0.134E-04    0.08     115.0  T
   8    -83.6496100 -0.216006E-08  0.313E-05    0.08     492.6  T
     SCC iter.                  ...        0 min,  0.028 sec
     gradient                   ...        0 min,  0.079 sec
 * total energy  :   -82.8850497 Eh     change       -0.2593483E-04 Eh
   gradient norm :     0.0028589 Eh/α   predicted    -0.1591313E-04 ( -38.64%)
   displ. norm   :     0.2166592 α      lambda       -0.6789884E-04
   maximum displ.:     0.1060970 α      in ANC's #7, #6, #2, ...

........................................................................
.............................. CYCLE   28 ..............................
........................................................................
   1    -83.6501476 -0.836501E+02  0.240E-02    0.08       0.0  T
   2    -83.6353215  0.148260E-01  0.344E-01    0.10       1.0  T
   3    -83.6501838 -0.148623E-01  0.206E-02    0.08       1.0  T
   4    -83.6502140 -0.301736E-04  0.611E-03    0.08       2.5  T
   5    -83.6502179 -0.385087E-05  0.198E-03    0.08       7.8  T
   6    -83.6502182 -0.298179E-06  0.638E-04    0.08      24.2  T
   7    -83.6502182 -0.107499E-07  0.250E-04    0.08      61.7  T
   8    -83.6502182 -0.590589E-08  0.129E-04    0.08     120.0  T
   9    -83.6502182 -0.200330E-08  0.222E-05    0.08     696.3  T
     SCC iter.                  ...        0 min,  0.031 sec
     gradient                   ...        0 min,  0.079 sec
 * total energy  :   -82.8851033 Eh     change       -0.5366531E-04 Eh
   gradient norm :     0.0028307 Eh/α   predicted    -0.3554285E-04 ( -33.77%)
   displ. norm   :     0.3412479 α      lambda       -0.8725566E-04
   maximum displ.:     0.1568278 α      in ANC's #7, #6, #3, ...

........................................................................
.............................. CYCLE   29 ..............................
........................................................................
   1    -83.6488981 -0.836489E+02  0.551E-02    0.08       0.0  T
   2    -83.5921506  0.567475E-01  0.678E-01    0.15       1.0  T
   3    -83.6490576 -0.569069E-01  0.458E-02    0.08       1.0  T
   4    -83.6492726 -0.215031E-03  0.847E-03    0.08       1.8  T
   5    -83.6492808 -0.824505E-05  0.140E-03    0.08      11.0  T
   6    -83.6492808 -0.187174E-07  0.843E-04    0.08      18.3  T
   7    -83.6492808  0.397872E-07  0.691E-04    0.08      22.3  T
   8    -83.6492809 -0.465612E-07  0.321E-04    0.08      48.0  T
   9    -83.6492809 -0.128157E-07  0.158E-05    0.08     973.7  T
  10    -83.6492809  0.161720E-10  0.138E-05    0.08    1120.8  T
     SCC iter.                  ...        0 min,  0.045 sec
     gradient                   ...        0 min,  0.082 sec
 * total energy  :   -82.8851630 Eh     change       -0.5965216E-04 Eh
   gradient norm :     0.0053959 Eh/α   predicted    -0.4871100E-04 ( -18.34%)
   displ. norm   :     0.2278324 α      lambda       -0.1056223E-03
   maximum displ.:     0.1237881 α      in ANC's #3, #6, #5, ...

........................................................................
.............................. CYCLE   30 ..............................
........................................................................
   1    -83.6493643 -0.836494E+02  0.137E-01    0.08       0.0  T
   2    -83.5458240  0.103540E+00  0.949E-01    0.32       1.0  T
   3    -83.6453992 -0.995752E-01  0.225E-01    0.09       1.0  T
   4    -83.6512889 -0.588969E-02  0.639E-02    0.08       1.0  T
   5    -83.6516191 -0.330160E-03  0.364E-02    0.08       1.0  T
   6    -83.6517859 -0.166804E-03  0.644E-03    0.08       2.4  T
   7    -83.6517833  0.261133E-05  0.758E-03    0.08       2.0  T
   8    -83.6517899 -0.667976E-05  0.207E-03    0.08       7.5  T
   9    -83.6517905 -0.516523E-06  0.404E-04    0.08      38.2  T
  10    -83.6517905 -0.149467E-07  0.195E-04    0.08      79.1  T
  11    -83.6517905 -0.477739E-08  0.158E-05    0.08     975.9  T
     SCC iter.                  ...        0 min,  0.038 sec
     gradient                   ...        0 min,  0.081 sec
 * total energy  :   -82.8852083 Eh     change       -0.4530857E-04 Eh
   gradient norm :     0.0059650 Eh/α   predicted    -0.5556547E-04 (  22.64%)
   displ. norm   :     0.3284769 α      lambda       -0.8977509E-04
   maximum displ.:     0.1439415 α      in ANC's #6, #7, #3, ...

........................................................................
.............................. CYCLE   31 ..............................
........................................................................
   1    -83.6480942 -0.836481E+02  0.346E-02    0.08       0.0  T
   2    -83.6210906  0.270036E-01  0.464E-01    0.10       1.0  T
   3    -83.6482077 -0.271172E-01  0.170E-02    0.08       1.0  T
   4    -83.6482110 -0.330116E-05  0.111E-02    0.08       1.4  T
   5    -83.6482228 -0.118017E-04  0.363E-03    0.08       4.2  T
   6    -83.6482227  0.149134E-06  0.272E-03    0.08       5.7  T
   7    -83.6482235 -0.861735E-06  0.145E-04    0.08     106.3  T
   8    -83.6482235  0.184592E-08  0.154E-04    0.08     100.0  T
     SCC iter.                  ...        0 min,  0.028 sec
     gradient                   ...        0 min,  0.060 sec
 * total energy  :   -82.8852521 Eh     change       -0.4381738E-04 Eh
   gradient norm :     0.0081691 Eh/α   predicted    -0.4973016E-04 (  13.49%)
   displ. norm   :     0.0482354 α      lambda       -0.7383593E-04
   maximum displ.:     0.0227313 α      in ANC's #6, #7, #8, ...

........................................................................
.............................. CYCLE   32 ..............................
........................................................................
   1    -83.6493400 -0.836493E+02  0.327E-02    0.08       0.0  T
   2    -83.6213611  0.279789E-01  0.473E-01    0.11       1.0  T
   3    -83.6494676 -0.281065E-01  0.686E-03    0.08       2.2  T
   4    -83.6494696 -0.204571E-05  0.458E-03    0.08       3.4  T
   5    -83.6494711 -0.148922E-05  0.128E-03    0.08      12.0  T
   6    -83.6494711 -0.297180E-07  0.727E-04    0.08      21.2  T
   7    -83.6494712 -0.235301E-07  0.342E-04    0.08      45.2  T
   8    -83.6494712 -0.110271E-07  0.159E-04    0.08      97.1  T
   9    -83.6494712 -0.307321E-08  0.126E-05    0.08    1226.5  T
     SCC iter.                  ...        0 min,  0.028 sec
     gradient                   ...        0 min,  0.069 sec
 * total energy  :   -82.8853058 Eh     change       -0.5368748E-04 Eh
   gradient norm :     0.0047962 Eh/α   predicted    -0.3700521E-04 ( -31.07%)
   displ. norm   :     0.2305789 α      lambda       -0.9475100E-04
   maximum displ.:     0.1375571 α      in ANC's #3, #6, #2, ...

........................................................................
.............................. CYCLE   33 ..............................
........................................................................
   1    -83.6491732 -0.836492E+02  0.142E-02    0.08       0.0  T
   2    -83.6473427  0.183049E-02  0.121E-01    0.08       1.0  T
   3    -83.6490555 -0.171271E-02  0.349E-02    0.08       1.0  T
   4    -83.6491878 -0.132306E-03  0.313E-03    0.08       4.9  T
   5    -83.6491881 -0.378297E-06  0.194E-03    0.08       7.9  T
   6    -83.6491883 -0.133113E-06  0.937E-04    0.08      16.5  T
   7    -83.6491883 -0.685960E-07  0.141E-04    0.08     109.3  T
   8    -83.6491883 -0.212492E-08  0.528E-05    0.08     292.2  T
     SCC iter.                  ...        0 min,  0.021 sec
     gradient                   ...        0 min,  0.047 sec
 * total energy  :   -82.8853687 Eh     change       -0.6292883E-04 Eh
   gradient norm :     0.0049473 Eh/α   predicted    -0.4989620E-04 ( -20.71%)
   displ. norm   :     0.1796760 α      lambda       -0.5932681E-04
   maximum displ.:     0.1221733 α      in ANC's #3, #2, #6, ...

........................................................................
.............................. CYCLE   34 ..............................
........................................................................
   1    -83.6496663 -0.836497E+02  0.187E-02    0.08       0.0  T
   2    -83.6429219  0.674442E-02  0.234E-01    0.08       1.0  T
   3    -83.6496308 -0.670895E-02  0.261E-02    0.08       1.0  T
   4    -83.6496861 -0.552681E-04  0.113E-02    0.08       1.4  T
   5    -83.6496979 -0.118575E-04  0.537E-03    0.08       2.9  T
   6    -83.6497004 -0.246225E-05  0.247E-03    0.08       6.2  T
   7    -83.6497011 -0.671770E-06  0.129E-04    0.08     119.2  T
   8    -83.6497011 -0.159221E-08  0.168E-05    0.08     919.4  T
     SCC iter.                  ...        0 min,  0.020 sec
     gradient                   ...        0 min,  0.044 sec
 * total energy  :   -82.8854143 Eh     change       -0.4556440E-04 Eh
   gradient norm :     0.0044421 Eh/α   predicted    -0.3062288E-04 ( -32.79%)
   displ. norm   :     0.3233792 α      lambda       -0.8265396E-04
   maximum displ.:     0.2137452 α      in ANC's #3, #2, #10, ...

........................................................................
.............................. CYCLE   35 ..............................
........................................................................
   1    -83.6485786 -0.836486E+02  0.446E-02    0.08       0.0  T
   2    -83.6054306  0.431480E-01  0.593E-01    0.12       1.0  T
   3    -83.6487923 -0.433617E-01  0.189E-02    0.08       1.0  T
   4    -83.6487629  0.294301E-04  0.206E-02    0.08       1.0  T
   5    -83.6488133 -0.503908E-04  0.339E-03    0.08       4.6  T
   6    -83.6488135 -0.266736E-06  0.229E-03    0.08       6.7  T
   7    -83.6488141 -0.558485E-06  0.734E-05    0.08     210.2  T
   8    -83.6488141  0.120076E-08  0.105E-04    0.08     147.0  T
     SCC iter.                  ...        0 min,  0.028 sec
     gradient                   ...        0 min,  0.082 sec
 * total energy  :   -82.8854716 Eh     change       -0.5728496E-04 Eh
   gradient norm :     0.0054872 Eh/α   predicted    -0.4565319E-04 ( -20.31%)
   displ. norm   :     0.2893668 α      lambda       -0.1384711E-03
   maximum displ.:     0.2216054 α      in ANC's #3, #10, #2, ...

........................................................................
.............................. CYCLE   36 ..............................
........................................................................
   1    -83.6517652 -0.836518E+02  0.579E-02    0.09       0.0  T
   2    -83.5964746  0.552907E-01  0.675E-01    0.14       1.0  T
   3    -83.6520341 -0.555595E-01  0.373E-02    0.08       1.0  T
   4    -83.6519448  0.893525E-04  0.400E-02    0.08       1.0  T
   5    -83.6521351 -0.190367E-03  0.368E-03    0.08       4.2  T
   6    -83.6521329  0.226999E-05  0.480E-03    0.08       3.2  T
   7    -83.6521354 -0.254963E-05  0.175E-04    0.08      88.2  T
   8    -83.6521354  0.977906E-09  0.156E-04    0.08      99.2  T
   9    -83.6521354 -0.200215E-08  0.764E-05    0.08     202.1  T
     SCC iter.                  ...        0 min,  0.031 sec
     gradient                   ...        0 min,  0.082 sec
 * total energy  :   -82.8855246 Eh     change       -0.5301349E-04 Eh
   gradient norm :     0.0062929 Eh/α   predicted    -0.7503899E-04 (  41.55%)
   displ. norm   :     0.3352289 α      lambda       -0.1060425E-03
   maximum displ.:     0.2237278 α      in ANC's #3, #10, #2, ...

........................................................................
.............................. CYCLE   37 ..............................
........................................................................
   1    -83.6482954 -0.836483E+02  0.629E-02    0.08       0.0  T
   2    -83.5827335  0.655619E-01  0.735E-01    0.16       1.0  T
   3    -83.6487448 -0.660114E-01  0.129E-02    0.08       1.2  T
   4    -83.6487611 -0.162411E-04  0.311E-03    0.08       5.0  T
   5    -83.6487610  0.767171E-07  0.194E-03    0.08       8.0  T
   6    -83.6487599  0.103263E-05  0.319E-03    0.08       4.8  T
   7    -83.6487610 -0.106796E-05  0.905E-04    0.08      17.1  T
   8    -83.6487611 -0.971841E-07  0.237E-04    0.08      65.0  T
   9    -83.6487611 -0.669311E-08  0.114E-05    0.08    1354.3  T
  10    -83.6487611 -0.132161E-11  0.504E-06    0.08    3063.6  T
     SCC iter.                  ...        0 min,  0.035 sec
     gradient                   ...        0 min,  0.082 sec
 * total energy  :   -82.8855811 Eh     change       -0.5652254E-04 Eh
   gradient norm :     0.0071026 Eh/α   predicted    -0.5898222E-04 (   4.35%)
   displ. norm   :     0.0557532 α      lambda       -0.8342889E-04
   maximum displ.:     0.0322977 α      in ANC's #6, #10, #5, ...

........................................................................
.............................. CYCLE   38 ..............................
........................................................................
   1    -83.6499945 -0.836500E+02  0.255E-02    0.08       0.0  T
   2    -83.6333143  0.166802E-01  0.366E-01    0.10       1.0  T
   3    -83.6500584 -0.167442E-01  0.130E-02    0.08       1.2  T
   4    -83.6500608 -0.235182E-05  0.817E-03    0.08       1.9  T
   5    -83.6500682 -0.743616E-05  0.204E-03    0.08       7.6  T
   6    -83.6500683 -0.109501E-06  0.132E-03    0.08      11.7  T
   7    -83.6500685 -0.190639E-06  0.136E-04    0.08     113.2  T
   8    -83.6500685 -0.174263E-08  0.508E-05    0.08     303.5  T
     SCC iter.                  ...        0 min,  0.029 sec
     gradient                   ...        0 min,  0.082 sec
 * total energy  :   -82.8856414 Eh     change       -0.6025730E-04 Eh
   gradient norm :     0.0058145 Eh/α   predicted    -0.4184353E-04 ( -30.56%)
   displ. norm   :     0.2848668 α      lambda       -0.1551572E-03
   maximum displ.:     0.1908860 α      in ANC's #3, #10, #2, ...

........................................................................
.............................. CYCLE   39 ..............................
........................................................................
   1    -83.6493541 -0.836494E+02  0.100E-01    0.08       0.0  T
   2    -83.5545885  0.947656E-01  0.894E-01    0.23       1.0  T
   3    -83.6495596 -0.949711E-01  0.910E-02    0.08       1.0  T
   4    -83.6505703 -0.101080E-02  0.110E-02    0.08       1.4  T
   5    -83.6505673  0.306869E-05  0.116E-02    0.08       1.3  T
   6    -83.6505803 -0.129929E-04  0.489E-03    0.08       3.2  T
   7    -83.6505829 -0.267045E-05  0.136E-03    0.08      11.3  T
   8    -83.6505832 -0.229610E-06  0.539E-05    0.08     286.1  T
   9    -83.6505832  0.157598E-09  0.498E-05    0.08     309.6  T
     SCC iter.                  ...        0 min,  0.034 sec
     gradient                   ...        0 min,  0.082 sec
 * total energy  :   -82.8857246 Eh     change       -0.8321320E-04 Eh
   gradient norm :     0.0062060 Eh/α   predicted    -0.8387061E-04 (   0.79%)
   displ. norm   :     0.2767847 α      lambda       -0.9630676E-04
   maximum displ.:     0.2065774 α      in ANC's #3, #10, #2, ...

........................................................................
.............................. CYCLE   40 ..............................
........................................................................
   1    -83.6494889 -0.836495E+02  0.511E-02    0.08       0.0  T
   2    -83.5947454  0.547435E-01  0.669E-01    0.13       1.0  T
   3    -83.6497940 -0.550486E-01  0.949E-03    0.08       1.6  T
   4    -83.6498015 -0.751992E-05  0.539E-03    0.08       2.9  T
   5    -83.6498037 -0.220308E-05  0.213E-03    0.08       7.2  T
   6    -83.6498040 -0.317107E-06  0.727E-04    0.08      21.2  T
   7    -83.6498041 -0.304267E-07  0.200E-04    0.08      77.2  T
   8    -83.6498041 -0.206198E-08  0.138E-04    0.08     111.7  T
   9    -83.6498041 -0.210454E-08  0.267E-05    0.08     578.9  T
     SCC iter.                  ...        0 min,  0.035 sec
     gradient                   ...        0 min,  0.082 sec
 * total energy  :   -82.8857825 Eh     change       -0.5786176E-04 Eh
   gradient norm :     0.0068093 Eh/α   predicted    -0.5184267E-04 ( -10.40%)
   displ. norm   :     0.1281240 α      lambda       -0.9004103E-04
   maximum displ.:     0.0799236 α      in ANC's #3, #6, #10, ...

........................................................................
.............................. CYCLE   41 ..............................
........................................................................
   1    -83.6527315 -0.836527E+02  0.124E-02    0.08       0.0  T
   2    -83.6523670  0.364492E-03  0.550E-02    0.08       1.0  T
   3    -83.6526414 -0.274416E-03  0.279E-02    0.08       1.0  T
   4    -83.6527326 -0.912365E-04  0.673E-03    0.08       2.3  T
   5    -83.6527351 -0.246402E-05  0.391E-03    0.08       3.9  T
   6    -83.6527368 -0.174910E-05  0.950E-04    0.08      16.2  T
   7    -83.6527369 -0.631120E-07  0.301E-04    0.08      51.3  T
   8    -83.6527369 -0.103009E-07  0.560E-05    0.08     275.7  T
   9    -83.6527369 -0.118987E-09  0.417E-05    0.08     369.8  T
     SCC iter.                  ...        0 min,  0.033 sec
     gradient                   ...        0 min,  0.083 sec
 * total energy  :   -82.8858096 Eh     change       -0.2714117E-04 Eh
   gradient norm :     0.0043201 Eh/α   predicted    -0.4576093E-04 (  68.60%)
   displ. norm   :     0.3067170 α      lambda       -0.9129826E-04
   maximum displ.:     0.2283510 α      in ANC's #3, #10, #2, ...

........................................................................
.............................. CYCLE   42 ..............................
........................................................................
   1    -83.6501979 -0.836502E+02  0.435E-02    0.08       0.0  T
   2    -83.6052426  0.449552E-01  0.606E-01    0.12       1.0  T
   3    -83.6504137 -0.451710E-01  0.117E-02    0.08       1.3  T
   4    -83.6504211 -0.745218E-05  0.730E-03    0.08       2.1  T
   5    -83.6504261 -0.500243E-05  0.338E-03    0.08       4.6  T
   6    -83.6504267 -0.572644E-06  0.123E-03    0.08      12.6  T
   7    -83.6504269 -0.156530E-06  0.170E-04    0.08      90.7  T
   8    -83.6504269  0.675726E-09  0.175E-04    0.08      88.2  T
     SCC iter.                  ...        0 min,  0.037 sec
     gradient                   ...        0 min,  0.083 sec
 * total energy  :   -82.8858614 Eh     change       -0.5176297E-04 Eh
   gradient norm :     0.0034389 Eh/α   predicted    -0.4994783E-04 (  -3.51%)
   displ. norm   :     0.0791730 α      lambda       -0.3169874E-04
   maximum displ.:     0.0516468 α      in ANC's #3, #4, #8, ...
 * RMSD in coord.:     0.5667216 α      energy gain  -0.1096739E-02 Eh

generating ANC from model Hessian ...
Using Lindh-Hessian (1995)
 Shifting diagonal of input Hessian by   9.823605397028970E-003
 Lowest  eigenvalues of input Hessian
    0.000000    0.000000    0.000000    0.000000    0.000000    0.000000
    0.010000    0.010153    0.010515    0.010750    0.011831    0.012310
    0.012926    0.013150    0.014349    0.014486    0.015203    0.016881
 Highest eigenvalues
    2.058356    2.103467    2.136387    2.250393    2.392283    2.406875
 

........................................................................
.............................. CYCLE   43 ..............................
........................................................................
   1    -83.6509054 -0.836509E+02  0.128E-02    0.08       0.0  T
   2    -83.6456225  0.528292E-02  0.207E-01    0.08       1.0  T
   3    -83.6509243 -0.530174E-02  0.334E-03    0.08       4.6  T
   4    -83.6509252 -0.894136E-06  0.228E-03    0.08       6.8  T
   5    -83.6509254 -0.200645E-06  0.930E-04    0.08      16.6  T
   6    -83.6509254 -0.460660E-07  0.409E-04    0.08      37.7  T
   7    -83.6509254 -0.107111E-07  0.124E-04    0.08     124.3  T
   8    -83.6509254 -0.143856E-08  0.596E-05    0.08     258.8  T
     SCC iter.                  ...        0 min,  0.030 sec
     gradient                   ...        0 min,  0.083 sec
 * total energy  :   -82.8858872 Eh     change       -0.2580124E-04 Eh
   gradient norm :     0.0029622 Eh/α   predicted     0.0000000E+00 (-100.00%)
   displ. norm   :     0.0271301 α      lambda       -0.2556494E-04
   maximum displ.:     0.0141167 α      in ANC's #7, #6, #4, ...

........................................................................
.............................. CYCLE   44 ..............................
........................................................................
   1    -83.6520646 -0.836521E+02  0.536E-03    0.08       0.0  T
   2    -83.6514081  0.656467E-03  0.728E-02    0.08       1.0  T
   3    -83.6520669 -0.658835E-03  0.191E-03    0.08       8.1  T
   4    -83.6520669  0.207572E-07  0.186E-03    0.08       8.3  T
   5    -83.6520671 -0.184791E-06  0.623E-04    0.08      24.8  T
   6    -83.6520671 -0.982554E-08  0.275E-04    0.08      56.0  T
   7    -83.6520671 -0.824916E-08  0.523E-05    0.08     295.2  T
   8    -83.6520671 -0.253848E-09  0.115E-05    0.08    1336.0  T
     SCC iter.                  ...        0 min,  0.030 sec
     gradient                   ...        0 min,  0.083 sec
 * total energy  :   -82.8859061 Eh     change       -0.1895030E-04 Eh
   gradient norm :     0.0010132 Eh/α   predicted    -0.1279703E-04 ( -32.47%)
   displ. norm   :     0.0875750 α      lambda       -0.2355833E-04
   maximum displ.:     0.0466680 α      in ANC's #7, #6, #4, ...

........................................................................
.............................. CYCLE   45 ..............................
........................................................................
   1    -83.6534328 -0.836534E+02  0.113E-02    0.08       0.0  T
   2    -83.6499217  0.351109E-02  0.168E-01    0.08       1.0  T
   3    -83.6534463 -0.352456E-02  0.299E-03    0.08       5.2  T
   4    -83.6534462  0.841851E-07  0.292E-03    0.08       5.3  T
   5    -83.6534467 -0.487054E-06  0.806E-04    0.08      19.1  T
   6    -83.6534467 -0.321955E-08  0.309E-04    0.08      50.0  T
   7    -83.6534467 -0.930555E-08  0.395E-05    0.08     391.1  T
   8    -83.6534467  0.303118E-10  0.303E-05    0.08     508.7  T
     SCC iter.                  ...        0 min,  0.030 sec
     gradient                   ...        0 min,  0.083 sec
 * total energy  :   -82.8859278 Eh     change       -0.2170875E-04 Eh
   gradient norm :     0.0021643 Eh/α   predicted    -0.1181987E-04 ( -45.55%)
   displ. norm   :     0.0725113 α      lambda       -0.1997147E-04
   maximum displ.:     0.0377603 α      in ANC's #7, #6, #10, ...

........................................................................
.............................. CYCLE   46 ..............................
........................................................................
   1    -83.6533560 -0.836534E+02  0.389E-03    0.08       0.0  T
   2    -83.6529300  0.426062E-03  0.586E-02    0.08       1.0  T
   3    -83.6533575 -0.427548E-03  0.148E-03    0.08      10.4  T
   4    -83.6533576 -0.623779E-07  0.114E-03    0.08      13.6  T
   5    -83.6533577 -0.119662E-06  0.213E-04    0.08      72.4  T
   6    -83.6533577 -0.495504E-09  0.108E-04    0.08     143.0  T
   7    -83.6533577 -0.493458E-09  0.422E-05    0.08     365.5  T
     SCC iter.                  ...        0 min,  0.026 sec
     gradient                   ...        0 min,  0.083 sec
 * total energy  :   -82.8859462 Eh     change       -0.1839865E-04 Eh
   gradient norm :     0.0021623 Eh/α   predicted    -0.1006739E-04 ( -45.28%)
   displ. norm   :     0.3715498 α      lambda       -0.9448828E-04
   maximum displ.:     0.1870749 α      in ANC's #7, #6, #10, ...

........................................................................
.............................. CYCLE   47 ..............................
........................................................................
   1    -83.6506822 -0.836507E+02  0.132E-02    0.08       0.0  T
   2    -83.6474597  0.322257E-02  0.161E-01    0.09       1.0  T
   3    -83.6506898 -0.323013E-02  0.822E-03    0.08       1.9  T
   4    -83.6506944 -0.465114E-05  0.492E-03    0.08       3.1  T
   5    -83.6506959 -0.143644E-05  0.189E-03    0.08       8.2  T
   6    -83.6506960 -0.146932E-06  0.931E-04    0.08      16.6  T
   7    -83.6506961 -0.861028E-07  0.208E-04    0.08      74.0  T
   8    -83.6506961 -0.453069E-08  0.517E-05    0.08     298.5  T
   9    -83.6506961 -0.157613E-09  0.299E-05    0.08     516.6  T
     SCC iter.                  ...        0 min,  0.033 sec
     gradient                   ...        0 min,  0.083 sec
 * total energy  :   -82.8859803 Eh     change       -0.3408093E-04 Eh
   gradient norm :     0.0044040 Eh/α   predicted    -0.5377779E-04 (  57.79%)
   displ. norm   :     0.1061578 α      lambda       -0.3565578E-04
   maximum displ.:     0.0558297 α      in ANC's #7, #6, #10, ...

........................................................................
.............................. CYCLE   48 ..............................
........................................................................
   1    -83.6521895 -0.836522E+02  0.599E-03    0.08       0.0  T
   2    -83.6516561  0.533393E-03  0.655E-02    0.08       1.0  T
   3    -83.6521903 -0.534127E-03  0.440E-03    0.08       3.5  T
   4    -83.6521910 -0.742900E-06  0.324E-03    0.08       4.8  T
   5    -83.6521918 -0.813308E-06  0.833E-04    0.08      18.5  T
   6    -83.6521918 -0.229665E-07  0.320E-04    0.08      48.2  T
   7    -83.6521918 -0.917018E-08  0.692E-05    0.08     223.0  T
   8    -83.6521918 -0.323297E-09  0.346E-05    0.08     445.6  T
     SCC iter.                  ...        0 min,  0.030 sec
     gradient                   ...        0 min,  0.083 sec
 * total energy  :   -82.8859960 Eh     change       -0.1573347E-04 Eh
   gradient norm :     0.0013654 Eh/α   predicted    -0.1802918E-04 (  14.59%)
   displ. norm   :     0.0847118 α      lambda       -0.1155156E-04
   maximum displ.:     0.0417355 α      in ANC's #10, #7, #12, ...

........................................................................
.............................. CYCLE   49 ..............................
........................................................................
   1    -83.6520247 -0.836520E+02  0.254E-03    0.08       0.0  T
   2    -83.6519004  0.124297E-03  0.316E-02    0.08       1.0  T
   3    -83.6520249 -0.124495E-03  0.226E-03    0.08       6.8  T
   4    -83.6520252 -0.292510E-06  0.965E-04    0.08      16.0  T
   5    -83.6520253 -0.742968E-07  0.389E-04    0.08      39.7  T
   6    -83.6520253 -0.540183E-08  0.195E-04    0.08      79.3  T
   7    -83.6520253 -0.400348E-08  0.464E-05    0.08     332.6  T
     SCC iter.                  ...        0 min,  0.027 sec
     gradient                   ...        0 min,  0.084 sec
 * total energy  :   -82.8860117 Eh     change       -0.1562169E-04 Eh
   gradient norm :     0.0011444 Eh/α   predicted    -0.5795107E-05 ( -62.90%)
   displ. norm   :     0.4520486 α      lambda       -0.6228514E-04
   maximum displ.:     0.2421340 α      in ANC's #10, #12, #3, ...

........................................................................
.............................. CYCLE   50 ..............................
........................................................................
   1    -83.6486815 -0.836487E+02  0.225E-02    0.08       0.0  T
   2    -83.6379078  0.107737E-01  0.295E-01    0.09       1.0  T
   3    -83.6487180 -0.108102E-01  0.135E-02    0.08       1.1  T
   4    -83.6487188 -0.799876E-06  0.992E-03    0.08       1.6  T
   5    -83.6487280 -0.915975E-05  0.222E-03    0.08       7.0  T
   6    -83.6487280 -0.474090E-07  0.874E-04    0.08      17.7  T
   7    -83.6487281 -0.688861E-07  0.160E-04    0.08      96.2  T
   8    -83.6487281 -0.646565E-09  0.953E-05    0.08     162.0  T
     SCC iter.                  ...        0 min,  0.030 sec
     gradient                   ...        0 min,  0.084 sec
 * total energy  :   -82.8859878 Eh     change        0.2385078E-04 Eh
   gradient norm :     0.0087993 Eh/α   predicted    -0.3397257E-04 (-242.44%)
   displ. norm   :     0.1723580 α      lambda       -0.1586622E-03
   maximum displ.:     0.0784672 α      in ANC's #10, #7, #6, ...

........................................................................
.............................. CYCLE   51 ..............................
........................................................................
   1    -83.6516128 -0.836516E+02  0.806E-03    0.08       0.0  T
   2    -83.6515842  0.286616E-04  0.159E-02    0.08       1.0  T
   3    -83.6515047  0.794977E-04  0.297E-02    0.08       1.0  T
   4    -83.6516126 -0.107878E-03  0.286E-03    0.08       5.4  T
   5    -83.6516131 -0.500862E-06  0.135E-03    0.08      11.4  T
   6    -83.6516131 -0.540906E-07  0.716E-04    0.08      21.6  T
   7    -83.6516132 -0.570083E-07  0.466E-05    0.08     331.3  T
   8    -83.6516132  0.117822E-09  0.476E-05    0.08     324.5  T
     SCC iter.                  ...        0 min,  0.034 sec
     gradient                   ...        0 min,  0.084 sec
 * total energy  :   -82.8860643 Eh     change       -0.7651216E-04 Eh
   gradient norm :     0.0032530 Eh/α   predicted    -0.8170464E-04 (   6.79%)
   displ. norm   :     0.0370562 α      lambda       -0.1548841E-04
   maximum displ.:     0.0203195 α      in ANC's #10, #3, #12, ...

........................................................................
.............................. CYCLE   52 ..............................
........................................................................
   1    -83.6519368 -0.836519E+02  0.402E-03    0.08       0.0  T
   2    -83.6514298  0.506954E-03  0.639E-02    0.08       1.0  T
   3    -83.6519386 -0.508783E-03  0.111E-03    0.08      13.9  T
[...]
C5-C3-O2=111.65                C5-C3-O4=125.14                N6-C5-C3=116.09                C24-C5-C3=121.16               
C24-C5-N6=122.75               C7-N6-C5=121.26                C8-C7-N6=118.23                N21-C7-N6=121.82               
N21-C7-C8=119.85               C9-C8-C7=105.75                C10-C8-C7=110.42               C10-C8-C9=109.85               
N11-C8-C7=110.21               N11-C8-C9=110.48               N11-C8-C10=110.04              H29-C9-C8=109.39               
H30-C9-C8=109.92               H30-C9-H29=109.54              H31-C9-C8=109.08               H31-C9-H29=109.50              
H31-C9-H30=109.39              H32-C10-C8=108.90              H33-C10-C8=109.62              H33-C10-H32=109.43             
H34-C10-C8=109.72              H34-C10-H32=109.63             H34-C10-H33=109.53             
 
 selected dihedral angles (degree)
 ---------------------------------
C3-O2-C1-H26=179.91           C3-O2-C1-H27= 60.20           C3-O2-C1-H28=299.62           O4-C3-O2-C1=  0.05            
C5-C3-O2-C1=179.83            N6-C5-C3-O2=  0.10            N6-C5-C3-O4=179.87            C24-C5-C3-O2=179.41           
C24-C5-C3-O4=359.19           C7-N6-C5-C3=178.25            C7-N6-C5-C24=358.95           C8-C7-N6-C5=176.80            
N21-C7-N6-C5=  0.61           C9-C8-C7-N6=272.11            C9-C8-C7-N21= 88.39           C10-C8-C7-N6= 30.90           
C10-C8-C7-N21=207.17          N11-C8-C7-N6=152.69           N11-C8-C7-N21=328.96          H29-C9-C8-C7=295.73           
H29-C9-C8-C10=176.56          H29-C9-C8-N11= 54.97          H30-C9-C8-C7=175.42           H30-C9-C8-C10= 56.25          
H30-C9-C8-N11=294.67          H31-C9-C8-C7= 55.48           H31-C9-C8-C10=296.32          H31-C9-C8-N11=174.73          
H32-C10-C8-C7=304.51          H32-C10-C8-C9= 60.77          H32-C10-C8-N11=182.61         H33-C10-C8-C7= 64.19          
H33-C10-C8-C9=180.45          H33-C10-C8-N11=302.30         H34-C10-C8-C7=184.51          H34-C10-C8-C9=300.77          
H34-C10-C8-N11= 62.62         
           -------------------------------------------------
          |                Final Singlepoint                |
           -------------------------------------------------

          ...................................................
          :                      SETUP                      :
          :.................................................:
          :  # basis functions                 134          :
          :  # atomic orbitals                 134          :
          :  # shells                           84          :
          :  # electrons                       134          :
          :  # halogen bonds                     0          :
          :  max. iterations                   250          :
          :  Hamiltonian                  GFN1-xTB          :
          :  restarted?                      false          :
          :  GBSA solvation                   true          :
          :  PC potential                    false          :
          :  electronic temp.          300.0000000     K    :
          :  accuracy                    1.0000000          :
          :  -> integral cutoff          0.2500000E+02      :
          :  -> integral neglect         0.1000000E-07      :
          :  -> SCF convergence          0.1000000E-05 Eh   :
          :  -> wf. convergence          0.2000000E-04 e    :
          :  Broyden damping             0.4000000          :
          ...................................................

 iter      E             dE          RMSdq      gap      omega  full diag
   1    -83.6532198 -0.836532E+02  0.211E-05    0.09       0.0  T
   2    -83.6532198  0.130378E-07  0.326E-04    0.09      47.4  T
   3    -83.6532198 -0.130820E-07  0.761E-06    0.09    2027.0  T
   4    -83.6532198 -0.359535E-11  0.454E-06    0.09    3398.0  T

   *** convergence criteria satisfied after 4 iterations ***

         #    Occupation            Energy/Eh            Energy/eV
      -------------------------------------------------------------
         1        2.0000           -0.8681063             -23.6224
       ...           ...                  ...                  ...
        61        2.0000           -0.4776437             -12.9973
        62        2.0000           -0.4607465             -12.5376
        63        2.0000           -0.4587413             -12.4830
        64        2.0000           -0.4537199             -12.3463
        65        2.0000           -0.4445823             -12.0977
        66        2.0000           -0.4374742             -11.9043
        67        1.6768           -0.4209424             -11.4544 (HOMO)
        68        0.3232           -0.4178143             -11.3693 (LUMO)
        69                         -0.3240446              -8.8177
        70                         -0.3004696              -8.1762
        71                         -0.2728678              -7.4251
        72                         -0.2543186              -6.9204
       ...                                ...                  ...
       134                          0.7535291              20.5046
      -------------------------------------------------------------
                  HL-Gap            0.0031281 Eh            0.0851 eV
             Fermi-level           -0.4193784 Eh          -11.4119 eV

 SCC (total)                   0 d,  0 h,  0 min,  0.139 sec
 SCC setup                      ...        0 min,  0.002 sec (  1.325%)
 Dispersion                     ...        0 min,  0.000 sec (  0.236%)
 classical contributions        ...        0 min,  0.000 sec (  0.076%)
 integral evaluation            ...        0 min,  0.036 sec ( 25.896%)
 iterations                     ...        0 min,  0.017 sec ( 12.428%)
 molecular gradient             ...        0 min,  0.082 sec ( 59.364%)
 printout                       ...        0 min,  0.001 sec (  0.637%)

         :::::::::::::::::::::::::::::::::::::::::::::::::::::
         ::                     SUMMARY                     ::
         :::::::::::::::::::::::::::::::::::::::::::::::::::::
         :: total energy             -82.886411213458 Eh    ::
         :: total w/o Gsasa/hb       -82.865713992918 Eh    ::
         :: gradient norm              0.000906631485 Eh/a0 ::
         :: HOMO-LUMO gap              0.085121017783 eV    ::
         ::.................................................::
         :: SCC energy               -83.653219764739 Eh    ::
         :: -> electrostatic           0.389836675622 Eh    ::
         :: -> Gsolv                  -0.071219023826 Eh    ::
         ::    -> Gelec               -0.050521803286 Eh    ::
         ::    -> Gsasa               -0.024401136862 Eh    ::
         ::    -> Ghb                 -0.003920362683 Eh    ::
         ::    -> Gshift               0.007624279005 Eh    ::
         :: repulsion energy           0.793055872127 Eh    ::
         :: dispersion energy         -0.026247320845 Eh    ::
         :: halogen bond corr.         0.000000000000 Eh    ::
         :: add. restraining           0.000000000000 Eh    ::
         :: total charge              -0.000000000000 e     ::
         :::::::::::::::::::::::::::::::::::::::::::::::::::::

           -------------------------------------------------
          |                Property Printout                |
           -------------------------------------------------

    * Orbital Energies and Occupations

         #    Occupation            Energy/Eh            Energy/eV
      -------------------------------------------------------------
         1        2.0000           -0.8681063             -23.6224
       ...           ...                  ...                  ...
        55        2.0000           -0.5112755             -13.9125
        56        2.0000           -0.5059050             -13.7664
        57        2.0000           -0.5054907             -13.7551
        58        2.0000           -0.4977484             -13.5444
        59        2.0000           -0.4884419             -13.2912
        60        2.0000           -0.4805153             -13.0755
        61        2.0000           -0.4776437             -12.9973
        62        2.0000           -0.4607465             -12.5376
        63        2.0000           -0.4587413             -12.4830
        64        2.0000           -0.4537199             -12.3463
        65        2.0000           -0.4445823             -12.0977
        66        2.0000           -0.4374742             -11.9043
        67        1.6768           -0.4209424             -11.4544 (HOMO)
        68        0.3232           -0.4178143             -11.3693 (LUMO)
        69                         -0.3240446              -8.8177
        70                         -0.3004696              -8.1762
        71                         -0.2728678              -7.4251
        72                         -0.2543186              -6.9204
        73                         -0.2476300              -6.7384
        74                         -0.1732039              -4.7131
        75                         -0.1429542              -3.8900
        76                         -0.1409167              -3.8345
        77                         -0.1388997              -3.7797
        78                         -0.1354106              -3.6847
       ...                                ...                  ...
       134                          0.7535291              20.5046
      -------------------------------------------------------------
                  HL-Gap            0.0031281 Eh            0.0851 eV
             Fermi-level           -0.4193784 Eh          -11.4119 eV

  Mulliken/CM5 charges         n(s)   n(p)   n(d)
     1C     0.16292  0.04228   0.981  2.856  0.000
     2O    -0.41276 -0.49474   1.686  4.726  0.000
     3C     0.57637  0.64359   0.965  2.459  0.000
     4O    -0.54678 -0.59228   1.723  4.824  0.000
     5C     0.10096  0.18532   1.073  2.826  0.000
     6N    -0.33056 -0.51882   1.523  3.808  0.000
     7C     0.29221  0.44064   1.029  2.679  0.000
     8C     0.16663  0.21130   1.059  2.774  0.000
     9C    -0.08773 -0.22740   1.024  3.063  0.000
    10C    -0.08799 -0.22627   1.021  3.067  0.000
    11N    -0.33907 -0.69389   1.463  3.876  0.000
    12C     0.42061  0.49738   0.993  2.586  0.000
    13C    -0.07437 -0.21245   1.046  3.028  0.000
    14O    -0.63391 -0.68541   1.744  4.890  0.000
    15C     0.36275  0.48828   1.025  2.612  0.000
    16N    -0.23415 -0.34110   1.564  3.670  0.000
    17N    -0.26254 -0.37167   1.565  3.697  0.000
    18C     0.38622  0.49494   1.005  2.609  0.000
    19C    -0.11163 -0.24895   1.012  3.099  0.000
    20O    -0.36403 -0.42393   1.699  4.665  0.000
    21N    -0.27581 -0.62216   1.440  3.836  0.000
    22C     0.45732  0.55899   1.011  2.531  0.000
    23O    -0.51086 -0.55013   1.724  4.786  0.000
    24C     0.33209  0.37944   1.041  2.627  0.000
    25O    -0.50346 -0.54340   1.733  4.770  0.000
    26H     0.05508  0.11548   0.945  0.000  0.000
    27H     0.05485  0.11658   0.945  0.000  0.000
    28H     0.05488  0.11658   0.945  0.000  0.000
    29H     0.05312  0.11113   0.947  0.000  0.000
    30H     0.07993  0.14204   0.920  0.000  0.000
    31H     0.05448  0.11065   0.946  0.000  0.000
    32H     0.05314  0.11257   0.947  0.000  0.000
    33H     0.05142  0.10897   0.949  0.000  0.000
    34H     0.06980  0.13108   0.930  0.000  0.000
    35H     0.26432  0.47375   0.736  0.000  0.000
    36H     0.07085  0.12886   0.929  0.000  0.000
    37H     0.06975  0.12675   0.930  0.000  0.000
    38H     0.06160  0.12163   0.938  0.000  0.000
    39H     0.07097  0.12669   0.929  0.000  0.000
    40H     0.07966  0.13441   0.920  0.000  0.000
    41H     0.08002  0.13420   0.920  0.000  0.000
    42H     0.29369  0.49910   0.706  0.000  0.000

Wiberg/Mayer (AO) data.
largest (>0.10) Wiberg bond orders for each atom

 ---------------------------------------------------------------------------
     #   Z sym  total        # sym  WBO       # sym  WBO       # sym  WBO
 ---------------------------------------------------------------------------
     1   6 C    3.868 --    26 H    0.986    27 H    0.978    28 H    0.978
                             2 O    0.896
     2   8 O    2.191 --     3 C    1.109     1 C    0.896     4 O    0.137
     3   6 C    3.845 --     4 O    1.664     2 O    1.109     5 C    1.000
     4   8 O    1.907 --     3 C    1.664     2 O    0.137
     5   6 C    3.756 --     6 N    1.376    24 C    1.117     3 C    1.000
     6   7 N    2.994 --     7 C    1.396     5 C    1.376
     7   6 C    3.835 --     6 N    1.396    21 N    1.232     8 C    1.004
     8   6 C    3.930 --     7 C    1.004    11 N    0.980    10 C    0.945
                             9 C    0.922
     9   6 C    3.958 --    31 H    0.985    29 H    0.985    30 H    0.972
                             8 C    0.922
    10   6 C    3.960 --    33 H    0.985    32 H    0.980    34 H    0.978
                             8 C    0.945
    11   7 N    3.209 --     8 C    0.980    12 C    0.925    35 H    0.894
                            14 O    0.164
    12   6 C    3.882 --    14 O    1.274    11 N    0.925    15 C    0.849
                            13 C    0.767
    13   6 C    3.819 --    38 H    0.987    37 H    0.982    36 H    0.980
                            12 C    0.767
    14   8 O    1.621 --    12 C    1.274    11 N    0.164
    15   6 C    3.788 --    16 N    1.661    20 O    1.056    12 C    0.849
    16   7 N    2.977 --    15 C    1.661    17 N    1.155
    17   7 N    2.978 --    18 C    1.637    16 N    1.155
    18   6 C    3.858 --    17 N    1.637    20 O    1.049    19 C    1.031
    19   6 C    3.985 --    18 C    1.031    39 H    0.981    40 H    0.967
                            41 H    0.960
    20   8 O    2.306 --    15 C    1.056    18 C    1.049
    21   7 N    3.452 --     7 C    1.232    22 C    1.083    42 H    0.874
                            23 O    0.104
    22   6 C    3.838 --    23 O    1.688    21 N    1.083    24 C    0.938
    23   8 O    1.911 --    22 C    1.688    21 N    0.104
    24   6 C    3.858 --    25 O    1.664     5 C    1.117    22 C    0.938
    25   8 O    1.824 --    24 C    1.664
    26   1 H    1.010 --     1 C    0.986
    27   1 H    1.005 --     1 C    0.978
    28   1 H    1.005 --     1 C    0.978
    29   1 H    0.999 --     9 C    0.985
    30   1 H    1.010 --     9 C    0.972
    31   1 H    1.000 --     9 C    0.985
    32   1 H    1.009 --    10 C    0.980
    33   1 H    0.999 --    10 C    0.985
    34   1 H    1.009 --    10 C    0.978
    35   1 H    0.937 --    11 N    0.894
    36   1 H    0.997 --    13 C    0.980
    37   1 H    1.000 --    13 C    0.982
    38   1 H    0.999 --    13 C    0.987
    39   1 H    0.998 --    19 C    0.981
    40   1 H    0.996 --    19 C    0.967
    41   1 H    0.997 --    19 C    0.960
    42   1 H    0.921 --    21 N    0.874
 ---------------------------------------------------------------------------

Topologies differ in total number of bonds
Writing topology from bond orders to xtbtopo.mol

 dipole moment from electron density (au)
     X       Y       Z   
  -2.8365  -0.2970  -0.0110  total (Debye):    7.249

           -------------------------------------------------
          |                Geometry Summary                 |
           -------------------------------------------------

      molecular mass/u    :      351.3152409
   center of mass at/Å    :        0.2260243       0.1430571      -0.4430568
  moments of inertia/u·Å² :        0.1360315E+04   0.4602685E+04   0.4901710E+04
rotational constants/cm⁻¹ :        0.1239245E-01   0.3662565E-02   0.3439133E-02

 * 34 selected distances

     #   Z          #   Z                                           value/Å
     1   6 C        2   8 O                                       1.4305775
     2   8 O        3   6 C                                       1.3351243
     3   6 C        4   8 O                                       1.2077937
     5   6 C        6   7 N                                       1.3340506
     6   7 N        7   6 C                                       1.3144662
     8   6 C       11   7 N                                       1.4345048
    11   7 N       12   6 C                                       1.4635869
    12   6 C       14   8 O                                       1.2767261
    15   6 C       16   7 N                                       1.2873061
    17   7 N       18   6 C                                       1.2925876
    18   6 C       19   6 C                                       1.4791673 (max)
    15   6 C       20   8 O                                       1.3480285
    18   6 C       20   8 O                                       1.3500023
     7   6 C       21   7 N                                       1.3501548
    21   7 N       22   6 C                                       1.3925727
    22   6 C       23   8 O                                       1.2092187
    24   6 C       25   8 O                                       1.2210537
     1   6 C       26   1 H                                       1.0877198
     1   6 C       27   1 H                                       1.0927344
     1   6 C       28   1 H                                       1.0927616
     9   6 C       29   1 H                                       1.0876621
     9   6 C       30   1 H                                       1.0871630
     9   6 C       31   1 H                                       1.0882523
    10   6 C       32   1 H                                       1.0883084
    10   6 C       33   1 H                                       1.0880222
    10   6 C       34   1 H                                       1.0878857
    11   7 N       35   1 H                                       1.0065087 (min)
    13   6 C       36   1 H                                       1.0852069
    13   6 C       37   1 H                                       1.0860589
    13   6 C       38   1 H                                       1.0837673
    19   6 C       39   1 H                                       1.0877529
    19   6 C       40   1 H                                       1.0894244
    19   6 C       41   1 H                                       1.0906822
    21   7 N       42   1 H                                       1.0087078

 * 5 distinct bonds (by element types)

   Z      Z             #   av. dist./Å        max./Å        min./Å
   1 H    6 C          15     1.0882268     1.0927616     1.0837673
   6 C    6 C           1     1.4791673     1.4791673     1.4791673
   1 H    7 N           2     1.0076082     1.0087078     1.0065087
   6 C    7 N           8     1.3586537     1.4635869     1.2873061
   6 C    8 O           8     1.2973156     1.4305775     1.2077937


optimized geometry written to: xtbopt.xyz


           -------------------------------------------------
          | TOTAL ENERGY              -82.886411213458 Eh   |
          | GRADIENT NORM               0.000906631485 Eh/α |
          | HOMO-LUMO GAP               0.085121017783 eV   |
           -------------------------------------------------

------------------------------------------------------------------------
 * finished run on 2023/06/21 at 17:43:54.734     
------------------------------------------------------------------------
 total:
 * wall-time:     0 d,  0 h,  0 min, 11.624 sec
 *  cpu-time:     0 d,  0 h,  0 min, 11.412 sec
 * ratio c/w:     0.982 speedup
 SCF:
 * wall-time:     0 d,  0 h,  0 min,  0.230 sec
 *  cpu-time:     0 d,  0 h,  0 min,  0.221 sec
 * ratio c/w:     0.959 speedup
 ANC optimizer:
 * wall-time:     0 d,  0 h,  0 min, 11.220 sec
 *  cpu-time:     0 d,  0 h,  0 min, 11.138 sec
 * ratio c/w:     0.993 speedup

