      -----------------------------------------------------------      
     |                   =====================                   |     
     |                           x T B                           |     
     |                   =====================                   |     
     |                         S. Grimme                         |     
     |          Mulliken Center for Theoretical Chemistry        |     
     |                    University of Bonn                     |     
      -----------------------------------------------------------      

   * xtb version 6.5.1 (579679a) compiled by 'ehlert@majestix' on 2022-07-11

   xtb is free software: you can redistribute it and/or modify it under
   the terms of the GNU Lesser General Public License as published by
   the Free Software Foundation, either version 3 of the License, or
   (at your option) any later version.
   
   xtb is distributed in the hope that it will be useful,
   but WITHOUT ANY WARRANTY; without even the implied warranty of
   MERCHANTABILITY or FITNESS FOR A PARTICULAR PURPOSE.  See the
   GNU Lesser General Public License for more details.
   
   Cite this work as:
   * C. Bannwarth, E. Caldeweyher, S. Ehlert, A. Hansen, P. Pracht,
     J. Seibert, S. Spicher, S. Grimme, WIREs Comput. Mol. Sci., 2020, 11,
     e01493. DOI: 10.1002/wcms.1493
   
   for GFN2-xTB:
   * C. Bannwarth, S. Ehlert and S. Grimme., J. Chem. Theory Comput., 2019,
     15, 1652-1671. DOI: 10.1021/acs.jctc.8b01176
   for GFN1-xTB:
   * S. Grimme, C. Bannwarth, P. Shushkov, J. Chem. Theory Comput., 2017,
     13, 1989-2009. DOI: 10.1021/acs.jctc.7b00118
   for GFN0-xTB:
   * P. Pracht, E. Caldeweyher, S. Ehlert, S. Grimme, ChemRxiv, 2019, preprint.
     DOI: 10.26434/chemrxiv.8326202.v1
   for GFN-FF:
   * S. Spicher and S. Grimme, Angew. Chem. Int. Ed., 2020, 59, 15665-15673.
     DOI: 10.1002/anie.202004239
   
   for ALPB and GBSA implicit solvation:
   * S. Ehlert, M. Stahn, S. Spicher, S. Grimme, J. Chem. Theory Comput.,
     2021, 17, 4250-4261. DOI: 10.1021/acs.jctc.1c00471
   
   for DFT-D4:
   * E. Caldeweyher, C. Bannwarth and S. Grimme, J. Chem. Phys., 2017,
     147, 034112. DOI: 10.1063/1.4993215
   * E. Caldeweyher, S. Ehlert, A. Hansen, H. Neugebauer, S. Spicher,
     C. Bannwarth and S. Grimme, J. Chem. Phys., 2019, 150, 154122.
     DOI: 10.1063/1.5090222
   * E. Caldeweyher, J.-M. Mewes, S. Ehlert and S. Grimme, Phys. Chem. Chem. Phys.
     2020, 22, 8499-8512. DOI: 10.1039/D0CP00502A
   
   for sTDA-xTB:
   * S. Grimme and C. Bannwarth, J. Chem. Phys., 2016, 145, 054103.
     DOI: 10.1063/1.4959605
   
   in the mass-spec context:
   * V. Asgeirsson, C. Bauer and S. Grimme, Chem. Sci., 2017, 8, 4879.
     DOI: 10.1039/c7sc00601b
   * J. Koopman and S. Grimme, ACS Omega 2019, 4, 12, 15120-15133.
     DOI: 10.1021/acsomega.9b02011
   
   for metadynamics refer to:
   * S. Grimme, J. Chem. Theory Comput., 2019, 155, 2847-2862
     DOI: 10.1021/acs.jctc.9b00143
   
   for SPH calculations refer to:
   * S. Spicher and S. Grimme, J. Chem. Theory Comput., 2021, 17, 1701-1714
     DOI: 10.1021/acs.jctc.0c01306
   
   with help from (in alphabetical order)
   P. Atkinson, C. Bannwarth, F. Bohle, G. Brandenburg, E. Caldeweyher
   M. Checinski, S. Dohm, S. Ehlert, S. Ehrlich, I. Gerasimov, C. Hölzer
   A. Katbashev, J. Koopman, C. Lavigne, S. Lehtola, F. März, M. Müller,
   F. Musil, H. Neugebauer, J. Pisarek, C. Plett, P. Pracht, F. Pultar,
   J. Seibert, P. Shushkov, S. Spicher, M. Stahn, M. Steiner, T. Strunk,
   J. Stückrath, T. Rose, and J. Unsleber
   
 * started run on 2023/06/20 at 15:22:27.282     

           -------------------------------------------------
          |                Calculation Setup                |
           -------------------------------------------------

          program call               : /lustre/hpc/kemi/ree/PhD/git/ReactivityQM/dep/xtb-6.5.1/bin/xtb --gfn 1 /lustre/hpc/kemi/ree/PhD/git/ReactivityQM/calculations/R02/reac01prodN04/conf15/R02_reac01prodN04_conf15_gfn1.xyz --opt --vfukui --chrg 1 --uhf 0 --alpb DMSO
          hostname                   : node315
          coordinate file            : /lustre/hpc/kemi/ree/PhD/git/ReactivityQM/calculations/R02/reac01prodN04/conf15/R02_reac01prodN04_conf15_gfn1.xyz
          omp threads                :                     1

   ID    Z sym.   atoms
    1    6 C      1, 3, 5, 7-10, 12, 14, 17, 18, 21, 23, 25
    2    8 O      2, 4, 13, 19, 22, 24
    3    7 N      6, 11, 15, 16, 20
    4    1 H      26-43

           -------------------------------------------------
          |                 G F N 1 - x T B                 |
           -------------------------------------------------

        Reference                      10.1021/acs.jctc.7b00118
      * Hamiltonian:
        H0-scaling (s, p, d)           1.850000    2.250000    2.000000
        zeta-weighting                 0.000000
      * Dispersion:
        s8                             2.400000
        a1                             0.630000
        a2                             5.000000
        s9                             0.000000
      * Repulsion:
        kExp                           1.500000
        rExp                           1.000000
      * Coulomb:
        alpha                          2.000000
        third order                    atomic
        anisotropic                    false
      * Halogen bond correction:
        rad-scale                      1.300000
        damping                        0.440000

      * Solvation model:               ALPB
        Solvent                        DMSO
        Parameter file                 internal GFN1-xTB/ALPB
        Dielectric constant                4.6680E+01
        Reference state                gsolv [1 M gas/solution]
        Free energy shift                  7.6243E-03 Eh       4.7843E+00 kcal/mol
        Temperature                        2.9815E+02 K
        Density                            1.1000E+00 kg/L
        Solvent mass                       7.8130E+01 g/mol
        Interaction kernel             P16
        Born radius scaling (c1)           1.7672E+00
        Born radii integrator          GBOBC
        Born offset                        0.0000E+00 a0       0.0000E+00 AA
        H-bond correction              true
        Ion screening                  false
        Surface tension                    1.0000E-05 Eh       1.5569E+01 dyn/cm
        Grid points                               230 per atom

          ...................................................
          :                      SETUP                      :
          :.................................................:
          :  # basis functions                 136          :
          :  # atomic orbitals                 136          :
          :  # shells                           86          :
          :  # electrons                       134          :
          :  # halogen bonds                     0          :
          :  max. iterations                   250          :
          :  Hamiltonian                  GFN1-xTB          :
          :  restarted?                      false          :
          :  GBSA solvation                   true          :
          :  PC potential                    false          :
          :  electronic temp.          300.0000000     K    :
          :  accuracy                    1.0000000          :
          :  -> integral cutoff          0.2500000E+02      :
          :  -> integral neglect         0.1000000E-07      :
          :  -> SCF convergence          0.1000000E-05 Eh   :
          :  -> wf. convergence          0.2000000E-04 e    :
          :  Broyden damping             0.4000000          :
          ...................................................

 iter      E             dE          RMSdq      gap      omega  full diag
   1    -83.5729555 -0.835730E+02  0.831E+00    3.03       0.0  T
   2    -83.8669725 -0.294017E+00  0.496E+00    2.08       1.0  T
   3    -83.8612581  0.571440E-02  0.146E+00    1.70       1.0  T
   4    -83.8777969 -0.165388E-01  0.140E-01    1.62       1.0  T
   5    -83.8783790 -0.582087E-03  0.379E-02    1.68       1.0  T
   6    -83.8784056 -0.266073E-04  0.127E-02    1.69       1.2  T
   7    -83.8784082 -0.264616E-05  0.461E-03    1.70       3.3  T
   8    -83.8784086 -0.354395E-06  0.922E-04    1.70      16.5  T
   9    -83.8784086 -0.117825E-07  0.347E-04    1.70      44.0  T
  10    -83.8784086 -0.180111E-08  0.790E-05    1.70     193.0  T
  11    -83.8784086 -0.105686E-09  0.241E-05    1.70     633.1  T

   *** convergence criteria satisfied after 11 iterations ***

         #    Occupation            Energy/Eh            Energy/eV
      -------------------------------------------------------------
         1        2.0000           -0.9183189             -24.9887
       ...           ...                  ...                  ...
        61        2.0000           -0.4938932             -13.4395
        62        2.0000           -0.4916117             -13.3774
        63        2.0000           -0.4901760             -13.3384
        64        2.0000           -0.4693154             -12.7707
        65        2.0000           -0.4632459             -12.6056
        66        2.0000           -0.4497455             -12.2382
        67        2.0000           -0.4496068             -12.2344 (HOMO)
        68                         -0.3869951             -10.5307 (LUMO)
        69                         -0.3307315              -8.9997
        70                         -0.3225248              -8.7763
        71                         -0.2876397              -7.8271
        72                         -0.2628286              -7.1519
       ...                                ...                  ...
       136                          0.6904551              18.7882
      -------------------------------------------------------------
                  HL-Gap            0.0626118 Eh            1.7038 eV
             Fermi-level           -0.4183009 Eh          -11.3825 eV

 SCC (total)                   0 d,  0 h,  0 min,  0.218 sec
 SCC setup                      ...        0 min,  0.002 sec (  0.982%)
 Dispersion                     ...        0 min,  0.000 sec (  0.187%)
 classical contributions        ...        0 min,  0.000 sec (  0.060%)
 integral evaluation            ...        0 min,  0.078 sec ( 35.857%)
 iterations                     ...        0 min,  0.065 sec ( 29.744%)
 molecular gradient             ...        0 min,  0.071 sec ( 32.719%)
 printout                       ...        0 min,  0.001 sec (  0.433%)

         :::::::::::::::::::::::::::::::::::::::::::::::::::::
         ::                     SUMMARY                     ::
         :::::::::::::::::::::::::::::::::::::::::::::::::::::
         :: total energy             -83.108619694457 Eh    ::
         :: total w/o Gsasa/hb       -83.083810449572 Eh    ::
         :: gradient norm              0.127479214026 Eh/a0 ::
         :: HOMO-LUMO gap              1.703752985166 eV    ::
         ::.................................................::
         :: SCC energy               -83.878408572552 Eh    ::
         :: -> electrostatic           0.410536787015 Eh    ::
         :: -> Gsolv                  -0.110267344847 Eh    ::
         ::    -> Gelec               -0.085458099963 Eh    ::
         ::    -> Gsasa               -0.025276720698 Eh    ::
         ::    -> Ghb                 -0.007156803191 Eh    ::
         ::    -> Gshift               0.007624279005 Eh    ::
         :: repulsion energy           0.795434302461 Eh    ::
         :: dispersion energy         -0.025645424366 Eh    ::
         :: halogen bond corr.         0.000000000000 Eh    ::
         :: add. restraining           0.000000000000 Eh    ::
         :: total charge               1.000000000000 e     ::
         :::::::::::::::::::::::::::::::::::::::::::::::::::::

      ----------------------------------------------------------- 
     |                   =====================                   |
     |                        A N C O P T                        |
     |                   =====================                   |
     |               Approximate Normal Coordinate               |
     |                Rational Function Optimizer                |
      ----------------------------------------------------------- 

          ...................................................
          :                      SETUP                      :
          :.................................................:
          :   optimization level            normal          :
          :   max. optcycles                   200          :
          :   ANC micro-cycles                  20          :
          :   degrees of freedom               123          :
          :.................................................:
          :   RF solver                   davidson          :
          :   write xtbopt.log                true          :
          :   linear?                        false          :
          :   energy convergence         0.5000000E-05 Eh   :
          :   grad. convergence          0.1000000E-02 Eh/α :
          :   maximium RF displ.         1.0000000          :
          :   Hlow (freq-cutoff)         0.1000000E-01      :
          :   Hmax (freq-cutoff)         5.0000000          :
          :   S6 in model hess.         20.0000000          :
          ...................................................

generating ANC from model Hessian ...
Using Lindh-Hessian (1995)
 Shifting diagonal of input Hessian by   9.830801692950059E-003
 Lowest  eigenvalues of input Hessian
    0.000000    0.000000    0.000000    0.000000    0.000000    0.000000
    0.010000    0.010150    0.010704    0.010901    0.011886    0.012093
    0.013018    0.013615    0.014280    0.014957    0.015177    0.015996
 Highest eigenvalues
    2.055114    2.123977    2.179162    2.334388    2.370709    2.433264
 

........................................................................
.............................. CYCLE    1 ..............................
........................................................................
   1    -83.8784086 -0.838784E+02  0.123E-05    1.70       0.0  T
   2    -83.8784086 -0.122213E-11  0.636E-06    1.70    2396.5  T
   3    -83.8784086  0.852651E-13  0.368E-06    1.70    4142.8  T
     SCC iter.                  ...        0 min,  0.011 sec
     gradient                   ...        0 min,  0.083 sec
 * total energy  :   -83.1086197 Eh     change       -0.7943868E-11 Eh
   gradient norm :     0.1274792 Eh/α   predicted     0.0000000E+00 (-100.00%)
   displ. norm   :     0.4417848 α      lambda       -0.2335114E-01
   maximum displ.:     0.2515717 α      in ANC's #22, #28, #24, ...

........................................................................
.............................. CYCLE    2 ..............................
........................................................................
   1    -83.9046934 -0.839047E+02  0.828E-02    1.89       0.0  T
   2    -83.9049567 -0.263266E-03  0.364E-02    1.91       1.0  T
   3    -83.9049769 -0.202433E-04  0.173E-02    1.91       1.0  T
   4    -83.9049773 -0.384153E-06  0.568E-03    1.91       2.7  T
   5    -83.9049775 -0.172523E-06  0.937E-04    1.91      16.3  T
   6    -83.9049775 -0.103145E-07  0.384E-04    1.91      39.7  T
   7    -83.9049775 -0.282843E-08  0.140E-04    1.91     109.3  T
   8    -83.9049775 -0.313278E-09  0.278E-05    1.91     548.5  T
     SCC iter.                  ...        0 min,  0.027 sec
     gradient                   ...        0 min,  0.083 sec
 * total energy  :   -83.1264562 Eh     change       -0.1783653E-01 Eh
   gradient norm :     0.0700398 Eh/α   predicted    -0.1398731E-01 ( -21.58%)
   displ. norm   :     0.4746947 α      lambda       -0.1364585E-01
   maximum displ.:     0.2479470 α      in ANC's #22, #28, #21, ...

........................................................................
.............................. CYCLE    3 ..............................
........................................................................
   1    -83.9243681 -0.839244E+02  0.888E-02    2.08       0.0  T
   2    -83.9247232 -0.355065E-03  0.378E-02    2.11       1.0  T
   3    -83.9247471 -0.239791E-04  0.177E-02    2.11       1.0  T
   4    -83.9247475 -0.357261E-06  0.655E-03    2.10       2.3  T
   5    -83.9247477 -0.251496E-06  0.864E-04    2.10      17.7  T
   6    -83.9247478 -0.135814E-07  0.353E-04    2.10      43.2  T
   7    -83.9247478 -0.175964E-08  0.150E-04    2.10     101.6  T
   8    -83.9247478 -0.272976E-09  0.336E-05    2.10     453.7  T
     SCC iter.                  ...        0 min,  0.028 sec
     gradient                   ...        0 min,  0.083 sec
 * total energy  :   -83.1353246 Eh     change       -0.8868343E-02 Eh
   gradient norm :     0.0249042 Eh/α   predicted    -0.8360370E-02 (  -5.73%)
   displ. norm   :     0.3621904 α      lambda       -0.3859738E-02
   maximum displ.:     0.1783744 α      in ANC's #22, #28, #21, ...

........................................................................
.............................. CYCLE    4 ..............................
........................................................................
   1    -83.9296189 -0.839296E+02  0.378E-02    2.13       0.0  T
   2    -83.9296964 -0.775446E-04  0.169E-02    2.14       1.0  T
   3    -83.9297012 -0.476716E-05  0.787E-03    2.14       1.9  T
   4    -83.9297015 -0.269099E-06  0.394E-03    2.14       3.9  T
   5    -83.9297015 -0.876072E-07  0.680E-04    2.13      22.4  T
   6    -83.9297016 -0.127349E-07  0.264E-04    2.13      57.8  T
   7    -83.9297016 -0.147767E-08  0.109E-04    2.13     140.4  T
   8    -83.9297016 -0.891163E-10  0.288E-05    2.13     529.2  T
     SCC iter.                  ...        0 min,  0.028 sec
     gradient                   ...        0 min,  0.083 sec
 * total energy  :   -83.1382657 Eh     change       -0.2941113E-02 Eh
   gradient norm :     0.0242894 Eh/α   predicted    -0.2183076E-02 ( -25.77%)
   displ. norm   :     0.4542492 α      lambda       -0.3529665E-02
   maximum displ.:     0.1732872 α      in ANC's #28, #22, #7, ...

........................................................................
.............................. CYCLE    5 ..............................
........................................................................
   1    -83.9314245 -0.839314E+02  0.652E-02    2.11       0.0  T
   2    -83.9316758 -0.251244E-03  0.250E-02    2.11       1.0  T
   3    -83.9316871 -0.113496E-04  0.104E-02    2.10       1.5  T
   4    -83.9316887 -0.157566E-05  0.691E-03    2.09       2.2  T
   5    -83.9316890 -0.338877E-06  0.117E-03    2.09      13.0  T
   6    -83.9316891 -0.298980E-07  0.444E-04    2.09      34.3  T
   7    -83.9316891 -0.475490E-08  0.171E-04    2.09      89.1  T
   8    -83.9316891 -0.209440E-09  0.549E-05    2.09     277.7  T
     SCC iter.                  ...        0 min,  0.028 sec
     gradient                   ...        0 min,  0.084 sec
 * total energy  :   -83.1409836 Eh     change       -0.2717957E-02 Eh
   gradient norm :     0.0313846 Eh/α   predicted    -0.2129009E-02 ( -21.67%)
   displ. norm   :     0.4697037 α      lambda       -0.3220706E-02
   maximum displ.:     0.1663216 α      in ANC's #28, #7, #9, ...

........................................................................
.............................. CYCLE    6 ..............................
........................................................................
   1    -83.9311844 -0.839312E+02  0.111E-01    2.03       0.0  T
   2    -83.9318630 -0.678615E-03  0.333E-02    2.01       1.0  T
   3    -83.9318857 -0.227023E-04  0.136E-02    1.99       1.1  T
   4    -83.9318888 -0.304213E-05  0.965E-03    1.99       1.6  T
   5    -83.9318895 -0.714322E-06  0.180E-03    1.99       8.5  T
   6    -83.9318896 -0.685097E-07  0.704E-04    1.99      21.6  T
   7    -83.9318896 -0.138278E-07  0.255E-04    1.99      59.7  T
   8    -83.9318896 -0.449717E-09  0.811E-05    1.99     188.0  T
   9    -83.9318896 -0.314202E-10  0.195E-05    1.99     781.6  T
     SCC iter.                  ...        0 min,  0.031 sec
     gradient                   ...        0 min,  0.084 sec
 * total energy  :   -83.1429483 Eh     change       -0.1964626E-02 Eh
   gradient norm :     0.0440357 Eh/α   predicted    -0.1965632E-02 (   0.05%)
   displ. norm   :     0.1678184 α      lambda       -0.2529812E-02
   maximum displ.:     0.0594599 α      in ANC's #2, #9, #12, ...

........................................................................
.............................. CYCLE    7 ..............................
........................................................................
   1    -83.9323413 -0.839323E+02  0.451E-02    1.94       0.0  T
   2    -83.9324281 -0.867072E-04  0.107E-02    1.92       1.4  T
   3    -83.9324311 -0.304539E-05  0.603E-03    1.92       2.5  T
   4    -83.9324314 -0.307866E-06  0.280E-03    1.92       5.4  T
   5    -83.9324315 -0.631329E-07  0.872E-04    1.91      17.5  T
   6    -83.9324315 -0.106961E-07  0.229E-04    1.91      66.5  T
   7    -83.9324315 -0.192827E-08  0.115E-04    1.91     132.5  T
   8    -83.9324315 -0.147807E-09  0.306E-05    1.91     498.7  T
     SCC iter.                  ...        0 min,  0.027 sec
     gradient                   ...        0 min,  0.084 sec
 * total energy  :   -83.1450485 Eh     change       -0.2100241E-02 Eh
   gradient norm :     0.0363160 Eh/α   predicted    -0.1300562E-02 ( -38.08%)
   displ. norm   :     0.4299506 α      lambda       -0.6224638E-02
   maximum displ.:     0.1558681 α      in ANC's #22, #12, #2, ...

........................................................................
.............................. CYCLE    8 ..............................
........................................................................
   1    -83.9380729 -0.839381E+02  0.127E-01    1.81       0.0  T
   2    -83.9386412 -0.568259E-03  0.316E-02    1.76       1.0  T
   3    -83.9386762 -0.350969E-04  0.231E-02    1.75       1.0  T
   4    -83.9386848 -0.851633E-05  0.971E-03    1.74       1.6  T
   5    -83.9386850 -0.221124E-06  0.279E-03    1.74       5.5  T
   6    -83.9386851 -0.154547E-06  0.574E-04    1.74      26.6  T
   7    -83.9386851 -0.739246E-08  0.284E-04    1.74      53.7  T
   8    -83.9386851 -0.613809E-09  0.807E-05    1.74     189.0  T
   9    -83.9386851 -0.422347E-10  0.184E-05    1.74     830.2  T
     SCC iter.                  ...        0 min,  0.031 sec
     gradient                   ...        0 min,  0.083 sec
 * total energy  :   -83.1493206 Eh     change       -0.4272115E-02 Eh
   gradient norm :     0.0364195 Eh/α   predicted    -0.3687662E-02 ( -13.68%)
   displ. norm   :     0.4599593 α      lambda       -0.6812756E-02
   maximum displ.:     0.2377965 α      in ANC's #22, #28, #45, ...

........................................................................
.............................. CYCLE    9 ..............................
........................................................................
   1    -83.9351455 -0.839351E+02  0.106E-01    1.72       0.0  T
   2    -83.9355599 -0.414373E-03  0.565E-02    1.69       1.0  T
   3    -83.9357268 -0.166889E-03  0.162E-02    1.69       1.0  T
   4    -83.9357279 -0.109977E-05  0.605E-03    1.69       2.5  T
   5    -83.9357281 -0.206608E-06  0.166E-03    1.69       9.2  T
   6    -83.9357281 -0.511163E-07  0.264E-04    1.69      57.7  T
   7    -83.9357281 -0.140859E-08  0.891E-05    1.69     171.2  T
   8    -83.9357281 -0.842846E-10  0.296E-05    1.69     514.6  T
     SCC iter.                  ...        0 min,  0.029 sec
     gradient                   ...        0 min,  0.083 sec
 * total energy  :   -83.1505803 Eh     change       -0.1259648E-02 Eh
   gradient norm :     0.0541619 Eh/α   predicted    -0.4127119E-02 ( 227.64%)
   displ. norm   :     0.3452965 α      lambda       -0.7184661E-02
   maximum displ.:     0.1423790 α      in ANC's #43, #47, #58, ...

........................................................................
.............................. CYCLE   10 ..............................
........................................................................
   1    -83.9488293 -0.839488E+02  0.111E-01    1.70       0.0  T
   2    -83.9491796 -0.350319E-03  0.499E-02    1.67       1.0  T
   3    -83.9493239 -0.144210E-03  0.195E-02    1.67       1.0  T
   4    -83.9493286 -0.472680E-05  0.709E-03    1.67       2.2  T
   5    -83.9493288 -0.220652E-06  0.826E-04    1.66      18.5  T
   6    -83.9493288 -0.319668E-07  0.279E-04    1.66      54.7  T
   7    -83.9493288 -0.140173E-08  0.117E-04    1.67     130.4  T
   8    -83.9493288 -0.873399E-10  0.250E-05    1.67     611.1  T
     SCC iter.                  ...        0 min,  0.030 sec
     gradient                   ...        0 min,  0.083 sec
 * total energy  :   -83.1528718 Eh     change       -0.2291506E-02 Eh
   gradient norm :     0.0542340 Eh/α   predicted    -0.4020655E-02 (  75.46%)
   displ. norm   :     0.2177710 α      lambda       -0.5029987E-02
   maximum displ.:     0.0668831 α      in ANC's #9, #20, #10, ...

........................................................................
.............................. CYCLE   11 ..............................
........................................................................
   1    -83.9434638 -0.839435E+02  0.779E-02    1.70       0.0  T
   2    -83.9436796 -0.215762E-03  0.402E-02    1.72       1.0  T
   3    -83.9437580 -0.784340E-04  0.127E-02    1.72       1.2  T
   4    -83.9437589 -0.840117E-06  0.554E-03    1.72       2.8  T
   5    -83.9437590 -0.146263E-06  0.973E-04    1.72      15.7  T
   6    -83.9437590 -0.267082E-07  0.177E-04    1.72      86.0  T
   7    -83.9437590 -0.740414E-09  0.725E-05    1.72     210.5  T
     SCC iter.                  ...        0 min,  0.027 sec
     gradient                   ...        0 min,  0.083 sec
 * total energy  :   -83.1549826 Eh     change       -0.2110827E-02 Eh
   gradient norm :     0.0186752 Eh/α   predicted    -0.2634266E-02 (  24.80%)
   displ. norm   :     0.2389980 α      lambda       -0.1790125E-02
   maximum displ.:     0.0973383 α      in ANC's #10, #9, #22, ...

........................................................................
.............................. CYCLE   12 ..............................
........................................................................
   1    -83.9444326 -0.839444E+02  0.327E-02    1.72       0.0  T
   2    -83.9444680 -0.354637E-04  0.165E-02    1.71       1.0  T
   3    -83.9444862 -0.182180E-04  0.529E-03    1.71       2.9  T
   4    -83.9444864 -0.200644E-06  0.156E-03    1.71       9.8  T
   5    -83.9444864 -0.798380E-08  0.301E-04    1.71      50.7  T
   6    -83.9444865 -0.202988E-08  0.833E-05    1.71     183.1  T
   7    -83.9444865 -0.113488E-09  0.304E-05    1.71     501.1  T
     SCC iter.                  ...        0 min,  0.026 sec
     gradient                   ...        0 min,  0.083 sec
 * total energy  :   -83.1564846 Eh     change       -0.1502031E-02 Eh
   gradient norm :     0.0150351 Eh/α   predicted    -0.9461899E-03 ( -37.01%)
   displ. norm   :     0.5879752 α      lambda       -0.3782122E-02
   maximum displ.:     0.2312466 α      in ANC's #9, #10, #32, ...

........................................................................
.............................. CYCLE   13 ..............................
........................................................................
   1    -83.9489754 -0.839490E+02  0.845E-02    1.78       0.0  T
   2    -83.9492258 -0.250392E-03  0.442E-02    1.75       1.0  T
   3    -83.9493547 -0.128875E-03  0.130E-02    1.75       1.2  T
   4    -83.9493559 -0.113854E-05  0.469E-03    1.75       3.2  T
   5    -83.9493560 -0.138266E-06  0.768E-04    1.75      19.9  T
   6    -83.9493560 -0.210904E-07  0.208E-04    1.75      73.3  T
   7    -83.9493560 -0.830141E-09  0.788E-05    1.75     193.6  T
   8    -83.9493560 -0.602256E-10  0.230E-05    1.75     662.2  T
     SCC iter.                  ...        0 min,  0.029 sec
     gradient                   ...        0 min,  0.083 sec
 * total energy  :   -83.1589117 Eh     change       -0.2427083E-02 Eh
   gradient norm :     0.0172207 Eh/α   predicted    -0.2544826E-02 (   4.85%)
   displ. norm   :     0.3801347 α      lambda       -0.1211100E-02
   maximum displ.:     0.1935801 α      in ANC's #9, #10, #7, ...

........................................................................
.............................. CYCLE   14 ..............................
........................................................................
   1    -83.9488716 -0.839489E+02  0.346E-02    1.77       0.0  T
   2    -83.9489287 -0.571465E-04  0.197E-02    1.76       1.0  T
   3    -83.9489537 -0.249969E-04  0.370E-03    1.76       4.1  T
   4    -83.9489538 -0.114247E-06  0.204E-03    1.76       7.5  T
   5    -83.9489538 -0.276025E-08  0.378E-04    1.76      40.4  T
   6    -83.9489538 -0.488572E-08  0.103E-04    1.76     148.5  T
   7    -83.9489538 -0.148589E-09  0.415E-05    1.76     367.4  T
     SCC iter.                  ...        0 min,  0.025 sec
     gradient                   ...        0 min,  0.083 sec
 * total energy  :   -83.1597366 Eh     change       -0.8249186E-03 Eh
   gradient norm :     0.0152486 Eh/α   predicted    -0.6930588E-03 ( -15.98%)
   displ. norm   :     0.3157843 α      lambda       -0.9122805E-03
   maximum displ.:     0.1561491 α      in ANC's #9, #7, #10, ...

........................................................................
.............................. CYCLE   15 ..............................
........................................................................
   1    -83.9514318 -0.839514E+02  0.178E-02    1.78       0.0  T
   2    -83.9514460 -0.141958E-04  0.779E-03    1.77       2.0  T
   3    -83.9514482 -0.223947E-05  0.342E-03    1.77       4.5  T
   4    -83.9514484 -0.163066E-06  0.186E-03    1.77       8.2  T
   5    -83.9514484 -0.181692E-07  0.280E-04    1.77      54.4  T
   6    -83.9514484 -0.267099E-08  0.865E-05    1.77     176.4  T
   7    -83.9514484 -0.179085E-09  0.287E-05    1.77     531.8  T
     SCC iter.                  ...        0 min,  0.026 sec
     gradient                   ...        0 min,  0.083 sec
 * total energy  :   -83.1604268 Eh     change       -0.6901906E-03 Eh
   gradient norm :     0.0109820 Eh/α   predicted    -0.5016390E-03 ( -27.32%)
   displ. norm   :     0.3920318 α      lambda       -0.8744695E-03
   maximum displ.:     0.1708899 α      in ANC's #7, #9, #5, ...

........................................................................
.............................. CYCLE   16 ..............................
........................................................................
   1    -83.9524963 -0.839525E+02  0.217E-02    1.78       0.0  T
   2    -83.9525178 -0.214901E-04  0.116E-02    1.77       1.3  T
   3    -83.9525235 -0.573094E-05  0.414E-03    1.77       3.7  T
   4    -83.9525236 -0.126149E-06  0.222E-03    1.77       6.9  T
   5    -83.9525237 -0.335588E-07  0.459E-04    1.77      33.3  T
   6    -83.9525237 -0.370378E-08  0.100E-04    1.77     151.8  T
   7    -83.9525237 -0.279343E-09  0.341E-05    1.77     446.8  T
     SCC iter.                  ...        0 min,  0.025 sec
     gradient                   ...        0 min,  0.095 sec
 * total energy  :   -83.1610772 Eh     change       -0.6503664E-03 Eh
   gradient norm :     0.0096799 Eh/α   predicted    -0.5044342E-03 ( -22.44%)
   displ. norm   :     0.3986017 α      lambda       -0.7258235E-03
   maximum displ.:     0.1806900 α      in ANC's #7, #5, #6, ...

........................................................................
.............................. CYCLE   17 ..............................
........................................................................
   1    -83.9544165 -0.839544E+02  0.149E-02    1.77       0.0  T
   2    -83.9544253 -0.879150E-05  0.883E-03    1.77       1.7  T
   3    -83.9544283 -0.303620E-05  0.373E-03    1.77       4.1  T
   4    -83.9544284 -0.481288E-07  0.156E-03    1.76       9.8  T
   5    -83.9544284 -0.201407E-07  0.377E-04    1.76      40.4  T
   6    -83.9544284 -0.249823E-08  0.758E-05    1.76     201.2  T
   7    -83.9544284 -0.126562E-09  0.261E-05    1.76     583.4  T
     SCC iter.                  ...        0 min,  0.025 sec
     gradient                   ...        0 min,  0.084 sec
 * total energy  :   -83.1616123 Eh     change       -0.5350867E-03 Eh
   gradient norm :     0.0114032 Eh/α   predicted    -0.4205890E-03 ( -21.40%)
   displ. norm   :     0.4294515 α      lambda       -0.6174210E-03
   maximum displ.:     0.1912863 α      in ANC's #5, #7, #6, ...

........................................................................
.............................. CYCLE   18 ..............................
........................................................................
   1    -83.9534465 -0.839534E+02  0.115E-02    1.77       0.0  T
   2    -83.9534498 -0.330592E-05  0.531E-03    1.76       2.9  T
   3    -83.9534502 -0.323576E-06  0.330E-03    1.76       4.6  T
   4    -83.9534503 -0.954159E-07  0.104E-03    1.76      14.7  T
   5    -83.9534503 -0.249267E-07  0.298E-04    1.76      51.2  T
   6    -83.9534503 -0.197558E-08  0.648E-05    1.76     235.5  T
   7    -83.9534503 -0.705853E-10  0.236E-05    1.76     647.5  T
     SCC iter.                  ...        0 min,  0.027 sec
     gradient                   ...        0 min,  0.083 sec
 * total energy  :   -83.1620440 Eh     change       -0.4317561E-03 Eh
   gradient norm :     0.0131370 Eh/α   predicted    -0.3656556E-03 ( -15.31%)
   displ. norm   :     0.3586608 α      lambda       -0.6904319E-03
   maximum displ.:     0.1643571 α      in ANC's #4, #7, #5, ...

........................................................................
.............................. CYCLE   19 ..............................
........................................................................
   1    -83.9579727 -0.839580E+02  0.173E-02    1.77       0.0  T
   2    -83.9579823 -0.958639E-05  0.845E-03    1.77       1.8  T
   3    -83.9579825 -0.204106E-06  0.488E-03    1.77       3.1  T
   4    -83.9579824  0.544172E-07  0.132E-03    1.77      11.6  T
   5    -83.9579825 -0.104560E-06  0.263E-04    1.77      58.1  T
   6    -83.9579825 -0.261684E-08  0.818E-05    1.77     186.3  T
   7    -83.9579825 -0.543707E-10  0.287E-05    1.77     530.5  T
     SCC iter.                  ...        0 min,  0.027 sec
     gradient                   ...        0 min,  0.083 sec
 * total energy  :   -83.1623452 Eh     change       -0.3011610E-03 Eh
   gradient norm :     0.0121867 Eh/α   predicted    -0.3896254E-03 (  29.37%)
   displ. norm   :     0.4373841 α      lambda       -0.6818965E-03
   maximum displ.:     0.1972322 α      in ANC's #5, #4, #6, ...

........................................................................
.............................. CYCLE   20 ..............................
........................................................................
   1    -83.9540086 -0.839540E+02  0.183E-02    1.77       0.0  T
   2    -83.9540116 -0.303281E-05  0.103E-02    1.77       1.5  T
   3    -83.9540117 -0.528187E-07  0.522E-03    1.77       2.9  T
   4    -83.9540119 -0.218440E-06  0.986E-04    1.77      15.5  T
   5    -83.9540119 -0.573172E-07  0.280E-04    1.77      54.5  T
   6    -83.9540119 -0.233331E-08  0.889E-05    1.77     171.5  T
   7    -83.9540119 -0.991918E-10  0.184E-05    1.77     830.7  T
     SCC iter.                  ...        0 min,  0.025 sec
     gradient                   ...        0 min,  0.084 sec
 * total energy  :   -83.1626130 Eh     change       -0.2678490E-03 Eh
   gradient norm :     0.0134073 Eh/α   predicted    -0.4061772E-03 (  51.64%)
   displ. norm   :     0.1093695 α      lambda       -0.3462285E-03
   maximum displ.:     0.0640545 α      in ANC's #7, #9, #22, ...
 * RMSD in coord.:     0.5159645 α      energy gain  -0.5399335E-01 Eh

generating ANC from model Hessian ...
Using Lindh-Hessian (1995)
 Shifting diagonal of input Hessian by   9.830965863939865E-003
 Lowest  eigenvalues of input Hessian
    0.000000    0.000000    0.000000    0.000000    0.000000    0.000000
    0.010000    0.010166    0.010746    0.010876    0.011860    0.012209
    0.013003    0.013529    0.014408    0.014852    0.015217    0.015590
 Highest eigenvalues
    2.104418    2.132123    2.215839    2.320807    2.430793    2.449445
 

........................................................................
.............................. CYCLE   21 ..............................
........................................................................
   1    -83.9561010 -0.839561E+02  0.689E-03    1.78       0.0  T
   2    -83.9561022 -0.128186E-05  0.378E-03    1.78       4.0  T
   3    -83.9561024 -0.153249E-06  0.207E-03    1.78       7.4  T
   4    -83.9561024 -0.178818E-08  0.766E-04    1.78      19.9  T
   5    -83.9561024 -0.215792E-07  0.160E-04    1.78      95.2  T
   6    -83.9561024 -0.461725E-09  0.441E-05    1.78     345.8  T
     SCC iter.                  ...        0 min,  0.023 sec
     gradient                   ...        0 min,  0.083 sec
 * total energy  :   -83.1628446 Eh     change       -0.2315668E-03 Eh
   gradient norm :     0.0071085 Eh/α   predicted     0.0000000E+00 (-100.00%)
   displ. norm   :     0.0975136 α      lambda       -0.1897786E-03
   maximum displ.:     0.0463290 α      in ANC's #7, #10, #5, ...

........................................................................
.............................. CYCLE   22 ..............................
........................................................................
   1    -83.9569851 -0.839570E+02  0.504E-03    1.78       0.0  T
   2    -83.9569864 -0.132675E-05  0.312E-03    1.78       4.9  T
   3    -83.9569866 -0.198821E-06  0.160E-03    1.78       9.5  T
   4    -83.9569866  0.213245E-08  0.839E-04    1.78      18.2  T
   5    -83.9569866 -0.977758E-08  0.794E-05    1.78     192.1  T
   6    -83.9569866 -0.303245E-09  0.267E-05    1.78     570.5  T
     SCC iter.                  ...        0 min,  0.023 sec
     gradient                   ...        0 min,  0.083 sec
 * total energy  :   -83.1630054 Eh     change       -0.1607968E-03 Eh
   gradient norm :     0.0034359 Eh/α   predicted    -0.9835494E-04 ( -38.83%)
   displ. norm   :     0.2702527 α      lambda       -0.3362157E-03
   maximum displ.:     0.1300321 α      in ANC's #7, #5, #10, ...

........................................................................
.............................. CYCLE   23 ..............................
........................................................................
   1    -83.9572937 -0.839573E+02  0.940E-03    1.78       0.0  T
   2    -83.9572989 -0.518629E-05  0.597E-03    1.78       2.6  T
   3    -83.9572999 -0.968250E-06  0.280E-03    1.78       5.4  T
   4    -83.9572999  0.520025E-08  0.156E-03    1.78       9.8  T
   5    -83.9572999 -0.270472E-07  0.157E-04    1.78      96.9  T
   6    -83.9572999 -0.786969E-09  0.583E-05    1.78     261.4  T
     SCC iter.                  ...        0 min,  0.023 sec
     gradient                   ...        0 min,  0.084 sec
 * total energy  :   -83.1632322 Eh     change       -0.2267932E-03 Eh
   gradient norm :     0.0032593 Eh/α   predicted    -0.1803912E-03 ( -20.46%)
   displ. norm   :     0.2026023 α      lambda       -0.1195789E-03
   maximum displ.:     0.0923255 α      in ANC's #7, #5, #1, ...

........................................................................
.............................. CYCLE   24 ..............................
........................................................................
   1    -83.9568326 -0.839568E+02  0.372E-03    1.78       0.0  T
   2    -83.9568331 -0.509455E-06  0.236E-03    1.78       6.5  T
   3    -83.9568333 -0.138181E-06  0.120E-03    1.78      12.7  T
   4    -83.9568333 -0.861912E-08  0.399E-04    1.78      38.3  T
   5    -83.9568333 -0.112749E-08  0.766E-05    1.78     199.0  T
   6    -83.9568333 -0.979838E-10  0.280E-05    1.78     544.2  T
     SCC iter.                  ...        0 min,  0.028 sec
     gradient                   ...        0 min,  0.084 sec
 * total energy  :   -83.1633121 Eh     change       -0.7994104E-04 Eh
   gradient norm :     0.0040614 Eh/α   predicted    -0.6224384E-04 ( -22.14%)
   displ. norm   :     0.1392352 α      lambda       -0.6102307E-04
   maximum displ.:     0.0642037 α      in ANC's #5, #1, #7, ...

........................................................................
.............................. CYCLE   25 ..............................
........................................................................
   1    -83.9569240 -0.839569E+02  0.258E-03    1.77       0.0  T
   2    -83.9569242 -0.259322E-06  0.104E-03    1.77      14.6  T
   3    -83.9569243 -0.748058E-08  0.545E-04    1.77      28.0  T
   4    -83.9569243 -0.371301E-09  0.169E-04    1.77      90.4  T
   5    -83.9569243 -0.174140E-09  0.362E-05    1.77     420.8  T
     SCC iter.                  ...        0 min,  0.022 sec
     gradient                   ...        0 min,  0.083 sec
 * total energy  :   -83.1633567 Eh     change       -0.4453915E-04 Eh
   gradient norm :     0.0026965 Eh/α   predicted    -0.3110331E-04 ( -30.17%)
   displ. norm   :     0.1208697 α      lambda       -0.4276036E-04
   maximum displ.:     0.0597738 α      in ANC's #1, #5, #3, ...

........................................................................
.............................. CYCLE   26 ..............................
........................................................................
   1    -83.9571919 -0.839572E+02  0.333E-03    1.77       0.0  T
   2    -83.9571925 -0.594064E-06  0.146E-03    1.77      10.5  T
   3    -83.9571926 -0.347835E-07  0.685E-04    1.77      22.3  T
   4    -83.9571926 -0.413777E-09  0.440E-04    1.77      34.6  T
   5    -83.9571926 -0.306409E-08  0.581E-05    1.77     262.4  T
   6    -83.9571926 -0.951701E-10  0.167E-05    1.77     914.9  T
     SCC iter.                  ...        0 min,  0.024 sec
     gradient                   ...        0 min,  0.083 sec
 * total energy  :   -83.1633865 Eh     change       -0.2985028E-04 Eh
   gradient norm :     0.0013735 Eh/α   predicted    -0.2169448E-04 ( -27.32%)
   displ. norm   :     0.1333996 α      lambda       -0.2211544E-04
   maximum displ.:     0.0755020 α      in ANC's #1, #5, #3, ...

........................................................................
.............................. CYCLE   27 ..............................
........................................................................
   1    -83.9573057 -0.839573E+02  0.308E-03    1.77       0.0  T
   2    -83.9573062 -0.534560E-06  0.161E-03    1.77       9.5  T
   3    -83.9573063 -0.689378E-07  0.735E-04    1.77      20.8  T
   4    -83.9573063 -0.118010E-08  0.458E-04    1.77      33.3  T
   5    -83.9573063 -0.235229E-08  0.536E-05    1.77     284.3  T
   6    -83.9573063 -0.727169E-10  0.172E-05    1.77     889.0  T
     SCC iter.                  ...        0 min,  0.023 sec
     gradient                   ...        0 min,  0.084 sec
 * total energy  :   -83.1634072 Eh     change       -0.2063141E-04 Eh
   gradient norm :     0.0018033 Eh/α   predicted    -0.1114561E-04 ( -45.98%)
   displ. norm   :     0.0639555 α      lambda       -0.1141592E-04
   maximum displ.:     0.0409805 α      in ANC's #1, #10, #3, ...

........................................................................
.............................. CYCLE   28 ..............................
........................................................................
   1    -83.9574391 -0.839574E+02  0.134E-03    1.77       0.0  T
   2    -83.9574391 -0.514539E-07  0.603E-04    1.77      25.3  T
   3    -83.9574391 -0.616421E-08  0.347E-04    1.77      44.0  T
   4    -83.9574391 -0.855437E-09  0.132E-04    1.77     115.5  T
   5    -83.9574391 -0.335262E-09  0.363E-05    1.77     419.8  T
     SCC iter.                  ...        0 min,  0.020 sec
     gradient                   ...        0 min,  0.083 sec
 * total energy  :   -83.1634208 Eh     change       -0.1365467E-04 Eh
   gradient norm :     0.0013825 Eh/α   predicted    -0.5720876E-05 ( -58.10%)
   displ. norm   :     0.0897328 α      lambda       -0.1315622E-04
   maximum displ.:     0.0598008 α      in ANC's #1, #7, #2, ...

........................................................................
.............................. CYCLE   29 ..............................
........................................................................
   1    -83.9573370 -0.839573E+02  0.222E-03    1.78       0.0  T
   2    -83.9573372 -0.200593E-06  0.697E-04    1.78      21.9  T
   3    -83.9573372 -0.489042E-08  0.352E-04    1.78      43.3  T
   4    -83.9573372 -0.145093E-09  0.161E-04    1.78      95.0  T
   5    -83.9573372 -0.398344E-09  0.480E-05    1.78     317.8  T
     SCC iter.                  ...        0 min,  0.021 sec
     gradient                   ...        0 min,  0.083 sec
 * total energy  :   -83.1634352 Eh     change       -0.1436573E-04 Eh
   gradient norm :     0.0008320 Eh/α   predicted    -0.6604742E-05 ( -54.02%)
   displ. norm   :     0.0760001 α      lambda       -0.7872193E-05
   maximum displ.:     0.0545076 α      in ANC's #1, #2, #7, ...

........................................................................
.............................. CYCLE   30 ..............................
........................................................................
   1    -83.9574354 -0.839574E+02  0.118E-03    1.78       0.0  T
   2    -83.9574355 -0.585061E-07  0.389E-04    1.78      39.2  T
   3    -83.9574355 -0.188422E-08  0.189E-04    1.78      80.6  T
   4    -83.9574355 -0.228070E-09  0.109E-04    1.78     140.2  T
     SCC iter.                  ...        0 min,  0.017 sec
     gradient                   ...        0 min,  0.084 sec
 * total energy  :   -83.1634449 Eh     change       -0.9737035E-05 Eh
   gradient norm :     0.0008725 Eh/α   predicted    -0.3946930E-05 ( -59.46%)
   displ. norm   :     0.0745361 α      lambda       -0.8198345E-05
   maximum displ.:     0.0557397 α      in ANC's #1, #2, #8, ...

........................................................................
.............................. CYCLE   31 ..............................
........................................................................
   1    -83.9573843 -0.839574E+02  0.968E-04    1.78       0.0  T
   2    -83.9573843 -0.370945E-07  0.458E-04    1.78      33.3  T
   3    -83.9573843 -0.820744E-08  0.233E-04    1.78      65.6  T
   4    -83.9573843 -0.661629E-09  0.978E-05    1.78     155.9  T
   5    -83.9573843 -0.511449E-10  0.290E-05    1.78     526.6  T
     SCC iter.                  ...        0 min,  0.020 sec
     gradient                   ...        0 min,  0.084 sec
 * total energy  :   -83.1634555 Eh     change       -0.1056355E-04 Eh
   gradient norm :     0.0009440 Eh/α   predicted    -0.4111712E-05 ( -61.08%)
   displ. norm   :     0.0925220 α      lambda       -0.9856411E-05
   maximum displ.:     0.0689844 α      in ANC's #1, #2, #8, ...

........................................................................
.............................. CYCLE   32 ..............................
........................................................................
   1    -83.9575401 -0.839575E+02  0.132E-03    1.78       0.0  T
   2    -83.9575401 -0.394202E-07  0.613E-04    1.78      24.9  T
   3    -83.9575401 -0.113023E-07  0.357E-04    1.78      42.7  T
   4    -83.9575401 -0.178289E-08  0.111E-04    1.78     137.9  T
   5    -83.9575401 -0.779323E-10  0.338E-05    1.78     451.7  T
     SCC iter.                  ...        0 min,  0.019 sec
     gradient                   ...        0 min,  0.084 sec
 * total energy  :   -83.1634676 Eh     change       -0.1214478E-04 Eh
   gradient norm :     0.0007093 Eh/α   predicted    -0.4947413E-05 ( -59.26%)
   displ. norm   :     0.0977341 α      lambda       -0.8659114E-05
   maximum displ.:     0.0739098 α      in ANC's #1, #2, #8, ...

........................................................................
.............................. CYCLE   33 ..............................
........................................................................
   1    -83.9574384 -0.839574E+02  0.136E-03    1.78       0.0  T
   2    -83.9574384 -0.426471E-07  0.578E-04    1.77      26.4  T
   3    -83.9574384 -0.913124E-08  0.350E-04    1.77      43.6  T
   4    -83.9574384 -0.229284E-08  0.111E-04    1.77     137.3  T
   5    -83.9574384 -0.424478E-10  0.323E-05    1.77     471.9  T
     SCC iter.                  ...        0 min,  0.019 sec
     gradient                   ...        0 min,  0.084 sec
 * total energy  :   -83.1634782 Eh     change       -0.1059911E-04 Eh
   gradient norm :     0.0006740 Eh/α   predicted    -0.4350912E-05 ( -58.95%)
   displ. norm   :     0.0791630 α      lambda       -0.6285418E-05
   maximum displ.:     0.0614855 α      in ANC's #1, #2, #8, ...

........................................................................
.............................. CYCLE   34 ..............................
........................................................................
   1    -83.9575326 -0.839575E+02  0.721E-04    1.77       0.0  T
   2    -83.9575327 -0.124590E-07  0.288E-04    1.77      53.0  T
   3    -83.9575327 -0.325400E-09  0.157E-04    1.77      97.0  T
   4    -83.9575327 -0.146201E-09  0.607E-05    1.77     251.2  T
     SCC iter.                  ...        0 min,  0.015 sec
     gradient                   ...        0 min,  0.084 sec
 * total energy  :   -83.1634866 Eh     change       -0.8326296E-05 Eh
   gradient norm :     0.0005691 Eh/α   predicted    -0.3152473E-05 ( -62.14%)
   displ. norm   :     0.0751634 α      lambda       -0.6095948E-05
   maximum displ.:     0.0590513 α      in ANC's #1, #2, #8, ...

........................................................................
.............................. CYCLE   35 ..............................
........................................................................
   1    -83.9575789 -0.839576E+02  0.536E-04    1.77       0.0  T
   2    -83.9575789 -0.905388E-08  0.250E-04    1.77      61.1  T
   3    -83.9575789 -0.806097E-09  0.134E-04    1.77     114.2  T
   4    -83.9575789 -0.931948E-10  0.604E-05    1.77     252.5  T
     SCC iter.                  ...        0 min,  0.015 sec
     gradient                   ...        0 min,  0.084 sec
 * total energy  :   -83.1634949 Eh     change       -0.8349903E-05 Eh
   gradient norm :     0.0004928 Eh/α   predicted    -0.3060367E-05 ( -63.35%)
   displ. norm   :     0.0786737 α      lambda       -0.6373030E-05
   maximum displ.:     0.0625620 α      in ANC's #1, #2, #7, ...

........................................................................
.............................. CYCLE   36 ..............................
........................................................................
   1    -83.9575526 -0.839576E+02  0.736E-04    1.77       0.0  T
   2    -83.9575526 -0.186590E-07  0.363E-04    1.77      42.0  T
   3    -83.9575526 -0.565969E-08  0.163E-04    1.77      93.6  T
   4    -83.9575526 -0.242267E-09  0.717E-05    1.77     212.8  T
     SCC iter.                  ...        0 min,  0.015 sec
     gradient                   ...        0 min,  0.084 sec
 * total energy  :   -83.1635034 Eh     change       -0.8534765E-05 Eh
   gradient norm :     0.0004224 Eh/α   predicted    -0.3195767E-05 ( -62.56%)
   displ. norm   :     0.0742256 α      lambda       -0.5561972E-05
   maximum displ.:     0.0602868 α      in ANC's #1, #2, #7, ...

........................................................................
.............................. CYCLE   37 ..............................
........................................................................
   1    -83.9575894 -0.839576E+02  0.698E-04    1.77       0.0  T
   2    -83.9575894 -0.153705E-07  0.351E-04    1.77      43.5  T
   3    -83.9575894 -0.512540E-08  0.161E-04    1.77      94.9  T
   4    -83.9575894 -0.196053E-09  0.593E-05    1.77     257.3  T
     SCC iter.                  ...        0 min,  0.015 sec
     gradient                   ...        0 min,  0.084 sec
 * total energy  :   -83.1635109 Eh     change       -0.7413633E-05 Eh
   gradient norm :     0.0003772 Eh/α   predicted    -0.2790261E-05 ( -62.36%)
   displ. norm   :     0.0626728 α      lambda       -0.4385297E-05
   maximum displ.:     0.0519820 α      in ANC's #1, #3, #18, ...

........................................................................
.............................. CYCLE   38 ..............................
........................................................................
   1    -83.9575293 -0.839575E+02  0.663E-04    1.77       0.0  T
   2    -83.9575293 -0.150184E-07  0.327E-04    1.77      46.6  T
   3    -83.9575293 -0.533728E-08  0.138E-04    1.77     110.4  T
   4    -83.9575293 -0.237449E-09  0.544E-05    1.77     280.3  T
     SCC iter.                  ...        0 min,  0.015 sec
     gradient                   ...        0 min,  0.085 sec
 * total energy  :   -83.1635169 Eh     change       -0.6072466E-05 Eh
   gradient norm :     0.0003720 Eh/α   predicted    -0.2200744E-05 ( -63.76%)
   displ. norm   :     0.0527426 α      lambda       -0.3786667E-05
   maximum displ.:     0.0440679 α      in ANC's #1, #3, #18, ...

........................................................................
.............................. CYCLE   39 ..............................
........................................................................
   1    -83.9575590 -0.839576E+02  0.391E-04    1.77       0.0  T
   2    -83.9575590 -0.480955E-08  0.186E-04    1.77      82.2  T
   3    -83.9575590 -0.101974E-08  0.982E-05    1.77     155.4  T
     SCC iter.                  ...        0 min,  0.012 sec
     gradient                   ...        0 min,  0.085 sec
 * total energy  :   -83.1635223 Eh     change       -0.5361427E-05 Eh
   gradient norm :     0.0003259 Eh/α   predicted    -0.1898838E-05 ( -64.58%)
   displ. norm   :     0.0517826 α      lambda       -0.3871002E-05
   maximum displ.:     0.0429476 α      in ANC's #1, #3, #6, ...

........................................................................
.............................. CYCLE   40 ..............................
........................................................................
   1    -83.9575316 -0.839575E+02  0.323E-04    1.77       0.0  T
   2    -83.9575316 -0.167394E-08  0.165E-04    1.77      92.7  T
   3    -83.9575316 -0.163922E-09  0.859E-05    1.77     177.5  T
     SCC iter.                  ...        0 min,  0.011 sec
     gradient                   ...        0 min,  0.079 sec
 * total energy  :   -83.1635279 Eh     change       -0.5595113E-05 Eh
   gradient norm :     0.0002956 Eh/α   predicted    -0.1940443E-05 ( -65.32%)
   displ. norm   :     0.0598786 α      lambda       -0.4609153E-05
   maximum displ.:     0.0484487 α      in ANC's #1, #3, #6, ...

........................................................................
.............................. CYCLE   41 ..............................
........................................................................
   1    -83.9575155 -0.839575E+02  0.352E-04    1.77       0.0  T
   2    -83.9575155 -0.168130E-08  0.178E-04    1.77      85.8  T
   3    -83.9575155 -0.191534E-09  0.911E-05    1.77     167.3  T
     SCC iter.                  ...        0 min,  0.008 sec
     gradient                   ...        0 min,  0.073 sec
 * total energy  :   -83.1635345 Eh     change       -0.6651927E-05 Eh
   gradient norm :     0.0003166 Eh/α   predicted    -0.2311193E-05 ( -65.26%)
   displ. norm   :     0.0793538 α      lambda       -0.6084552E-05
   maximum displ.:     0.0627926 α      in ANC's #1, #3, #6, ...

........................................................................
.............................. CYCLE   42 ..............................
........................................................................
   1    -83.9574976 -0.839575E+02  0.506E-04    1.77       0.0  T
   2    -83.9574976 -0.530851E-08  0.247E-04    1.77      61.8  T
   3    -83.9574976 -0.133743E-08  0.133E-04    1.77     114.6  T
   4    -83.9574976 -0.240334E-09  0.394E-05    1.77     387.3  T
     SCC iter.                  ...        0 min,  0.015 sec
     gradient                   ...        0 min,  0.082 sec
 * total energy  :   -83.1635433 Eh     change       -0.8717119E-05 Eh
   gradient norm :     0.0003674 Eh/α   predicted    -0.3051835E-05 ( -64.99%)
   displ. norm   :     0.1079888 α      lambda       -0.7956729E-05
   maximum displ.:     0.0843992 α      in ANC's #1, #3, #6, ...
 * RMSD in coord.:     0.2509566 α      energy gain  -0.9302061E-03 Eh

generating ANC from model Hessian ...
Using Lindh-Hessian (1995)
 Shifting diagonal of input Hessian by   9.828235089771263E-003
 Lowest  eigenvalues of input Hessian
    0.000000    0.000000    0.000000    0.000000    0.000000    0.000000
    0.010000    0.010187    0.010744    0.010859    0.011911    0.012254
    0.013031    0.013558    0.014591    0.014997    0.015334    0.015672
 Highest eigenvalues
    2.107622    2.129753    2.213623    2.317911    2.435909    2.448790
 

........................................................................
.............................. CYCLE   43 ..............................
........................................................................
   1    -83.9574614 -0.839575E+02  0.614E-04    1.77       0.0  T
   2    -83.9574614 -0.679397E-08  0.284E-04    1.77      53.7  T
   3    -83.9574614 -0.152819E-08  0.161E-04    1.77      94.5  T
   4    -83.9574614 -0.446335E-09  0.421E-05    1.77     362.4  T
     SCC iter.                  ...        0 min,  0.015 sec
     gradient                   ...        0 min,  0.083 sec
 * total energy  :   -83.1635543 Eh     change       -0.1101679E-04 Eh
   gradient norm :     0.0004505 Eh/α   predicted     0.0000000E+00 (-100.00%)
   displ. norm   :     0.0200276 α      lambda       -0.2381696E-06
   maximum displ.:     0.0173673 α      in ANC's #1, #10, #12, ...

........................................................................
.............................. CYCLE   44 ..............................
........................................................................
   1    -83.9576229 -0.839576E+02  0.453E-04    1.77       0.0  T
   2    -83.9576229 -0.211227E-08  0.253E-04    1.77      60.3  T
   3    -83.9576229 -0.192415E-10  0.104E-04    1.77     146.0  T
   4    -83.9576229 -0.652278E-10  0.264E-05    1.77     577.8  T
     SCC iter.                  ...        0 min,  0.014 sec
     gradient                   ...        0 min,  0.083 sec
 * total energy  :   -83.1635575 Eh     change       -0.3238078E-05 Eh
   gradient norm :     0.0002163 Eh/α   predicted    -0.1189405E-05 ( -63.27%)
   displ. norm   :     0.0417399 α      lambda       -0.3878837E-05
   maximum displ.:     0.0327770 α      in ANC's #1, #10, #12, ...

   *** GEOMETRY OPTIMIZATION CONVERGED AFTER 44 ITERATIONS ***

------------------------------------------------------------------------
 total energy gain   :        -0.0549378 Eh      -34.4740 kcal/mol
 total RMSD          :         0.6398288 a0        0.3386 Å
 total power (kW/mol):        -3.2781638 (step)  -22.4087 (real)
------------------------------------------------------------------------

 ANCopt (total)                0 d,  0 h,  0 min,  6.437 sec
 optimizer setup                ...        0 min,  0.001 sec (  0.013%)
 model hessian                  ...        0 min,  0.073 sec (  1.137%)
 ANC generation                 ...        0 min,  0.007 sec (  0.115%)
 coordinate transformation      ...        0 min,  0.002 sec (  0.024%)
 single point calculation       ...        0 min,  6.330 sec ( 98.341%)
 optimization log               ...        0 min,  0.012 sec (  0.184%)
 hessian update                 ...        0 min,  0.001 sec (  0.020%)
 rational function              ...        0 min,  0.006 sec (  0.099%)

================
 final structure:
================
43
 xtb: 6.5.1 (579679a)
C           -1.51814444767947        3.92176270257098        0.22459686045210
O           -1.38852523803925        2.49288557024960        0.08949310009725
C           -2.43459490386822        1.75508813706251        0.12528832131315
O           -3.57708994983418        2.33176387506249        0.29150542248539
C           -2.26877235127674        0.32822227188579       -0.03552556234230
N           -0.96788137619759       -0.08474840560897       -0.17739406143257
C           -0.71778389609844       -1.33837286657958       -0.35768779998314
C            0.70770416332915       -1.81057822847879       -0.53920094470401
C            0.92036264884288       -2.17378102410105       -2.01840923552122
C            1.01225603647645       -3.00383847646468        0.37749546936560
N            1.56367967672118       -0.68774093906991       -0.17526719854722
C            2.91244292376151       -0.72938275689761       -0.20907881029508
O            3.58236755385207       -1.67012314467109       -0.59462926685745
C            3.48925393945909        0.53820424275562        0.30527698911261
N            2.82174666828887        1.56252413328701        0.74685839635982
N            3.74007807842128        2.48706098010883        1.14376830904275
C            4.91021144375878        1.96687654980822        0.92026331843219
C            6.23371897134188        2.57212594183079        1.18673641493205
O            4.81613683072872        0.73845719668678        0.39126466641264
N           -1.71666757175543       -2.26282910529053       -0.42712997287685
C           -3.05901298729944       -1.99211085657251       -0.27967178758453
O           -3.88574694488342       -2.87811977099499       -0.34132595535666
C           -3.33345137551832       -0.55962789434738       -0.05757093068757
O           -4.56239111352999       -0.09301922202834        0.10820354765676
C           -5.73151058091928       -0.93913443132269        0.12540535893202
H           -1.88773265456850        4.15463612204555        1.22374657038878
H           -2.21572873352745        4.29531286973183       -0.52548379346313
H           -0.52184424261824        4.32958039963050        0.07033632658234
H            0.74269180525627       -1.29970427876344       -2.64262777893270
H            0.23024011372267       -2.96410533637353       -2.30537669923976
H            1.94188743634782       -2.52113781045525       -2.16509342477241
H            0.83371105076416       -2.73034508933949        1.41586632283100
H            0.38293890164097       -3.85136930332513        0.11623727487822
H            2.05428325814875       -3.29581510995371        0.25667252939596
H            1.10287154685090        0.15159883739227        0.15176034484258
H            6.79787984925886        1.94252420743392        1.87496869786538
H            6.10282982568934        3.56068435388646        1.61998792899886
H            6.80080300007692        2.65107147031235        0.25921206720383
H           -1.50198473157694       -3.23881513425005       -0.58689153756484
H           -4.34716093768316        1.72218062140654        0.30304801230953
H           -5.84233539299010       -1.44551667115943       -0.83367543469072
H           -5.65364100160802       -1.66713563570686        0.93328597422831
H           -6.56809829127111       -0.26520699139635        0.29902097072669
 
 Bond Distances (Angstroems)
 ---------------------------
C1-O2=1.4411         C1-H26=1.0905        C1-H27=1.0903        C1-H28=1.0875        O2-C1=1.4411         O2-C3=1.2806         
C3-O2=1.2806         C3-O4=1.2905         C3-C5=1.4454         O4-C3=1.2905         O4-H40=0.9822        C5-C3=1.4454         
C5-N6=1.3722         C5-C23=1.3865        N6-C5=1.3722         N6-C7=1.2910         C7-N6=1.2910         C7-C8=1.5126         
C7-N20=1.3628        C8-C7=1.5126         C8-C9=1.5379         C8-C10=1.5352        C8-N11=1.4580        C9-C8=1.5379         
C9-H29=1.0887        C9-H30=1.0878        C9-H31=1.0889        C10-C8=1.5352        C10-H32=1.0885       C10-H33=1.0875       
C10-H34=1.0889       N11-C8=1.4580        N11-C12=1.3498       N11-H35=1.0118       C12-N11=1.3498       C12-O13=1.2176       
C12-C14=1.4846       O13-C12=1.2176       C14-C12=1.4846       C14-N15=1.2999       C14-O19=1.3447       N15-C14=1.2999       
N15-N16=1.3622       N16-N15=1.3622       N16-C17=1.2999       C17-N16=1.2999       C17-C18=1.4795       C17-O19=1.3408       
C18-C17=1.4795       C18-H36=1.0901       C18-H37=1.0872       C18-H38=1.0900       O19-C14=1.3447       O19-C17=1.3408       
N20-C7=1.3628        N20-C21=1.3773       N20-H39=1.0120       C21-N20=1.3773       C21-O22=1.2134       C21-C23=1.4753       
O22-C21=1.2134       C23-C5=1.3865        C23-C21=1.4753       C23-O24=1.3250       O24-C23=1.3250       O24-C25=1.4433       
C25-O24=1.4433       C25-H41=1.0902       C25-H42=1.0903       C25-H43=1.0882       H26-C1=1.0905        H27-C1=1.0903        
H28-C1=1.0875        H29-C9=1.0887        H30-C9=1.0878        H31-C9=1.0889        H32-C10=1.0885       H33-C10=1.0875       
H34-C10=1.0889       H35-N11=1.0118       H36-C18=1.0901       H37-C18=1.0872       H38-C18=1.0900       H39-N20=1.0120       
H40-O4=0.9822        H41-C25=1.0902       H42-C25=1.0903       H43-C25=1.0882       
 C  H  Rav=1.0890 sigma=0.0011  Rmin=1.0872  Rmax=1.0905    15
 C  C  Rav=1.4821 sigma=0.0467  Rmin=1.3865  Rmax=1.5379     8
 N  H  Rav=1.0119 sigma=0.0001  Rmin=1.0118  Rmax=1.0120     2
 N  C  Rav=1.3514 sigma=0.0519  Rmin=1.2910  Rmax=1.4580     8
 N  N  Rav=1.3622 sigma=0.0000  Rmin=1.3622  Rmax=1.3622     1
 O  H  Rav=0.9822 sigma=0.0000  Rmin=0.9822  Rmax=0.9822     1
 O  C  Rav=1.3219 sigma=0.0783  Rmin=1.2134  Rmax=1.4433     9
 
 selected bond angles (degree)
 --------------------
H26-C1-O2=109.16               H27-C1-O2=109.44               H27-C1-H26=109.90              H28-C1-O2=106.03               
H28-C1-H26=111.12              H28-C1-H27=111.10              C3-O2-C1=119.68                O4-C3-O2=117.99                
C5-C3-O2=118.16                C5-C3-O4=123.85                H40-O4-C3=114.73               N6-C5-C3=114.67                
C23-C5-C3=123.08               C23-C5-N6=122.25               C7-N6-C5=119.36                C8-C7-N6=120.16                
N20-C7-N6=121.59               N20-C7-C8=118.22               C9-C8-C7=108.63                C10-C8-C7=110.97               
C10-C8-C9=111.30               N11-C8-C7=106.43               N11-C8-C9=109.92               N11-C8-C10=109.45              
H29-C9-C8=109.83               H30-C9-C8=109.73               H30-C9-H29=109.18              H31-C9-C8=109.55               
H31-C9-H29=109.39              H31-C9-H30=109.14              H32-C10-C8=109.98              H33-C10-C8=110.33              
H33-C10-H32=109.27             H34-C10-C8=109.39              H34-C10-H32=109.28             H34-C10-H33=108.55             
 
 selected dihedral angles (degree)
 ---------------------------------
C3-O2-C1-H26= 65.38           C3-O2-C1-H27=305.07           C3-O2-C1-H28=185.16           O4-C3-O2-C1=359.59            
C5-C3-O2-C1=179.00            H40-O4-C3-O2=179.45           H40-O4-C3-C5=  0.07           N6-C5-C3-O2=  1.65            
N6-C5-C3-O4=181.03            C23-C5-C3-O2=182.18           C23-C5-C3-O4=  1.56           C7-N6-C5-C3=181.57            
C7-N6-C5-C23=  1.04           C8-C7-N6-C5=178.98            N20-C7-N6-C5=  0.81           C9-C8-C7-N6=253.70            
C9-C8-C7-N20= 71.93           C10-C8-C7-N6=131.03           C10-C8-C7-N20=309.26          N11-C8-C7-N6= 12.02           
N11-C8-C7-N20=190.25          H29-C9-C8-C7= 60.12           H29-C9-C8-C10=182.60          H29-C9-C8-N11=304.04          
H30-C9-C8-C7=300.10           H30-C9-C8-C10= 62.57          H30-C9-C8-N11=184.01          H31-C9-C8-C7=180.29           
H31-C9-C8-C10=302.77          H31-C9-C8-N11= 64.21          H32-C10-C8-C7=302.37          H32-C10-C8-C9=181.26          
H32-C10-C8-N11= 59.55         H33-C10-C8-C7= 62.99          H33-C10-C8-C9=301.88          H33-C10-C8-N11=180.17         
H34-C10-C8-C7=182.34          H34-C10-C8-C9= 61.23          H34-C10-C8-N11=299.52         
           -------------------------------------------------
          |                Final Singlepoint                |
           -------------------------------------------------

          ...................................................
          :                      SETUP                      :
          :.................................................:
          :  # basis functions                 136          :
          :  # atomic orbitals                 136          :
          :  # shells                           86          :
          :  # electrons                       134          :
          :  # halogen bonds                     0          :
          :  max. iterations                   250          :
          :  Hamiltonian                  GFN1-xTB          :
          :  restarted?                      false          :
          :  GBSA solvation                   true          :
          :  PC potential                    false          :
          :  electronic temp.          300.0000000     K    :
          :  accuracy                    1.0000000          :
          :  -> integral cutoff          0.2500000E+02      :
          :  -> integral neglect         0.1000000E-07      :
          :  -> SCF convergence          0.1000000E-05 Eh   :
          :  -> wf. convergence          0.2000000E-04 e    :
          :  Broyden damping             0.4000000          :
          ...................................................

 iter      E             dE          RMSdq      gap      omega  full diag
   1    -83.9576229 -0.839576E+02  0.702E-06    1.77       0.0  T
   2    -83.9576229 -0.115108E-11  0.390E-06    1.77    3908.7  T
   3    -83.9576229 -0.724754E-12  0.172E-06    1.77    8882.1  T

   *** convergence criteria satisfied after 3 iterations ***

         #    Occupation            Energy/Eh            Energy/eV
      -------------------------------------------------------------
         1        2.0000           -0.9155005             -24.9120
       ...           ...                  ...                  ...
        61        2.0000           -0.4884108             -13.2903
        62        2.0000           -0.4878085             -13.2739
        63        2.0000           -0.4713871             -12.8271
        64        2.0000           -0.4694928             -12.7755
        65        2.0000           -0.4646462             -12.6437
        66        2.0000           -0.4578758             -12.4594
        67        2.0000           -0.4537559             -12.3473 (HOMO)
        68                         -0.3885853             -10.5739 (LUMO)
        69                         -0.3201051              -8.7105
        70                         -0.3166005              -8.6151
        71                         -0.2954699              -8.0401
        72                         -0.2619200              -7.1272
       ...                                ...                  ...
       136                          0.7195104              19.5789
      -------------------------------------------------------------
                  HL-Gap            0.0651706 Eh            1.7734 eV
             Fermi-level           -0.4211706 Eh          -11.4606 eV

 SCC (total)                   0 d,  0 h,  0 min,  0.135 sec
 SCC setup                      ...        0 min,  0.002 sec (  1.440%)
 Dispersion                     ...        0 min,  0.000 sec (  0.263%)
 classical contributions        ...        0 min,  0.000 sec (  0.084%)
 integral evaluation            ...        0 min,  0.036 sec ( 26.715%)
 iterations                     ...        0 min,  0.011 sec (  8.486%)
 molecular gradient             ...        0 min,  0.084 sec ( 62.342%)
 printout                       ...        0 min,  0.001 sec (  0.634%)

         :::::::::::::::::::::::::::::::::::::::::::::::::::::
         ::                     SUMMARY                     ::
         :::::::::::::::::::::::::::::::::::::::::::::::::::::
         :: total energy             -83.163557507558 Eh    ::
         :: total w/o Gsasa/hb       -83.138584977567 Eh    ::
         :: gradient norm              0.000217590427 Eh/a0 ::
         :: HOMO-LUMO gap              1.773382674469 eV    ::
         ::.................................................::
         :: SCC energy               -83.957622871169 Eh    ::
         :: -> electrostatic           0.394161291819 Eh    ::
         :: -> Gsolv                  -0.107851415294 Eh    ::
         ::    -> Gelec               -0.082878885304 Eh    ::
         ::    -> Gsasa               -0.025202766191 Eh    ::
         ::    -> Ghb                 -0.007394042804 Eh    ::
         ::    -> Gshift               0.007624279005 Eh    ::
         :: repulsion energy           0.819804166314 Eh    ::
         :: dispersion energy         -0.025738802703 Eh    ::
         :: halogen bond corr.         0.000000000000 Eh    ::
         :: add. restraining           0.000000000000 Eh    ::
         :: total charge               1.000000000000 e     ::
         :::::::::::::::::::::::::::::::::::::::::::::::::::::

           -------------------------------------------------
          |                Property Printout                |
           -------------------------------------------------

    * Orbital Energies and Occupations

         #    Occupation            Energy/Eh            Energy/eV
      -------------------------------------------------------------
         1        2.0000           -0.9155005             -24.9120
       ...           ...                  ...                  ...
        55        2.0000           -0.5287186             -14.3872
        56        2.0000           -0.5204113             -14.1611
        57        2.0000           -0.5159439             -14.0395
        58        2.0000           -0.5148177             -14.0089
        59        2.0000           -0.5110861             -13.9074
        60        2.0000           -0.4918545             -13.3840
        61        2.0000           -0.4884108             -13.2903
        62        2.0000           -0.4878085             -13.2739
        63        2.0000           -0.4713871             -12.8271
        64        2.0000           -0.4694928             -12.7755
        65        2.0000           -0.4646462             -12.6437
        66        2.0000           -0.4578758             -12.4594
        67        2.0000           -0.4537559             -12.3473 (HOMO)
        68                         -0.3885853             -10.5739 (LUMO)
        69                         -0.3201051              -8.7105
        70                         -0.3166005              -8.6151
        71                         -0.2954699              -8.0401
        72                         -0.2619200              -7.1272
        73                         -0.2057537              -5.5988
        74                         -0.2038135              -5.5460
        75                         -0.1690303              -4.5995
        76                         -0.1534287              -4.1750
        77                         -0.1489970              -4.0544
        78                         -0.1451585              -3.9500
       ...                                ...                  ...
       136                          0.7195104              19.5789
      -------------------------------------------------------------
                  HL-Gap            0.0651706 Eh            1.7734 eV
             Fermi-level           -0.4211706 Eh          -11.4606 eV

  Mulliken/CM5 charges         n(s)   n(p)   n(d)
     1C     0.15363  0.03188   0.996  2.851  0.000
     2O    -0.32840 -0.41488   1.663  4.666  0.000
     3C     0.58476  0.64357   0.976  2.440  0.000
     4O    -0.45382 -0.65175   1.683  4.771  0.000
     5C     0.08687  0.16342   1.022  2.891  0.000
     6N    -0.36283 -0.55173   1.519  3.843  0.000
     7C     0.29670  0.44819   1.025  2.678  0.000
     8C     0.15413  0.19529   1.064  2.782  0.000
     9C    -0.10768 -0.24720   1.023  3.084  0.000
    10C    -0.11399 -0.25371   1.024  3.090  0.000
    11N    -0.34337 -0.69305   1.427  3.916  0.000
    12C     0.47133  0.58020   0.975  2.554  0.000
    13O    -0.56623 -0.61269   1.725  4.842  0.000
    14C     0.33355  0.45926   1.006  2.660  0.000
    15N    -0.24503 -0.35535   1.569  3.676  0.000
    16N    -0.26412 -0.37136   1.565  3.700  0.000
    17C     0.38972  0.49792   1.009  2.602  0.000
    18C    -0.11136 -0.24872   1.012  3.099  0.000
    19O    -0.33646 -0.38808   1.691  4.646  0.000
    20N    -0.27728 -0.62530   1.438  3.840  0.000
    21C     0.46692  0.56883   0.980  2.554  0.000
    22O    -0.53337 -0.58132   1.721  4.813  0.000
    23C     0.25947  0.29713   1.039  2.702  0.000
    24O    -0.39279 -0.49694   1.677  4.716  0.000
    25C     0.15762  0.03521   0.995  2.848  0.000
    26H     0.08424  0.14611   0.916  0.000  0.000
    27H     0.08316  0.14607   0.917  0.000  0.000
    28H     0.08467  0.14513   0.915  0.000  0.000
    29H     0.05412  0.11114   0.946  0.000  0.000
    30H     0.05158  0.10768   0.948  0.000  0.000
    31H     0.07605  0.13616   0.924  0.000  0.000
    32H     0.05472  0.11155   0.945  0.000  0.000
    33H     0.05257  0.10917   0.947  0.000  0.000
    34H     0.07808  0.13905   0.922  0.000  0.000
    35H     0.25106  0.46778   0.749  0.000  0.000
    36H     0.08059  0.13507   0.919  0.000  0.000
    37H     0.07041  0.12623   0.930  0.000  0.000
    38H     0.08045  0.13490   0.920  0.000  0.000
    39H     0.29893  0.49866   0.701  0.000  0.000
    40H     0.45533  0.64306   0.545  0.000  0.000
    41H     0.07629  0.13971   0.924  0.000  0.000
    42H     0.07555  0.13886   0.924  0.000  0.000
    43H     0.07425  0.13485   0.926  0.000  0.000

Wiberg/Mayer (AO) data.
largest (>0.10) Wiberg bond orders for each atom

 ---------------------------------------------------------------------------
     #   Z sym  total        # sym  WBO       # sym  WBO       # sym  WBO
 ---------------------------------------------------------------------------
     1   6 C    3.820 --    28 H    0.982    27 H    0.973    26 H    0.971
                             2 O    0.851
     2   8 O    2.318 --     3 C    1.286     1 C    0.851
     3   6 C    3.813 --     2 O    1.286     4 O    1.252     5 C    1.120
     4   8 O    2.197 --     3 C    1.252    40 H    0.743
     5   6 C    3.958 --    23 C    1.413     6 N    1.163     3 C    1.120
     6   7 N    3.040 --     7 C    1.577     5 C    1.163
     7   6 C    3.919 --     6 N    1.577    20 N    1.175     8 C    0.987
     8   6 C    3.938 --     7 C    0.987    10 C    0.979     9 C    0.968
                            11 N    0.940
     9   6 C    3.984 --    29 H    0.985    30 H    0.985    31 H    0.976
                             8 C    0.968
    10   6 C    3.985 --    32 H    0.985    33 H    0.981     8 C    0.979
                            34 H    0.976
    11   7 N    3.342 --    12 C    1.247     8 C    0.940    35 H    0.880
                            13 O    0.177
    12   6 C    3.916 --    13 O    1.596    11 N    1.247    14 C    0.990
    13   8 O    1.915 --    12 C    1.596    11 N    0.177
    14   6 C    3.876 --    15 N    1.608    19 O    1.066    12 C    0.990
    15   7 N    3.015 --    14 C    1.608    16 N    1.202
    16   7 N    2.980 --    17 C    1.602    15 N    1.202
    17   6 C    3.870 --    16 N    1.602    19 O    1.084    18 C    1.032
    18   6 C    3.986 --    17 C    1.032    37 H    0.982    36 H    0.963
                            38 H    0.963
    19   8 O    2.333 --    17 C    1.084    14 C    1.066
    20   7 N    3.476 --     7 C    1.175    21 C    1.137    39 H    0.872
                            22 O    0.141
    21   6 C    3.913 --    22 O    1.621    20 N    1.137    23 C    1.034
    22   8 O    1.948 --    21 C    1.621    20 N    0.141
    23   6 C    3.906 --     5 C    1.413    24 O    1.144    21 C    1.034
    24   8 O    2.255 --    23 C    1.144    25 C    0.852
    25   6 C    3.825 --    43 H    0.982    42 H    0.974    41 H    0.973
                            24 O    0.852
    26   1 H    0.996 --     1 C    0.971
    27   1 H    0.997 --     1 C    0.973
    28   1 H    1.002 --     1 C    0.982
    29   1 H    1.000 --     9 C    0.985
    30   1 H    0.998 --     9 C    0.985
    31   1 H    1.006 --     9 C    0.976
    32   1 H    0.999 --    10 C    0.985
    33   1 H    0.997 --    10 C    0.981
    34   1 H    1.005 --    10 C    0.976
    35   1 H    0.965 --    11 N    0.880
    36   1 H    0.996 --    18 C    0.963
    37   1 H    0.998 --    18 C    0.982
    38   1 H    0.996 --    18 C    0.963
    39   1 H    0.919 --    20 N    0.872
    40   1 H    0.805 --     4 O    0.743
    41   1 H    1.007 --    25 C    0.973
    42   1 H    1.006 --    25 C    0.974
    43   1 H    1.005 --    25 C    0.982
 ---------------------------------------------------------------------------

Topologies differ in total number of bonds
Writing topology from bond orders to xtbtopo.mol

 dipole moment from electron density (au)
     X       Y       Z   
  -5.1023   1.8215   0.3131  total (Debye):   13.793

           -------------------------------------------------
          |                Geometry Summary                 |
           -------------------------------------------------

      molecular mass/u    :      352.3231817
   center of mass at/Å    :        0.0224010       0.0309089       0.0321995
  moments of inertia/u·Å² :        0.1409339E+04   0.4106332E+04   0.5337960E+04
rotational constants/cm⁻¹ :        0.1196138E-01   0.4105277E-02   0.3158066E-02

 * 39 selected distances

     #   Z          #   Z                                           value/Å
     1   6 C        2   8 O                                       1.4410914
     2   8 O        3   6 C                                       1.2805813
     3   6 C        4   8 O                                       1.2905341
     5   6 C        6   7 N                                       1.3722205
     6   7 N        7   6 C                                       1.2909799
     8   6 C        9   6 C                                       1.5379199 (max)
     8   6 C       10   6 C                                       1.5352376
     8   6 C       11   7 N                                       1.4580486
    11   7 N       12   6 C                                       1.3498296
    12   6 C       13   8 O                                       1.2175553
    14   6 C       15   7 N                                       1.2999199
    16   7 N       17   6 C                                       1.2999072
    17   6 C       18   6 C                                       1.4795294
    14   6 C       19   8 O                                       1.3446612
    17   6 C       19   8 O                                       1.3407849
     7   6 C       20   7 N                                       1.3627951
    20   7 N       21   6 C                                       1.3772886
    21   6 C       22   8 O                                       1.2133847
     5   6 C       23   6 C                                       1.3864724
    23   6 C       24   8 O                                       1.3249521
    24   8 O       25   6 C                                       1.4432767
     1   6 C       26   1 H                                       1.0904705
     1   6 C       27   1 H                                       1.0903141
     1   6 C       28   1 H                                       1.0875320
     9   6 C       29   1 H                                       1.0886809
     9   6 C       30   1 H                                       1.0877648
     9   6 C       31   1 H                                       1.0888921
    10   6 C       32   1 H                                       1.0885271
    10   6 C       33   1 H                                       1.0874763
    10   6 C       34   1 H                                       1.0888845
    11   7 N       35   1 H                                       1.0118214
    18   6 C       36   1 H                                       1.0901100
    18   6 C       37   1 H                                       1.0872382
    18   6 C       38   1 H                                       1.0900084
    20   7 N       39   1 H                                       1.0120086
     4   8 O       40   1 H                                       0.9822090 (min)
    25   6 C       41   1 H                                       1.0902024
    25   6 C       42   1 H                                       1.0902847
    25   6 C       43   1 H                                       1.0882094

 * 6 distinct bonds (by element types)

   Z      Z             #   av. dist./Å        max./Å        min./Å
   1 H    6 C          15     1.0889730     1.0904705     1.0872382
   6 C    6 C           4     1.4847898     1.5379199     1.3864724
   1 H    7 N           2     1.0119150     1.0120086     1.0118214
   6 C    7 N           8     1.3513737     1.4580486     1.2909799
   1 H    8 O           1     0.9822090     0.9822090     0.9822090
   6 C    8 O           9     1.3218691     1.4432767     1.2133847


optimized geometry written to: xtbopt.xyz


           -------------------------------------------------
          | TOTAL ENERGY              -83.163557507558 Eh   |
          | GRADIENT NORM               0.000217590427 Eh/α |
          | HOMO-LUMO GAP               1.773382674469 eV   |
           -------------------------------------------------

------------------------------------------------------------------------
 * finished run on 2023/06/20 at 15:22:34.181     
------------------------------------------------------------------------
 total:
 * wall-time:     0 d,  0 h,  0 min,  6.899 sec
 *  cpu-time:     0 d,  0 h,  0 min,  6.743 sec
 * ratio c/w:     0.977 speedup
 SCF:
 * wall-time:     0 d,  0 h,  0 min,  0.219 sec
 *  cpu-time:     0 d,  0 h,  0 min,  0.148 sec
 * ratio c/w:     0.678 speedup
 ANC optimizer:
 * wall-time:     0 d,  0 h,  0 min,  6.578 sec
 *  cpu-time:     0 d,  0 h,  0 min,  6.546 sec
 * ratio c/w:     0.995 speedup

