      -----------------------------------------------------------      
     |                   =====================                   |     
     |                           x T B                           |     
     |                   =====================                   |     
     |                         S. Grimme                         |     
     |          Mulliken Center for Theoretical Chemistry        |     
     |                    University of Bonn                     |     
      -----------------------------------------------------------      

   * xtb version 6.5.1 (579679a) compiled by 'ehlert@majestix' on 2022-07-11

   xtb is free software: you can redistribute it and/or modify it under
   the terms of the GNU Lesser General Public License as published by
   the Free Software Foundation, either version 3 of the License, or
   (at your option) any later version.
   
   xtb is distributed in the hope that it will be useful,
   but WITHOUT ANY WARRANTY; without even the implied warranty of
   MERCHANTABILITY or FITNESS FOR A PARTICULAR PURPOSE.  See the
   GNU Lesser General Public License for more details.
   
   Cite this work as:
   * C. Bannwarth, E. Caldeweyher, S. Ehlert, A. Hansen, P. Pracht,
     J. Seibert, S. Spicher, S. Grimme, WIREs Comput. Mol. Sci., 2020, 11,
     e01493. DOI: 10.1002/wcms.1493
   
   for GFN2-xTB:
   * C. Bannwarth, S. Ehlert and S. Grimme., J. Chem. Theory Comput., 2019,
     15, 1652-1671. DOI: 10.1021/acs.jctc.8b01176
   for GFN1-xTB:
   * S. Grimme, C. Bannwarth, P. Shushkov, J. Chem. Theory Comput., 2017,
     13, 1989-2009. DOI: 10.1021/acs.jctc.7b00118
   for GFN0-xTB:
   * P. Pracht, E. Caldeweyher, S. Ehlert, S. Grimme, ChemRxiv, 2019, preprint.
     DOI: 10.26434/chemrxiv.8326202.v1
   for GFN-FF:
   * S. Spicher and S. Grimme, Angew. Chem. Int. Ed., 2020, 59, 15665-15673.
     DOI: 10.1002/anie.202004239
   
   for ALPB and GBSA implicit solvation:
   * S. Ehlert, M. Stahn, S. Spicher, S. Grimme, J. Chem. Theory Comput.,
     2021, 17, 4250-4261. DOI: 10.1021/acs.jctc.1c00471
   
   for DFT-D4:
   * E. Caldeweyher, C. Bannwarth and S. Grimme, J. Chem. Phys., 2017,
     147, 034112. DOI: 10.1063/1.4993215
   * E. Caldeweyher, S. Ehlert, A. Hansen, H. Neugebauer, S. Spicher,
     C. Bannwarth and S. Grimme, J. Chem. Phys., 2019, 150, 154122.
     DOI: 10.1063/1.5090222
   * E. Caldeweyher, J.-M. Mewes, S. Ehlert and S. Grimme, Phys. Chem. Chem. Phys.
     2020, 22, 8499-8512. DOI: 10.1039/D0CP00502A
   
   for sTDA-xTB:
   * S. Grimme and C. Bannwarth, J. Chem. Phys., 2016, 145, 054103.
     DOI: 10.1063/1.4959605
   
   in the mass-spec context:
   * V. Asgeirsson, C. Bauer and S. Grimme, Chem. Sci., 2017, 8, 4879.
     DOI: 10.1039/c7sc00601b
   * J. Koopman and S. Grimme, ACS Omega 2019, 4, 12, 15120-15133.
     DOI: 10.1021/acsomega.9b02011
   
   for metadynamics refer to:
   * S. Grimme, J. Chem. Theory Comput., 2019, 155, 2847-2862
     DOI: 10.1021/acs.jctc.9b00143
   
   for SPH calculations refer to:
   * S. Spicher and S. Grimme, J. Chem. Theory Comput., 2021, 17, 1701-1714
     DOI: 10.1021/acs.jctc.0c01306
   
   with help from (in alphabetical order)
   P. Atkinson, C. Bannwarth, F. Bohle, G. Brandenburg, E. Caldeweyher
   M. Checinski, S. Dohm, S. Ehlert, S. Ehrlich, I. Gerasimov, C. Hölzer
   A. Katbashev, J. Koopman, C. Lavigne, S. Lehtola, F. März, M. Müller,
   F. Musil, H. Neugebauer, J. Pisarek, C. Plett, P. Pracht, F. Pultar,
   J. Seibert, P. Shushkov, S. Spicher, M. Stahn, M. Steiner, T. Strunk,
   J. Stückrath, T. Rose, and J. Unsleber
   
 * started run on 2023/06/21 at 17:41:52.836     

           -------------------------------------------------
          |                Calculation Setup                |
           -------------------------------------------------

          program call               : /lustre/hpc/kemi/ree/PhD/git/ReactivityQM/dep/xtb-6.5.1/bin/xtb --gfn 1 /lustre/hpc/kemi/ree/PhD/git/ReactivityQM/calculations/R02methylcation/reac01prodN10/conf14/R02methylcation_reac01prodN10_conf14_gfn1.xyz --opt --vfukui --chrg 0 --uhf 0 --alpb DMSO
          hostname                   : node317
          coordinate file            : /lustre/hpc/kemi/ree/PhD/git/ReactivityQM/calculations/R02methylcation/reac01prodN10/conf14/R02methylcation_reac01prodN10_conf14_gfn1.xyz
          omp threads                :                     1

   ID    Z sym.   atoms
    1    6 C      1, 3, 5, 6, 8, 11-15, 17, 19, 22, 23
    2    8 O      2, 4, 7, 9, 18, 24
    3    7 N      10, 16, 20, 21, 25
    4    1 H      26-42

           -------------------------------------------------
          |                 G F N 1 - x T B                 |
           -------------------------------------------------

        Reference                      10.1021/acs.jctc.7b00118
      * Hamiltonian:
        H0-scaling (s, p, d)           1.850000    2.250000    2.000000
        zeta-weighting                 0.000000
      * Dispersion:
        s8                             2.400000
        a1                             0.630000
        a2                             5.000000
        s9                             0.000000
      * Repulsion:
        kExp                           1.500000
        rExp                           1.000000
      * Coulomb:
        alpha                          2.000000
        third order                    atomic
        anisotropic                    false
      * Halogen bond correction:
        rad-scale                      1.300000
        damping                        0.440000

      * Solvation model:               ALPB
        Solvent                        DMSO
        Parameter file                 internal GFN1-xTB/ALPB
        Dielectric constant                4.6680E+01
        Reference state                gsolv [1 M gas/solution]
        Free energy shift                  7.6243E-03 Eh       4.7843E+00 kcal/mol
        Temperature                        2.9815E+02 K
        Density                            1.1000E+00 kg/L
        Solvent mass                       7.8130E+01 g/mol
        Interaction kernel             P16
        Born radius scaling (c1)           1.7672E+00
        Born radii integrator          GBOBC
        Born offset                        0.0000E+00 a0       0.0000E+00 AA
        H-bond correction              true
        Ion screening                  false
        Surface tension                    1.0000E-05 Eh       1.5569E+01 dyn/cm
        Grid points                               230 per atom

          ...................................................
          :                      SETUP                      :
          :.................................................:
          :  # basis functions                 134          :
          :  # atomic orbitals                 134          :
          :  # shells                           84          :
          :  # electrons                       134          :
          :  # halogen bonds                     0          :
          :  max. iterations                   250          :
          :  Hamiltonian                  GFN1-xTB          :
          :  restarted?                      false          :
          :  GBSA solvation                   true          :
          :  PC potential                    false          :
          :  electronic temp.          300.0000000     K    :
          :  accuracy                    1.0000000          :
          :  -> integral cutoff          0.2500000E+02      :
          :  -> integral neglect         0.1000000E-07      :
          :  -> SCF convergence          0.1000000E-05 Eh   :
          :  -> wf. convergence          0.2000000E-04 e    :
          :  Broyden damping             0.4000000          :
          ...................................................

 iter      E             dE          RMSdq      gap      omega  full diag
   1    -83.3472965 -0.833473E+02  0.841E+00    1.89       0.0  T
   2    -83.7045337 -0.357237E+00  0.505E+00    1.53       1.0  T
   3    -83.6938340  0.106997E-01  0.180E+00    1.59       1.0  T
   4    -83.7259670 -0.321330E-01  0.161E-01    1.58       1.0  T
   5    -83.7267768 -0.809775E-03  0.443E-02    1.59       1.0  T
   6    -83.7268204 -0.436311E-04  0.161E-02    1.60       1.0  T
   7    -83.7268260 -0.558954E-05  0.380E-03    1.60       4.1  T
   8    -83.7268262 -0.242012E-06  0.730E-04    1.60      21.1  T
   9    -83.7268262 -0.108710E-07  0.354E-04    1.60      43.6  T
  10    -83.7268263 -0.124486E-08  0.966E-05    1.60     159.7  T
  11    -83.7268263 -0.149214E-09  0.282E-05    1.60     546.4  T

   *** convergence criteria satisfied after 11 iterations ***

         #    Occupation            Energy/Eh            Energy/eV
      -------------------------------------------------------------
         1        2.0000           -0.8659699             -23.5642
       ...           ...                  ...                  ...
        61        2.0000           -0.4853737             -13.2077
        62        2.0000           -0.4700070             -12.7895
        63        2.0000           -0.4625368             -12.5863
        64        2.0000           -0.4557302             -12.4010
        65        2.0000           -0.4469814             -12.1630
        66        2.0000           -0.4452094             -12.1148
        67        2.0000           -0.4424303             -12.0391 (HOMO)
        68                         -0.3834639             -10.4346 (LUMO)
        69                         -0.3308218              -9.0021
        70                         -0.3193099              -8.6889
        71                         -0.2602713              -7.0823
        72                         -0.2594638              -7.0604
       ...                                ...                  ...
       134                          0.7582789              20.6338
      -------------------------------------------------------------
                  HL-Gap            0.0589664 Eh            1.6046 eV
             Fermi-level           -0.4129471 Eh          -11.2369 eV

 SCC (total)                   0 d,  0 h,  0 min,  0.182 sec
 SCC setup                      ...        0 min,  0.002 sec (  1.237%)
 Dispersion                     ...        0 min,  0.000 sec (  0.234%)
 classical contributions        ...        0 min,  0.000 sec (  0.075%)
 integral evaluation            ...        0 min,  0.047 sec ( 26.081%)
 iterations                     ...        0 min,  0.049 sec ( 26.799%)
 molecular gradient             ...        0 min,  0.082 sec ( 44.991%)
 printout                       ...        0 min,  0.001 sec (  0.552%)

         :::::::::::::::::::::::::::::::::::::::::::::::::::::
         ::                     SUMMARY                     ::
         :::::::::::::::::::::::::::::::::::::::::::::::::::::
         :: total energy             -82.966273508290 Eh    ::
         :: total w/o Gsasa/hb       -82.946617863170 Eh    ::
         :: gradient norm              0.114892379398 Eh/a0 ::
         :: HOMO-LUMO gap              1.604557195046 eV    ::
         ::.................................................::
         :: SCC energy               -83.726826250808 Eh    ::
         :: -> electrostatic           0.355002802346 Eh    ::
         :: -> Gsolv                  -0.054929915568 Eh    ::
         ::    -> Gelec               -0.035274270448 Eh    ::
         ::    -> Gsasa               -0.023605564386 Eh    ::
         ::    -> Ghb                 -0.003674359739 Eh    ::
         ::    -> Gshift               0.007624279005 Eh    ::
         :: repulsion energy           0.787531018977 Eh    ::
         :: dispersion energy         -0.026978276458 Eh    ::
         :: halogen bond corr.         0.000000000000 Eh    ::
         :: add. restraining           0.000000000000 Eh    ::
         :: total charge              -0.000000000000 e     ::
         :::::::::::::::::::::::::::::::::::::::::::::::::::::

      ----------------------------------------------------------- 
     |                   =====================                   |
     |                        A N C O P T                        |
     |                   =====================                   |
     |               Approximate Normal Coordinate               |
     |                Rational Function Optimizer                |
      ----------------------------------------------------------- 

          ...................................................
          :                      SETUP                      :
          :.................................................:
          :   optimization level            normal          :
          :   max. optcycles                   200          :
          :   ANC micro-cycles                  20          :
          :   degrees of freedom               120          :
          :.................................................:
          :   RF solver                   davidson          :
          :   write xtbopt.log                true          :
          :   linear?                        false          :
          :   energy convergence         0.5000000E-05 Eh   :
          :   grad. convergence          0.1000000E-02 Eh/α :
          :   maximium RF displ.         1.0000000          :
          :   Hlow (freq-cutoff)         0.1000000E-01      :
          :   Hmax (freq-cutoff)         5.0000000          :
          :   S6 in model hess.         20.0000000          :
          ...................................................

generating ANC from model Hessian ...
Using Lindh-Hessian (1995)
 Shifting diagonal of input Hessian by   9.842600325650232E-003
 Lowest  eigenvalues of input Hessian
    0.000000    0.000000    0.000000    0.000000    0.000000    0.000000
    0.010000    0.010215    0.010602    0.010970    0.012057    0.012699
    0.013449    0.014140    0.014742    0.016164    0.016470    0.017338
 Highest eigenvalues
    1.978674    2.146853    2.261028    2.307642    2.337149    2.383887
 

........................................................................
.............................. CYCLE    1 ..............................
........................................................................
   1    -83.7268263 -0.837268E+02  0.124E-05    1.60       0.0  T
   2    -83.7268263 -0.824230E-12  0.657E-06    1.60    2349.6  T
   3    -83.7268263 -0.255795E-12  0.341E-06    1.60    4531.3  T
     SCC iter.                  ...        0 min,  0.011 sec
     gradient                   ...        0 min,  0.082 sec
 * total energy  :   -82.9662735 Eh     change       -0.1581668E-10 Eh
   gradient norm :     0.1148922 Eh/α   predicted     0.0000000E+00 (-100.00%)
   displ. norm   :     0.3070943 α      lambda       -0.1480856E-01
   maximum displ.:     0.1052252 α      in ANC's #27, #21, #26, ...

........................................................................
.............................. CYCLE    2 ..............................
........................................................................
   1    -83.7456577 -0.837457E+02  0.723E-02    1.70       0.0  T
   2    -83.7458656 -0.207812E-03  0.362E-02    1.70       1.0  T
   3    -83.7458924 -0.268229E-04  0.156E-02    1.70       1.0  T
   4    -83.7458925 -0.124839E-06  0.316E-03    1.70       4.9  T
   5    -83.7458926 -0.643856E-07  0.695E-04    1.70      22.2  T
   6    -83.7458926 -0.684412E-08  0.243E-04    1.70      63.5  T
   7    -83.7458926 -0.107136E-08  0.819E-05    1.70     188.5  T
   8    -83.7458926 -0.659526E-10  0.239E-05    1.70     646.7  T
     SCC iter.                  ...        0 min,  0.032 sec
     gradient                   ...        0 min,  0.084 sec
 * total energy  :   -82.9771525 Eh     change       -0.1087901E-01 Eh
   gradient norm :     0.0608543 Eh/α   predicted    -0.8114580E-02 ( -25.41%)
   displ. norm   :     0.3427800 α      lambda       -0.7656064E-02
   maximum displ.:     0.1219317 α      in ANC's #7, #26, #27, ...

........................................................................
.............................. CYCLE    3 ..............................
........................................................................
   1    -83.7593104 -0.837593E+02  0.720E-02    1.74       0.0  T
   2    -83.7595209 -0.210526E-03  0.361E-02    1.74       1.0  T
   3    -83.7595469 -0.260294E-04  0.155E-02    1.74       1.0  T
   4    -83.7595470 -0.102276E-06  0.410E-03    1.74       3.8  T
   5    -83.7595471 -0.105810E-06  0.729E-04    1.74      21.2  T
   6    -83.7595471 -0.903505E-08  0.264E-04    1.74      58.6  T
   7    -83.7595471 -0.916629E-09  0.793E-05    1.74     194.6  T
   8    -83.7595471 -0.865157E-10  0.255E-05    1.74     604.0  T
     SCC iter.                  ...        0 min,  0.029 sec
     gradient                   ...        0 min,  0.084 sec
 * total energy  :   -82.9816447 Eh     change       -0.4492172E-02 Eh
   gradient norm :     0.0166200 Eh/α   predicted    -0.4279936E-02 (  -4.72%)
   displ. norm   :     0.2329701 α      lambda       -0.1139612E-02
   maximum displ.:     0.1200675 α      in ANC's #7, #2, #5, ...

........................................................................
.............................. CYCLE    4 ..............................
........................................................................
   1    -83.7606194 -0.837606E+02  0.185E-02    1.76       0.0  T
   2    -83.7606315 -0.121476E-04  0.931E-03    1.76       1.7  T
   3    -83.7606328 -0.129410E-05  0.454E-03    1.76       3.4  T
   4    -83.7606328 -0.124248E-07  0.150E-03    1.76      10.3  T
   5    -83.7606328 -0.172810E-07  0.270E-04    1.76      57.1  T
   6    -83.7606328 -0.140544E-08  0.862E-05    1.76     179.0  T
   7    -83.7606328 -0.120949E-09  0.273E-05    1.76     565.8  T
     SCC iter.                  ...        0 min,  0.026 sec
     gradient                   ...        0 min,  0.083 sec
 * total energy  :   -82.9824749 Eh     change       -0.8301799E-03 Eh
   gradient norm :     0.0098156 Eh/α   predicted    -0.6007627E-03 ( -27.63%)
   displ. norm   :     0.3470885 α      lambda       -0.9693486E-03
   maximum displ.:     0.1934291 α      in ANC's #7, #2, #5, ...

........................................................................
.............................. CYCLE    5 ..............................
........................................................................
   1    -83.7608146 -0.837608E+02  0.155E-02    1.77       0.0  T
   2    -83.7608227 -0.803593E-05  0.771E-03    1.76       2.0  T
   3    -83.7608235 -0.860100E-06  0.391E-03    1.76       4.0  T
   4    -83.7608235 -0.206585E-07  0.143E-03    1.76      10.8  T
   5    -83.7608236 -0.163102E-07  0.255E-04    1.76      60.5  T
   6    -83.7608236 -0.134705E-08  0.716E-05    1.76     215.6  T
   7    -83.7608236 -0.904521E-10  0.254E-05    1.76     607.9  T
     SCC iter.                  ...        0 min,  0.026 sec
     gradient                   ...        0 min,  0.084 sec
 * total energy  :   -82.9831762 Eh     change       -0.7013348E-03 Eh
   gradient norm :     0.0100982 Eh/α   predicted    -0.5430721E-03 ( -22.57%)
   displ. norm   :     0.3860854 α      lambda       -0.6988309E-03
   maximum displ.:     0.2181337 α      in ANC's #7, #2, #5, ...

........................................................................
.............................. CYCLE    6 ..............................
........................................................................
   1    -83.7607524 -0.837608E+02  0.103E-02    1.77       0.0  T
   2    -83.7607556 -0.314480E-05  0.483E-03    1.77       3.2  T
   3    -83.7607558 -0.236872E-06  0.264E-03    1.77       5.8  T
   4    -83.7607558 -0.183546E-07  0.891E-04    1.77      17.3  T
   5    -83.7607558 -0.689748E-08  0.169E-04    1.77      91.3  T
   6    -83.7607558 -0.576449E-09  0.489E-05    1.77     315.8  T
     SCC iter.                  ...        0 min,  0.021 sec
     gradient                   ...        0 min,  0.084 sec
 * total energy  :   -82.9837188 Eh     change       -0.5426439E-03 Eh
   gradient norm :     0.0110272 Eh/α   predicted    -0.4015002E-03 ( -26.01%)
   displ. norm   :     0.4428957 α      lambda       -0.6507989E-03
   maximum displ.:     0.2525163 α      in ANC's #7, #2, #3, ...

........................................................................
.............................. CYCLE    7 ..............................
........................................................................
   1    -83.7613809 -0.837614E+02  0.856E-03    1.77       0.0  T
   2    -83.7613827 -0.174965E-05  0.476E-03    1.77       3.2  T
   3    -83.7613828 -0.129393E-06  0.251E-03    1.77       6.1  T
   4    -83.7613828 -0.146533E-07  0.631E-04    1.77      24.4  T
   5    -83.7613828 -0.395828E-08  0.128E-04    1.77     120.3  T
   6    -83.7613828 -0.306585E-09  0.357E-05    1.77     432.8  T
     SCC iter.                  ...        0 min,  0.021 sec
     gradient                   ...        0 min,  0.084 sec
 * total energy  :   -82.9842145 Eh     change       -0.4956563E-03 Eh
   gradient norm :     0.0096971 Eh/α   predicted    -0.3892290E-03 ( -21.47%)
   displ. norm   :     0.3970612 α      lambda       -0.4580610E-03
   maximum displ.:     0.2254560 α      in ANC's #2, #7, #3, ...

........................................................................
.............................. CYCLE    8 ..............................
........................................................................
   1    -83.7632880 -0.837633E+02  0.720E-03    1.76       0.0  T
   2    -83.7632892 -0.115565E-05  0.451E-03    1.76       3.4  T
   3    -83.7632893 -0.115049E-06  0.241E-03    1.76       6.4  T
   4    -83.7632893 -0.708754E-08  0.367E-04    1.76      42.1  T
   5    -83.7632893 -0.185280E-08  0.872E-05    1.76     176.9  T
   6    -83.7632893 -0.171937E-09  0.242E-05    1.76     638.8  T
     SCC iter.                  ...        0 min,  0.021 sec
     gradient                   ...        0 min,  0.084 sec
 * total energy  :   -82.9845544 Eh     change       -0.3398962E-03 Eh
   gradient norm :     0.0072247 Eh/α   predicted    -0.2651391E-03 ( -21.99%)
   displ. norm   :     0.3163115 α      lambda       -0.2725589E-03
   maximum displ.:     0.2007690 α      in ANC's #2, #7, #3, ...

........................................................................
.............................. CYCLE    9 ..............................
........................................................................
   1    -83.7651537 -0.837652E+02  0.660E-03    1.76       0.0  T
   2    -83.7651550 -0.136971E-05  0.360E-03    1.76       4.3  T
   3    -83.7651552 -0.124375E-06  0.196E-03    1.76       7.9  T
   4    -83.7651552 -0.289563E-08  0.386E-04    1.76      39.9  T
   5    -83.7651552 -0.180793E-08  0.824E-05    1.76     187.3  T
   6    -83.7651552 -0.141696E-09  0.177E-05    1.76     870.1  T
     SCC iter.                  ...        0 min,  0.021 sec
     gradient                   ...        0 min,  0.084 sec
 * total energy  :   -82.9847586 Eh     change       -0.2042444E-03 Eh
   gradient norm :     0.0053134 Eh/α   predicted    -0.1499168E-03 ( -26.60%)
   displ. norm   :     0.2472781 α      lambda       -0.1715028E-03
   maximum displ.:     0.1733707 α      in ANC's #2, #7, #3, ...

........................................................................
.............................. CYCLE   10 ..............................
........................................................................
   1    -83.7664243 -0.837664E+02  0.587E-03    1.77       0.0  T
   2    -83.7664256 -0.123231E-05  0.286E-03    1.77       5.4  T
   3    -83.7664257 -0.102229E-06  0.149E-03    1.77      10.3  T
   4    -83.7664257 -0.174573E-08  0.453E-04    1.77      34.1  T
   5    -83.7664257 -0.137618E-08  0.676E-05    1.77     228.3  T
   6    -83.7664257 -0.102943E-09  0.155E-05    1.77     993.6  T
     SCC iter.                  ...        0 min,  0.021 sec
     gradient                   ...        0 min,  0.084 sec
 * total energy  :   -82.9848933 Eh     change       -0.1346725E-03 Eh
   gradient norm :     0.0042529 Eh/α   predicted    -0.9099523E-04 ( -32.43%)
   displ. norm   :     0.2093922 α      lambda       -0.1323037E-03
   maximum displ.:     0.1571806 α      in ANC's #2, #3, #7, ...

........................................................................
.............................. CYCLE   11 ..............................
........................................................................
   1    -83.7668815 -0.837669E+02  0.483E-03    1.77       0.0  T
   2    -83.7668823 -0.792328E-06  0.248E-03    1.77       6.2  T
   3    -83.7668823 -0.620446E-07  0.132E-03    1.77      11.7  T
   4    -83.7668823 -0.111417E-08  0.395E-04    1.77      39.1  T
   5    -83.7668823 -0.110286E-08  0.517E-05    1.77     298.4  T
   6    -83.7668823 -0.597993E-10  0.148E-05    1.77    1039.4  T
     SCC iter.                  ...        0 min,  0.024 sec
     gradient                   ...        0 min,  0.088 sec
 * total energy  :   -82.9850014 Eh     change       -0.1080619E-03 Eh
   gradient norm :     0.0039015 Eh/α   predicted    -0.6905354E-04 ( -36.10%)
   displ. norm   :     0.1933832 α      lambda       -0.1196218E-03
   maximum displ.:     0.1476953 α      in ANC's #2, #3, #1, ...

........................................................................
.............................. CYCLE   12 ..............................
........................................................................
   1    -83.7669601 -0.837670E+02  0.387E-03    1.77       0.0  T
   2    -83.7669605 -0.419297E-06  0.219E-03    1.77       7.1  T
   3    -83.7669605 -0.270228E-07  0.122E-03    1.77      12.6  T
   4    -83.7669605 -0.138316E-08  0.277E-04    1.77      55.7  T
   5    -83.7669605 -0.841666E-09  0.453E-05    1.77     340.7  T
   6    -83.7669605 -0.399041E-10  0.127E-05    1.77    1211.5  T
     SCC iter.                  ...        0 min,  0.024 sec
     gradient                   ...        0 min,  0.087 sec
 * total energy  :   -82.9851003 Eh     change       -0.9894754E-04 Eh
   gradient norm :     0.0040379 Eh/α   predicted    -0.6204966E-04 ( -37.29%)
   displ. norm   :     0.1986806 α      lambda       -0.1109156E-03
   maximum displ.:     0.1486778 α      in ANC's #2, #3, #1, ...

........................................................................
.............................. CYCLE   13 ..............................
........................................................................
   1    -83.7663611 -0.837664E+02  0.349E-03    1.78       0.0  T
   2    -83.7663613 -0.191955E-06  0.194E-03    1.78       8.0  T
   3    -83.7663613 -0.858455E-08  0.930E-04    1.78      16.6  T
   4    -83.7663613 -0.260478E-08  0.175E-04    1.78      88.0  T
   5    -83.7663613 -0.482345E-09  0.424E-05    1.78     363.9  T
     SCC iter.                  ...        0 min,  0.018 sec
     gradient                   ...        0 min,  0.084 sec
 * total energy  :   -82.9851896 Eh     change       -0.8926121E-04 Eh
   gradient norm :     0.0038426 Eh/α   predicted    -0.5764872E-04 ( -35.42%)
   displ. norm   :     0.1832450 α      lambda       -0.8408128E-04
   maximum displ.:     0.1351560 α      in ANC's #2, #3, #1, ...

........................................................................
.............................. CYCLE   14 ..............................
........................................................................
   1    -83.7661600 -0.837662E+02  0.322E-03    1.78       0.0  T
   2    -83.7661603 -0.256283E-06  0.146E-03    1.78      10.6  T
   3    -83.7661603 -0.175932E-07  0.801E-04    1.78      19.3  T
   4    -83.7661603 -0.159443E-08  0.225E-04    1.78      68.7  T
   5    -83.7661603 -0.543807E-09  0.477E-05    1.78     323.4  T
   6    -83.7661603 -0.425331E-10  0.139E-05    1.78    1111.2  T
     SCC iter.                  ...        0 min,  0.021 sec
     gradient                   ...        0 min,  0.084 sec
 * total energy  :   -82.9852557 Eh     change       -0.6609679E-04 Eh
   gradient norm :     0.0032357 Eh/α   predicted    -0.4345743E-04 ( -34.25%)
   displ. norm   :     0.1530974 α      lambda       -0.5878719E-04
   maximum displ.:     0.1146787 α      in ANC's #2, #3, #1, ...

........................................................................
.............................. CYCLE   15 ..............................
........................................................................
   1    -83.7657555 -0.837658E+02  0.348E-03    1.78       0.0  T
   2    -83.7657559 -0.358673E-06  0.154E-03    1.78      10.0  T
   3    -83.7657559 -0.306622E-07  0.750E-04    1.78      20.6  T
   4    -83.7657559 -0.105604E-08  0.254E-04    1.78      60.8  T
   5    -83.7657559 -0.394650E-09  0.468E-05    1.78     329.9  T
   6    -83.7657559 -0.218989E-10  0.126E-05    1.78    1221.6  T
     SCC iter.                  ...        0 min,  0.022 sec
     gradient                   ...        0 min,  0.084 sec
 * total energy  :   -82.9853021 Eh     change       -0.4639701E-04 Eh
   gradient norm :     0.0025623 Eh/α   predicted    -0.3008511E-04 ( -35.16%)
   displ. norm   :     0.1432435 α      lambda       -0.5036252E-04
   maximum displ.:     0.1073465 α      in ANC's #2, #1, #3, ...

........................................................................
.............................. CYCLE   16 ..............................
........................................................................
   1    -83.7664237 -0.837664E+02  0.316E-03    1.78       0.0  T
   2    -83.7664240 -0.296841E-06  0.155E-03    1.78       9.9  T
   3    -83.7664241 -0.242567E-07  0.814E-04    1.78      19.0  T
   4    -83.7664241 -0.532054E-09  0.227E-04    1.78      68.0  T
   5    -83.7664241 -0.449134E-09  0.333E-05    1.78     463.6  T
   6    -83.7664241 -0.164846E-10  0.107E-05    1.78    1447.8  T
     SCC iter.                  ...        0 min,  0.021 sec
     gradient                   ...        0 min,  0.084 sec
 * total energy  :   -82.9853402 Eh     change       -0.3807291E-04 Eh
   gradient norm :     0.0022866 Eh/α   predicted    -0.2569941E-04 ( -32.50%)
   displ. norm   :     0.1507414 α      lambda       -0.4650658E-04
   maximum displ.:     0.1130524 α      in ANC's #2, #1, #3, ...

........................................................................
.............................. CYCLE   17 ..............................
........................................................................
   1    -83.7660926 -0.837661E+02  0.344E-03    1.78       0.0  T
   2    -83.7660928 -0.272382E-06  0.175E-03    1.78       8.8  T
   3    -83.7660929 -0.218344E-07  0.915E-04    1.78      16.9  T
   4    -83.7660929 -0.165609E-08  0.229E-04    1.78      67.3  T
   5    -83.7660929 -0.483695E-09  0.533E-05    1.78     289.3  T
   6    -83.7660929 -0.285212E-10  0.136E-05    1.78    1132.3  T
     SCC iter.                  ...        0 min,  0.021 sec
     gradient                   ...        0 min,  0.084 sec
 * total energy  :   -82.9853748 Eh     change       -0.3461100E-04 Eh
   gradient norm :     0.0027397 Eh/α   predicted    -0.2378423E-04 ( -31.28%)
   displ. norm   :     0.1538550 α      lambda       -0.4065090E-04
   maximum displ.:     0.1155443 α      in ANC's #2, #1, #3, ...

........................................................................
.............................. CYCLE   18 ..............................
........................................................................
   1    -83.7664110 -0.837664E+02  0.202E-03    1.78       0.0  T
   2    -83.7664111 -0.125111E-06  0.102E-03    1.77      15.2  T
   3    -83.7664111 -0.683505E-08  0.566E-04    1.78      27.3  T
   4    -83.7664111 -0.396128E-09  0.163E-04    1.77      94.7  T
   5    -83.7664111 -0.480597E-09  0.329E-05    1.77     469.4  T
     SCC iter.                  ...        0 min,  0.018 sec
     gradient                   ...        0 min,  0.057 sec
 * total energy  :   -82.9854067 Eh     change       -0.3197113E-04 Eh
   gradient norm :     0.0028346 Eh/α   predicted    -0.2080880E-04 ( -34.91%)
   displ. norm   :     0.1740710 α      lambda       -0.3943336E-04
   maximum displ.:     0.1299078 α      in ANC's #2, #1, #3, ...

........................................................................
.............................. CYCLE   19 ..............................
........................................................................
   1    -83.7665542 -0.837666E+02  0.224E-03    1.77       0.0  T
   2    -83.7665544 -0.160003E-06  0.110E-03    1.77      14.0  T
   3    -83.7665544 -0.161086E-07  0.541E-04    1.77      28.5  T
   4    -83.7665544 -0.614904E-09  0.187E-04    1.77      82.6  T
   5    -83.7665544 -0.243645E-09  0.348E-05    1.77     443.4  T
     SCC iter.                  ...        0 min,  0.013 sec
     gradient                   ...        0 min,  0.045 sec
 * total energy  :   -82.9854368 Eh     change       -0.3001542E-04 Eh
   gradient norm :     0.0021830 Eh/α   predicted    -0.2031536E-04 ( -32.32%)
   displ. norm   :     0.1576168 α      lambda       -0.2773219E-04
   maximum displ.:     0.1181205 α      in ANC's #2, #1, #3, ...

........................................................................
.............................. CYCLE   20 ..............................
........................................................................
   1    -83.7665343 -0.837665E+02  0.245E-03    1.77       0.0  T
   2    -83.7665346 -0.238794E-06  0.131E-03    1.77      11.7  T
   3    -83.7665346 -0.300072E-07  0.575E-04    1.77      26.9  T
   4    -83.7665346 -0.159545E-09  0.200E-04    1.77      77.0  T
   5    -83.7665346 -0.269537E-09  0.350E-05    1.77     440.9  T
   6    -83.7665346 -0.245706E-10  0.108E-05    1.77    1430.2  T
     SCC iter.                  ...        0 min,  0.017 sec
     gradient                   ...        0 min,  0.085 sec
 * total energy  :   -82.9854563 Eh     change       -0.1954310E-04 Eh
   gradient norm :     0.0014183 Eh/α   predicted    -0.1421230E-04 ( -27.28%)
   displ. norm   :     0.1490920 α      lambda       -0.1377521E-04
   maximum displ.:     0.1118731 α      in ANC's #2, #1, #12, ...
 * RMSD in coord.:     0.5995338 α      energy gain  -0.1918278E-01 Eh

generating ANC from model Hessian ...
Using Lindh-Hessian (1995)
 Shifting diagonal of input Hessian by   9.829250014477618E-003
 Lowest  eigenvalues of input Hessian
    0.000000    0.000000    0.000000    0.000000    0.000000    0.000000
    0.010000    0.010214    0.010548    0.010853    0.012196    0.012579
    0.013148    0.014146    0.014504    0.015854    0.016536    0.017270
 Highest eigenvalues
    2.030102    2.183956    2.259415    2.376089    2.406691    2.417379
 

........................................................................
.............................. CYCLE   21 ..............................
........................................................................
   1    -83.7668459 -0.837668E+02  0.266E-03    1.77       0.0  T
   2    -83.7668462 -0.295160E-06  0.160E-03    1.77       9.6  T
   3    -83.7668463 -0.386202E-07  0.748E-04    1.77      20.6  T
   4    -83.7668463 -0.550671E-10  0.190E-04    1.77      81.2  T
   5    -83.7668463 -0.283890E-09  0.310E-05    1.77     497.9  T
     SCC iter.                  ...        0 min,  0.018 sec
     gradient                   ...        0 min,  0.085 sec
 * total energy  :   -82.9854680 Eh     change       -0.1171215E-04 Eh
   gradient norm :     0.0016822 Eh/α   predicted     0.0000000E+00 (-100.00%)
   displ. norm   :     0.0251237 α      lambda       -0.3184626E-05
   maximum displ.:     0.0122918 α      in ANC's #6, #7, #5, ...

........................................................................
.............................. CYCLE   22 ..............................
........................................................................
   1    -83.7665737 -0.837666E+02  0.171E-03    1.77       0.0  T
   2    -83.7665738 -0.103809E-06  0.688E-04    1.77      22.4  T
   3    -83.7665739 -0.664153E-08  0.368E-04    1.77      41.9  T
   4    -83.7665739 -0.255625E-09  0.138E-04    1.77     111.4  T
   5    -83.7665739 -0.146386E-09  0.213E-05    1.77     725.2  T
     SCC iter.                  ...        0 min,  0.018 sec
     gradient                   ...        0 min,  0.084 sec
 * total energy  :   -82.9854753 Eh     change       -0.7284544E-05 Eh
   gradient norm :     0.0006310 Eh/α   predicted    -0.3130757E-05 ( -57.02%)
   displ. norm   :     0.0750251 α      lambda       -0.1107368E-04
   maximum displ.:     0.0354880 α      in ANC's #6, #7, #4, ...

........................................................................
.............................. CYCLE   23 ..............................
........................................................................
   1    -83.7664429 -0.837664E+02  0.278E-03    1.77       0.0  T
   2    -83.7664432 -0.277314E-06  0.108E-03    1.77      14.3  T
   3    -83.7664432 -0.303948E-07  0.423E-04    1.77      36.5  T
   4    -83.7664432 -0.640767E-09  0.191E-04    1.77      80.6  T
   5    -83.7664432 -0.164093E-09  0.410E-05    1.77     375.9  T
     SCC iter.                  ...        0 min,  0.018 sec
     gradient                   ...        0 min,  0.062 sec
 * total energy  :   -82.9854861 Eh     change       -0.1084250E-04 Eh
   gradient norm :     0.0013309 Eh/α   predicted    -0.5551751E-05 ( -48.80%)
   displ. norm   :     0.0692467 α      lambda       -0.6115680E-05
   maximum displ.:     0.0295955 α      in ANC's #6, #4, #2, ...

........................................................................
.............................. CYCLE   24 ..............................
........................................................................
   1    -83.7665165 -0.837665E+02  0.154E-03    1.77       0.0  T
   2    -83.7665166 -0.951857E-07  0.754E-04    1.77      20.5  T
   3    -83.7665166 -0.176223E-07  0.244E-04    1.77      63.1  T
   4    -83.7665166 -0.187867E-09  0.921E-05    1.77     167.5  T
   5    -83.7665166 -0.433005E-10  0.232E-05    1.77     664.9  T
     SCC iter.                  ...        0 min,  0.018 sec
     gradient                   ...        0 min,  0.076 sec
 * total energy  :   -82.9854925 Eh     change       -0.6352386E-05 Eh
   gradient norm :     0.0014603 Eh/α   predicted    -0.3070481E-05 ( -51.66%)
   displ. norm   :     0.0952842 α      lambda       -0.7500100E-05
   maximum displ.:     0.0420876 α      in ANC's #4, #2, #6, ...

........................................................................
.............................. CYCLE   25 ..............................
........................................................................
   1    -83.7665948 -0.837666E+02  0.139E-03    1.77       0.0  T
   2    -83.7665949 -0.933556E-07  0.874E-04    1.77      17.7  T
   3    -83.7665949 -0.173586E-07  0.364E-04    1.77      42.4  T
   4    -83.7665949 -0.288168E-09  0.115E-04    1.77     134.3  T
   5    -83.7665949 -0.681126E-10  0.317E-05    1.77     487.3  T
     SCC iter.                  ...        0 min,  0.013 sec
     gradient                   ...        0 min,  0.045 sec
 * total energy  :   -82.9855005 Eh     change       -0.8030927E-05 Eh
   gradient norm :     0.0011287 Eh/α   predicted    -0.3770795E-05 ( -53.05%)
   displ. norm   :     0.1130885 α      lambda       -0.8518788E-05
   maximum displ.:     0.0545084 α      in ANC's #4, #2, #5, ...

........................................................................
.............................. CYCLE   26 ..............................
........................................................................
   1    -83.7667541 -0.837668E+02  0.205E-03    1.77       0.0  T
   2    -83.7667543 -0.186893E-06  0.120E-03    1.77      12.9  T
   3    -83.7667543 -0.320955E-07  0.504E-04    1.77      30.6  T
   4    -83.7667543 -0.329010E-09  0.176E-04    1.77      87.5  T
   5    -83.7667543 -0.168754E-09  0.387E-05    1.77     399.1  T
     SCC iter.                  ...        0 min,  0.013 sec
     gradient                   ...        0 min,  0.045 sec
 * total energy  :   -82.9855106 Eh     change       -0.1005593E-04 Eh
   gradient norm :     0.0005986 Eh/α   predicted    -0.4292169E-05 ( -57.32%)
   displ. norm   :     0.1426863 α      lambda       -0.1009334E-04
   maximum displ.:     0.0715656 α      in ANC's #4, #2, #5, ...

........................................................................
.............................. CYCLE   27 ..............................
........................................................................
   1    -83.7667347 -0.837667E+02  0.241E-03    1.76       0.0  T
   2    -83.7667349 -0.239789E-06  0.128E-03    1.76      12.0  T
   3    -83.7667349 -0.347192E-07  0.548E-04    1.76      28.2  T
   4    -83.7667349 -0.657394E-09  0.211E-04    1.76      73.2  T
   5    -83.7667349 -0.247383E-09  0.482E-05    1.76     320.3  T
   6    -83.7667349 -0.230642E-10  0.164E-05    1.76     938.2  T
     SCC iter.                  ...        0 min,  0.015 sec
     gradient                   ...        0 min,  0.045 sec
 * total energy  :   -82.9855220 Eh     change       -0.1143725E-04 Eh
   gradient norm :     0.0011397 Eh/α   predicted    -0.5093046E-05 ( -55.47%)
   displ. norm   :     0.1469983 α      lambda       -0.8729715E-05
   maximum displ.:     0.0760051 α      in ANC's #2, #4, #3, ...

........................................................................
.............................. CYCLE   28 ..............................
........................................................................
   1    -83.7666243 -0.837666E+02  0.192E-03    1.76       0.0  T
   2    -83.7666245 -0.155681E-06  0.984E-04    1.76      15.7  T
   3    -83.7666245 -0.196928E-07  0.445E-04    1.76      34.6  T
   4    -83.7666245 -0.669402E-09  0.172E-04    1.76      89.7  T
   5    -83.7666245 -0.169649E-09  0.397E-05    1.76     389.1  T
     SCC iter.                  ...        0 min,  0.013 sec
     gradient                   ...        0 min,  0.045 sec
 * total energy  :   -82.9855315 Eh     change       -0.9458664E-05 Eh
   gradient norm :     0.0013578 Eh/α   predicted    -0.4409989E-05 ( -53.38%)
   displ. norm   :     0.1047773 α      lambda       -0.5986012E-05
   maximum displ.:     0.0582666 α      in ANC's #2, #4, #3, ...

........................................................................
.............................. CYCLE   29 ..............................
........................................................................
   1    -83.7667015 -0.837667E+02  0.129E-03    1.76       0.0  T
   2    -83.7667016 -0.535868E-07  0.544E-04    1.76      28.4  T
   3    -83.7667016 -0.237698E-08  0.297E-04    1.76      51.9  T
   4    -83.7667016 -0.220268E-09  0.101E-04    1.76     152.5  T
   5    -83.7667016 -0.127869E-09  0.236E-05    1.76     653.7  T
     SCC iter.                  ...        0 min,  0.013 sec
     gradient                   ...        0 min,  0.056 sec
 * total energy  :   -82.9855379 Eh     change       -0.6401924E-05 Eh
   gradient norm :     0.0010061 Eh/α   predicted    -0.3011873E-05 ( -52.95%)
   displ. norm   :     0.0898897 α      lambda       -0.5060061E-05
   maximum displ.:     0.0525823 α      in ANC's #2, #4, #15, ...

........................................................................
.............................. CYCLE   30 ..............................
........................................................................
   1    -83.7667101 -0.837667E+02  0.134E-03    1.76       0.0  T
   2    -83.7667101 -0.630338E-07  0.543E-04    1.76      28.4  T
   3    -83.7667101 -0.409709E-08  0.285E-04    1.76      54.1  T
   4    -83.7667101 -0.109168E-09  0.102E-04    1.76     150.9  T
   5    -83.7667101 -0.917026E-10  0.157E-05    1.76     984.1  T
     SCC iter.                  ...        0 min,  0.013 sec
     gradient                   ...        0 min,  0.045 sec
 * total energy  :   -82.9855438 Eh     change       -0.5890479E-05 Eh
   gradient norm :     0.0005466 Eh/α   predicted    -0.2541715E-05 ( -56.85%)
   displ. norm   :     0.1309321 α      lambda       -0.6568768E-05
   maximum displ.:     0.0779273 α      in ANC's #2, #4, #15, ...

........................................................................
.............................. CYCLE   31 ..............................
........................................................................
   1    -83.7664167 -0.837664E+02  0.188E-03    1.76       0.0  T
   2    -83.7664169 -0.130078E-06  0.813E-04    1.75      19.0  T
   3    -83.7664169 -0.978198E-08  0.409E-04    1.75      37.8  T
   4    -83.7664169 -0.356664E-09  0.167E-04    1.75      92.5  T
   5    -83.7664169 -0.157442E-09  0.254E-05    1.75     606.6  T
     SCC iter.                  ...        0 min,  0.014 sec
     gradient                   ...        0 min,  0.046 sec
 * total energy  :   -82.9855514 Eh     change       -0.7669934E-05 Eh
   gradient norm :     0.0011276 Eh/α   predicted    -0.3311409E-05 ( -56.83%)
   displ. norm   :     0.1604547 α      lambda       -0.7595456E-05
   maximum displ.:     0.0978389 α      in ANC's #2, #4, #15, ...

........................................................................
.............................. CYCLE   32 ..............................
........................................................................
   1    -83.7664152 -0.837664E+02  0.157E-03    1.75       0.0  T
   2    -83.7664153 -0.754253E-07  0.772E-04    1.75      20.0  T
   3    -83.7664153 -0.643259E-08  0.397E-04    1.75      38.9  T
   4    -83.7664153 -0.335561E-09  0.134E-04    1.75     115.5  T
   5    -83.7664153 -0.151317E-09  0.247E-05    1.75     625.4  T
     SCC iter.                  ...        0 min,  0.013 sec
     gradient                   ...        0 min,  0.045 sec
 * total energy  :   -82.9855600 Eh     change       -0.8582403E-05 Eh
   gradient norm :     0.0015625 Eh/α   predicted    -0.3843637E-05 ( -55.21%)
   displ. norm   :     0.1530863 α      lambda       -0.6369267E-05
   maximum displ.:     0.0945520 α      in ANC's #2, #4, #6, ...

........................................................................
.............................. CYCLE   33 ..............................
........................................................................
   1    -83.7660929 -0.837661E+02  0.151E-03    1.75       0.0  T
   2    -83.7660930 -0.116846E-06  0.895E-04    1.75      17.2  T
   3    -83.7660931 -0.161522E-07  0.403E-04    1.75      38.3  T
   4    -83.7660931 -0.314358E-09  0.156E-04    1.75      99.1  T
   5    -83.7660931 -0.537312E-10  0.263E-05    1.75     587.2  T
     SCC iter.                  ...        0 min,  0.013 sec
     gradient                   ...        0 min,  0.045 sec
 * total energy  :   -82.9855671 Eh     change       -0.7125036E-05 Eh
   gradient norm :     0.0015394 Eh/α   predicted    -0.3221473E-05 ( -54.79%)
   displ. norm   :     0.1314839 α      lambda       -0.6517529E-05
   maximum displ.:     0.0846757 α      in ANC's #2, #4, #6, ...

........................................................................
.............................. CYCLE   34 ..............................
........................................................................
   1    -83.7666889 -0.837667E+02  0.176E-03    1.75       0.0  T
   2    -83.7666890 -0.704727E-07  0.870E-04    1.75      17.7  T
   3    -83.7666890 -0.529852E-08  0.460E-04    1.75      33.6  T
   4    -83.7666890 -0.536787E-09  0.122E-04    1.75     126.7  T
   5    -83.7666890 -0.101906E-09  0.222E-05    1.75     695.8  T
     SCC iter.                  ...        0 min,  0.013 sec
     gradient                   ...        0 min,  0.045 sec
 * total energy  :   -82.9855734 Eh     change       -0.6225120E-05 Eh
   gradient norm :     0.0006880 Eh/α   predicted    -0.3290414E-05 ( -47.14%)
   displ. norm   :     0.1729756 α      lambda       -0.5101679E-05
   maximum displ.:     0.1055693 α      in ANC's #2, #4, #6, ...

........................................................................
.............................. CYCLE   35 ..............................
........................................................................
   1    -83.7656652 -0.837657E+02  0.293E-03    1.75       0.0  T
   2    -83.7656657 -0.447303E-06  0.164E-03    1.75       9.4  T
   3    -83.7656658 -0.673420E-07  0.700E-04    1.75      22.0  T
   4    -83.7656658 -0.764288E-09  0.281E-04    1.75      54.9  T
   5    -83.7656658 -0.256065E-09  0.528E-05    1.75     292.4  T
   6    -83.7656658 -0.607230E-10  0.179E-05    1.75     860.3  T
     SCC iter.                  ...        0 min,  0.015 sec
     gradient                   ...        0 min,  0.045 sec
 * total energy  :   -82.9855767 Eh     change       -0.3292591E-05 Eh
   gradient norm :     0.0018090 Eh/α   predicted    -0.2585462E-05 ( -21.48%)
   displ. norm   :     0.0333888 α      lambda       -0.4424544E-05
   maximum displ.:     0.0193339 α      in ANC's #2, #1, #4, ...

........................................................................
.............................. CYCLE   36 ..............................
........................................................................
   1    -83.7664417 -0.837664E+02  0.161E-03    1.75       0.0  T
   2    -83.7664418 -0.387563E-07  0.829E-04    1.75      18.6  T
   3    -83.7664418 -0.252352E-08  0.450E-04    1.75      34.3  T
   4    -83.7664418 -0.848374E-09  0.615E-05    1.75     250.9  T
   5    -83.7664418 -0.388383E-10  0.162E-05    1.75     952.0  T
     SCC iter.                  ...        0 min,  0.013 sec
     gradient                   ...        0 min,  0.045 sec
 * total energy  :   -82.9855814 Eh     change       -0.4750778E-05 Eh
   gradient norm :     0.0011489 Eh/α   predicted    -0.2214244E-05 ( -53.39%)
   displ. norm   :     0.1236092 α      lambda       -0.5948717E-05
   maximum displ.:     0.0749105 α      in ANC's #2, #4, #1, ...

........................................................................
.............................. CYCLE   37 ..............................
........................................................................
   1    -83.7668439 -0.837668E+02  0.160E-03    1.75       0.0  T
   2    -83.7668440 -0.626900E-07  0.829E-04    1.75      18.6  T
   3    -83.7668440 -0.471971E-08  0.435E-04    1.75      35.4  T
   4    -83.7668440 -0.842761E-09  0.111E-04    1.75     138.9  T
   5    -83.7668440 -0.147566E-09  0.259E-05    1.75     596.1  T
     SCC iter.                  ...        0 min,  0.013 sec
     gradient                   ...        0 min,  0.045 sec
 * total energy  :   -82.9855880 Eh     change       -0.6631923E-05 Eh
   gradient norm :     0.0011551 Eh/α   predicted    -0.2996532E-05 ( -54.82%)
   displ. norm   :     0.2127506 α      lambda       -0.6758010E-05
   maximum displ.:     0.1259845 α      in ANC's #2, #4, #6, ...

........................................................................
.............................. CYCLE   38 ..............................
........................................................................
   1    -83.7663919 -0.837664E+02  0.226E-03    1.75       0.0  T
   2    -83.7663922 -0.312125E-06  0.135E-03    1.75      11.4  T
   3    -83.7663922 -0.437801E-07  0.597E-04    1.75      25.8  T
   4    -83.7663922 -0.914824E-09  0.245E-04    1.75      62.9  T
   5    -83.7663922 -0.299380E-09  0.501E-05    1.75     307.9  T
   6    -83.7663922 -0.266027E-10  0.181E-05    1.75     852.5  T
     SCC iter.                  ...        0 min,  0.015 sec
     gradient                   ...        0 min,  0.045 sec
 * total energy  :   -82.9855936 Eh     change       -0.5553591E-05 Eh
   gradient norm :     0.0013303 Eh/α   predicted    -0.3448218E-05 ( -37.91%)
   displ. norm   :     0.0386818 α      lambda       -0.3539526E-05
   maximum displ.:     0.0201838 α      in ANC's #1, #3, #7, ...

........................................................................
.............................. CYCLE   39 ..............................
........................................................................
   1    -83.7672084 -0.837672E+02  0.256E-03    1.75       0.0  T
   2    -83.7672087 -0.240105E-06  0.110E-03    1.75      14.0  T
   3    -83.7672087 -0.288339E-07  0.487E-04    1.75      31.7  T
   4    -83.7672087 -0.302052E-09  0.173E-04    1.75      89.2  T
   5    -83.7672087 -0.125780E-09  0.306E-05    1.75     503.5  T
     SCC iter.                  ...        0 min,  0.013 sec
     gradient                   ...        0 min,  0.045 sec
 * total energy  :   -82.9855960 Eh     change       -0.2363572E-05 Eh
   gradient norm :     0.0007537 Eh/α   predicted    -0.1775508E-05 ( -24.88%)
   displ. norm   :     0.0410605 α      lambda       -0.1751029E-05
   maximum displ.:     0.0269594 α      in ANC's #4, #2, #1, ...

   *** GEOMETRY OPTIMIZATION CONVERGED AFTER 39 ITERATIONS ***

------------------------------------------------------------------------
 total energy gain   :        -0.0193224 Eh      -12.1250 kcal/mol
 total RMSD          :         0.7097454 a0        0.3756 Å
 total power (kW/mol):        -1.3007968 (step)  -10.7858 (real)
------------------------------------------------------------------------

 ANCopt (total)                0 d,  0 h,  0 min,  4.704 sec
 optimizer setup                ...        0 min,  0.001 sec (  0.017%)
 model hessian                  ...        0 min,  0.086 sec (  1.835%)
 ANC generation                 ...        0 min,  0.005 sec (  0.103%)
 coordinate transformation      ...        0 min,  0.001 sec (  0.025%)
 single point calculation       ...        0 min,  4.591 sec ( 97.602%)
 optimization log               ...        0 min,  0.010 sec (  0.223%)
 hessian update                 ...        0 min,  0.001 sec (  0.023%)
 rational function              ...        0 min,  0.005 sec (  0.106%)

================
 final structure:
================
42
 xtb: 6.5.1 (579679a)
C           -3.69093479349487        3.43036697054554       -1.41933195109352
O           -3.50724537474667        2.12192262431503       -0.86214549806437
C           -2.33906419828506        1.87474858952063       -0.30025382498486
O           -1.43004908664436        2.66186885460864       -0.22972519588297
C           -2.24271891051808        0.45809087100731        0.23540254829695
C           -3.45932351843507       -0.32049821082541        0.60118970554307
O           -4.53125951775794        0.17676987590792        0.83273342104930
C           -3.22873973626604       -1.83004244468338        0.70945514928135
O           -4.13878637018136       -2.63378123270644        0.70497189546876
N           -1.93172329068506       -2.19249346840979        0.79377110128782
C           -0.78532088794899       -1.30876082097237        0.86729403550325
C           -0.36761644506011       -1.14799326800976        2.33758346869453
C            0.36261020500763       -1.87239988198131       -0.03482126532495
C            0.93663680510167       -3.18071787138987        0.51082061277458
C           -0.16328921123064       -2.05847731194184       -1.46319630475496
N            1.39775563573114       -0.83947981088653       -0.02734588757757
C            2.56757231704733       -0.94254589485837       -0.69025228928098
O            2.95668836031919       -1.92443169207908       -1.30051119417170
C            3.38113943839350        0.29612653951127       -0.58722727144087
N            4.53783725248980        0.53265725484876       -1.12295606636664
N            4.89217360545581        1.79567066052106       -0.75380829747959
C            3.93001667487666        2.25289593401885       -0.01443025745995
C            3.84130218986338        3.57819000878607        0.63605013705647
O            2.94169397814520        1.35451558159476        0.12905515518207
N           -1.06033332033613        0.00297216325076        0.37681664008179
H           -2.97932473256900        3.58880575706559       -2.23201014495461
H           -4.71152628776265        3.46694592657730       -1.79370053139742
H           -3.53621556808130        4.18740211996654       -0.64812248617318
H           -1.76364429410553       -3.16857815101382        0.98545951702389
H           -0.20838006709708       -2.12648576231288        2.78289709288357
H            0.54679344104459       -0.56336496581212        2.40421833370281
H           -1.16192460008121       -0.63672483110069        2.87816470726461
H            1.65725829249276       -3.58478397475216       -0.19876516165823
H            1.44175295431585       -3.01395659204485        1.46006369235308
H            0.14493558443568       -3.91333793785439        0.65071883827289
H            0.64365972138235       -2.40168156599444       -2.10868482747013
H           -0.96029276976457       -2.79946861115008       -1.47028078689789
H           -0.55008018351428       -1.11447765403175       -1.84432954219880
H            1.12777564966271        0.06868501398206        0.32353289851063
H            2.97747105526042        4.12353238059214        0.25669484225678
H            3.71624450290503        3.45662231896324        1.71138480720566
H            4.74647650063221        4.14568950922316        0.43439918494031
 
 Bond Distances (Angstroems)
 ---------------------------
C1-O2=1.4340         C1-H26=1.0918        C1-H27=1.0877        C1-H28=1.0917        O2-C1=1.4340         O2-C3=1.3196         
C3-O2=1.3196         C3-O4=1.2045         C3-C5=1.5176         O4-C3=1.2045         C5-C3=1.5176         C5-C6=1.4900         
C5-N25=1.2748        C6-C5=1.4900         C6-O7=1.2041         C6-C8=1.5309         O7-C6=1.2041         C8-C6=1.5309         
C8-O9=1.2142         C8-N10=1.3493        O9-C8=1.2142         N10-C8=1.3493        N10-C11=1.4494       N10-H29=1.0088       
C11-N10=1.4494       C11-C12=1.5369       C11-C13=1.5650       C11-N25=1.4272       C12-C11=1.5369       C12-H30=1.0868       
C12-H31=1.0874       C12-H32=1.0884       C13-C11=1.5650       C13-C14=1.5294       C13-C15=1.5334       C13-N16=1.4624       
C14-C13=1.5294       C14-H33=1.0891       C14-H34=1.0881       C14-H35=1.0877       C15-C13=1.5334       C15-H36=1.0889       
C15-H37=1.0883       C15-H38=1.0890       N16-C13=1.4624       N16-C17=1.3485       N16-H39=1.0103       C17-N16=1.3485       
C17-O18=1.2198       C17-C19=1.4855       O18-C17=1.2198       C19-C17=1.4855       C19-N20=1.2965       C19-O24=1.3514       
N20-C19=1.2965       N20-N21=1.3627       N21-N20=1.3627       N21-C22=1.2967       C22-N21=1.2967       C22-C23=1.4790       
C22-O24=1.3433       C23-C22=1.4790       C23-H40=1.0897       C23-H41=1.0894       C23-H42=1.0872       O24-C19=1.3514       
O24-C22=1.3433       N25-C5=1.2748        N25-C11=1.4272       H26-C1=1.0918        H27-C1=1.0877        H28-C1=1.0917        
H29-N10=1.0088       H30-C12=1.0868       H31-C12=1.0874       H32-C12=1.0884       H33-C14=1.0891       H34-C14=1.0881       
H35-C14=1.0877       H36-C15=1.0889       H37-C15=1.0883       H38-C15=1.0890       H39-N16=1.0103       H40-C23=1.0897       
H41-C23=1.0894       H42-C23=1.0872       
 C  H  Rav=1.0887 sigma=0.0014  Rmin=1.0868  Rmax=1.0918    15
 C  C  Rav=1.5186 sigma=0.0268  Rmin=1.4790  Rmax=1.5650     9
 N  H  Rav=1.0096 sigma=0.0008  Rmin=1.0088  Rmax=1.0103     2
 N  C  Rav=1.3631 sigma=0.0693  Rmin=1.2748  Rmax=1.4624     8
 N  N  Rav=1.3627 sigma=0.0000  Rmin=1.3627  Rmax=1.3627     1
 O  C  Rav=1.2864 sigma=0.0818  Rmin=1.2041  Rmax=1.4340     8
 
 selected bond angles (degree)
 --------------------
H26-C1-O2=109.77               H27-C1-O2=106.54               H27-C1-H26=110.52              H28-C1-O2=109.88               
H28-C1-H26=109.44              H28-C1-H27=110.66              C3-O2-C1=116.73                O4-C3-O2=124.79                
C5-C3-O2=112.42                C5-C3-O4=122.78                C6-C5-C3=121.51                N25-C5-C3=115.55               
N25-C5-C6=122.92               O7-C6-C5=123.94                C8-C6-C5=114.18                C8-C6-O7=121.85                
O9-C8-C6=122.66                N10-C8-C6=114.46               N10-C8-O9=122.88               C11-N10-C8=126.85              
H29-N10-C8=115.59              H29-N10-C11=116.65             
 
 selected dihedral angles (degree)
 ---------------------------------
C3-O2-C1-H26= 62.74           C3-O2-C1-H27=182.43           C3-O2-C1-H28=302.34           O4-C3-O2-C1=359.75            
C5-C3-O2-C1=180.94            C6-C5-C3-O2=335.94            C6-C5-C3-O4=157.11            N25-C5-C3-O2=157.52           
N25-C5-C3-O4=338.69           O7-C6-C5-C3=340.29            O7-C6-C5-N25=158.59           C8-C6-C5-C3=162.29            
C8-C6-C5-N25=340.59           O9-C8-C6-C5=196.62            O9-C8-C6-O7= 18.58            N10-C8-C6-C5= 15.86           
N10-C8-C6-O7=197.82           C11-N10-C8-C6=  3.78          C11-N10-C8-O9=183.02          H29-N10-C8-C6=172.40          
H29-N10-C8-O9=351.63          
           -------------------------------------------------
          |                Final Singlepoint                |
           -------------------------------------------------

          ...................................................
          :                      SETUP                      :
          :.................................................:
          :  # basis functions                 134          :
          :  # atomic orbitals                 134          :
          :  # shells                           84          :
          :  # electrons                       134          :
          :  # halogen bonds                     0          :
          :  max. iterations                   250          :
          :  Hamiltonian                  GFN1-xTB          :
          :  restarted?                      false          :
          :  GBSA solvation                   true          :
          :  PC potential                    false          :
          :  electronic temp.          300.0000000     K    :
          :  accuracy                    1.0000000          :
          :  -> integral cutoff          0.2500000E+02      :
          :  -> integral neglect         0.1000000E-07      :
          :  -> SCF convergence          0.1000000E-05 Eh   :
          :  -> wf. convergence          0.2000000E-04 e    :
          :  Broyden damping             0.4000000          :
          ...................................................

 iter      E             dE          RMSdq      gap      omega  full diag
   1    -83.7672087 -0.837672E+02  0.100E-05    1.75       0.0  T
   2    -83.7672087 -0.197531E-11  0.461E-06    1.75    3349.8  T
   3    -83.7672087 -0.156319E-12  0.240E-06    1.75    6440.1  T

   *** convergence criteria satisfied after 3 iterations ***

         #    Occupation            Energy/Eh            Energy/eV
      -------------------------------------------------------------
         1        2.0000           -0.8660525             -23.5665
       ...           ...                  ...                  ...
        61        2.0000           -0.4808306             -13.0841
        62        2.0000           -0.4700079             -12.7896
        63        2.0000           -0.4641251             -12.6295
        64        2.0000           -0.4600898             -12.5197
        65        2.0000           -0.4524961             -12.3130
        66        2.0000           -0.4483779             -12.2010
        67        2.0000           -0.4382894             -11.9265 (HOMO)
        68                         -0.3741005             -10.1798 (LUMO)
        69                         -0.3190426              -8.6816
        70                         -0.3114697              -8.4755
        71                         -0.2574456              -7.0055
        72                         -0.2505922              -6.8190
       ...                                ...                  ...
       134                          0.7686514              20.9161
      -------------------------------------------------------------
                  HL-Gap            0.0641889 Eh            1.7467 eV
             Fermi-level           -0.4061950 Eh          -11.0531 eV

 SCC (total)                   0 d,  0 h,  0 min,  0.076 sec
 SCC setup                      ...        0 min,  0.001 sec (  1.737%)
 Dispersion                     ...        0 min,  0.000 sec (  0.288%)
 classical contributions        ...        0 min,  0.000 sec (  0.111%)
 integral evaluation            ...        0 min,  0.020 sec ( 26.098%)
 iterations                     ...        0 min,  0.008 sec ( 10.693%)
 molecular gradient             ...        0 min,  0.046 sec ( 60.336%)
 printout                       ...        0 min,  0.001 sec (  0.688%)

         :::::::::::::::::::::::::::::::::::::::::::::::::::::
         ::                     SUMMARY                     ::
         :::::::::::::::::::::::::::::::::::::::::::::::::::::
         :: total energy             -82.985595954952 Eh    ::
         :: total w/o Gsasa/hb       -82.966235798168 Eh    ::
         :: gradient norm              0.000754644924 Eh/a0 ::
         :: HOMO-LUMO gap              1.746668436120 eV    ::
         ::.................................................::
         :: SCC energy               -83.767208703454 Eh    ::
         :: -> electrostatic           0.359898300161 Eh    ::
         :: -> Gsolv                  -0.056777380814 Eh    ::
         ::    -> Gelec               -0.037417224031 Eh    ::
         ::    -> Gsasa               -0.023475690273 Eh    ::
         ::    -> Ghb                 -0.003508745515 Eh    ::
         ::    -> Gshift               0.007624279005 Eh    ::
         :: repulsion energy           0.809070161500 Eh    ::
         :: dispersion energy         -0.027457412998 Eh    ::
         :: halogen bond corr.         0.000000000000 Eh    ::
         :: add. restraining           0.000000000000 Eh    ::
         :: total charge               0.000000000000 e     ::
         :::::::::::::::::::::::::::::::::::::::::::::::::::::

           -------------------------------------------------
          |                Property Printout                |
           -------------------------------------------------

    * Orbital Energies and Occupations

         #    Occupation            Energy/Eh            Energy/eV
      -------------------------------------------------------------
         1        2.0000           -0.8660525             -23.5665
       ...           ...                  ...                  ...
        55        2.0000           -0.5059174             -13.7667
        56        2.0000           -0.5058094             -13.7638
        57        2.0000           -0.5046006             -13.7309
        58        2.0000           -0.5009787             -13.6323
        59        2.0000           -0.4954106             -13.4808
        60        2.0000           -0.4813211             -13.0974
        61        2.0000           -0.4808306             -13.0841
        62        2.0000           -0.4700079             -12.7896
        63        2.0000           -0.4641251             -12.6295
        64        2.0000           -0.4600898             -12.5197
        65        2.0000           -0.4524961             -12.3130
        66        2.0000           -0.4483779             -12.2010
        67        2.0000           -0.4382894             -11.9265 (HOMO)
        68                         -0.3741005             -10.1798 (LUMO)
        69                         -0.3190426              -8.6816
        70                         -0.3114697              -8.4755
        71                         -0.2574456              -7.0055
        72                         -0.2505922              -6.8190
        73                         -0.2017881              -5.4909
        74                         -0.1994367              -5.4269
        75                         -0.1429740              -3.8905
        76                         -0.1425731              -3.8796
        77                         -0.1415621              -3.8521
        78                         -0.1372719              -3.7354
       ...                                ...                  ...
       134                          0.7686514              20.9161
      -------------------------------------------------------------
                  HL-Gap            0.0641889 Eh            1.7467 eV
             Fermi-level           -0.4061950 Eh          -11.0531 eV

  Mulliken/CM5 charges         n(s)   n(p)   n(d)
     1C     0.16105  0.03989   0.984  2.855  0.000
     2O    -0.39790 -0.48230   1.683  4.715  0.000
     3C     0.58707  0.65597   0.964  2.449  0.000
     4O    -0.53797 -0.58240   1.721  4.817  0.000
     5C     0.12940  0.22489   1.077  2.794  0.000
     6C     0.36702  0.41627   1.068  2.565  0.000
     7O    -0.46382 -0.50527   1.729  4.735  0.000
     8C     0.45952  0.56687   0.991  2.550  0.000
     9O    -0.54958 -0.58851   1.724  4.825  0.000
    10N    -0.34514 -0.69864   1.437  3.908  0.000
    11C     0.24740  0.35137   1.050  2.703  0.000
    12C    -0.09980 -0.23438   1.026  3.073  0.000
    13C     0.15688  0.19670   1.075  2.769  0.000
    14C    -0.11336 -0.25444   1.021  3.093  0.000
    15C    -0.10887 -0.24662   1.020  3.089  0.000
    16N    -0.33966 -0.69585   1.432  3.908  0.000
    17C     0.46996  0.57859   0.976  2.554  0.000
    18O    -0.57640 -0.62172   1.726  4.850  0.000
    19C     0.33029  0.45612   1.008  2.661  0.000
    20N    -0.22258 -0.32650   1.566  3.657  0.000
    21N    -0.26872 -0.37648   1.564  3.705  0.000
    22C     0.39194  0.50058   1.007  2.601  0.000
    23C    -0.11043 -0.24790   1.012  3.099  0.000
    24O    -0.35712 -0.41425   1.697  4.661  0.000
    25N    -0.27789 -0.47677   1.550  3.728  0.000
    26H     0.05880  0.12028   0.941  0.000  0.000
    27H     0.06212  0.12246   0.938  0.000  0.000
    28H     0.06075  0.12267   0.939  0.000  0.000
    29H     0.28047  0.48135   0.720  0.000  0.000
    30H     0.06539  0.12277   0.935  0.000  0.000
    31H     0.06770  0.12791   0.932  0.000  0.000
    32H     0.06465  0.12386   0.935  0.000  0.000
    33H     0.07093  0.13153   0.929  0.000  0.000
    34H     0.05132  0.10868   0.949  0.000  0.000
    35H     0.04757  0.10417   0.952  0.000  0.000
    36H     0.06392  0.12369   0.936  0.000  0.000
    37H     0.04693  0.10560   0.953  0.000  0.000
    38H     0.04470  0.10600   0.955  0.000  0.000
    39H     0.25528  0.47070   0.745  0.000  0.000
    40H     0.07963  0.13410   0.920  0.000  0.000
    41H     0.07923  0.13384   0.921  0.000  0.000
    42H     0.06933  0.12517   0.931  0.000  0.000

Wiberg/Mayer (AO) data.
largest (>0.10) Wiberg bond orders for each atom

 ---------------------------------------------------------------------------
     #   Z sym  total        # sym  WBO       # sym  WBO       # sym  WBO
 ---------------------------------------------------------------------------
     1   6 C    3.859 --    27 H    0.985    28 H    0.979    26 H    0.979
                             2 O    0.884
     2   8 O    2.226 --     3 C    1.148     1 C    0.884     4 O    0.147
     3   6 C    3.854 --     4 O    1.685     2 O    1.148     5 C    0.944
     4   8 O    1.949 --     3 C    1.685     2 O    0.147
     5   6 C    3.952 --    25 N    1.785     6 C    0.996     3 C    0.944
     6   6 C    3.857 --     7 O    1.802     5 C    0.996     8 C    0.908
     7   8 O    2.009 --     6 C    1.802
     8   6 C    3.903 --     9 O    1.634    10 N    1.247     6 C    0.908
     9   8 O    1.927 --     8 C    1.634    10 N    0.185
    10   7 N    3.365 --     8 C    1.247    11 C    0.940    29 H    0.883
                             9 O    0.185
    11   6 C    3.913 --    25 N    1.005    12 C    0.947    10 N    0.940
                            13 C    0.924
    12   6 C    3.982 --    32 H    0.982    31 H    0.981    30 H    0.980
                            11 C    0.947
    13   6 C    3.928 --    14 C    0.999    15 C    0.991    16 N    0.934
                            11 C    0.924
    14   6 C    3.988 --    13 C    0.999    34 H    0.982    35 H    0.981
                            33 H    0.974
    15   6 C    3.989 --    13 C    0.991    37 H    0.984    38 H    0.984
                            36 H    0.980
    16   7 N    3.350 --    17 C    1.256    13 C    0.934    39 H    0.886
                            18 O    0.176
    17   6 C    3.917 --    18 O    1.586    16 N    1.256    19 C    0.991
    18   8 O    1.903 --    17 C    1.586    16 N    0.176
    19   6 C    3.872 --    20 N    1.623    24 O    1.047    17 C    0.991
    20   7 N    2.999 --    19 C    1.623    21 N    1.198
    21   7 N    2.981 --    22 C    1.611    20 N    1.198
    22   6 C    3.869 --    21 N    1.611    24 O    1.073    23 C    1.032
    23   6 C    3.986 --    22 C    1.032    42 H    0.982    41 H    0.964
                            40 H    0.962
    24   8 O    2.317 --    22 C    1.073    19 C    1.047
    25   7 N    3.062 --     5 C    1.785    11 C    1.005
    26   1 H    1.004 --     1 C    0.979
    27   1 H    1.008 --     1 C    0.985
    28   1 H    1.004 --     1 C    0.979
    29   1 H    0.929 --    10 N    0.883
    30   1 H    0.999 --    12 C    0.980
    31   1 H    0.998 --    12 C    0.981
    32   1 H    0.999 --    12 C    0.982
    33   1 H    1.008 --    14 C    0.974
    34   1 H    1.001 --    14 C    0.982
    35   1 H    0.998 --    14 C    0.981
    36   1 H    1.006 --    15 C    0.980
    37   1 H    1.003 --    15 C    0.984
    38   1 H    1.004 --    15 C    0.984
    39   1 H    0.956 --    16 N    0.886
    40   1 H    0.997 --    23 C    0.962
    41   1 H    0.997 --    23 C    0.964
    42   1 H    0.998 --    23 C    0.982
 ---------------------------------------------------------------------------

Topologies differ in total number of bonds
Writing topology from bond orders to xtbtopo.mol

 dipole moment from electron density (au)
     X       Y       Z   
  -0.1767   1.4080   1.9205  total (Debye):    6.069

           -------------------------------------------------
          |                Geometry Summary                 |
           -------------------------------------------------

      molecular mass/u    :      351.3152409
   center of mass at/Å    :       -0.0784270       0.0248971      -0.0045238
  moments of inertia/u·Å² :        0.1609088E+04   0.3407930E+04   0.4503632E+04
rotational constants/cm⁻¹ :        0.1047651E-01   0.4946590E-02   0.3743119E-02

 * 37 selected distances

     #   Z          #   Z                                           value/Å
     1   6 C        2   8 O                                       1.4339545
     2   8 O        3   6 C                                       1.3196457
     3   6 C        4   8 O                                       1.2045088
     6   6 C        7   8 O                                       1.2041325
     8   6 C        9   8 O                                       1.2141669
     8   6 C       10   7 N                                       1.3493450
    10   7 N       11   6 C                                       1.4493543
    11   6 C       12   6 C                                       1.5369042 (max)
    13   6 C       14   6 C                                       1.5293554
    13   6 C       15   6 C                                       1.5334441
    13   6 C       16   7 N                                       1.4623632
    16   7 N       17   6 C                                       1.3485321
    17   6 C       18   8 O                                       1.2198062
    19   6 C       20   7 N                                       1.2964961
    21   7 N       22   6 C                                       1.2967194
    22   6 C       23   6 C                                       1.4789861
    19   6 C       24   8 O                                       1.3514291
    22   6 C       24   8 O                                       1.3433009
     5   6 C       25   7 N                                       1.2748204
    11   6 C       25   7 N                                       1.4271803
     1   6 C       26   1 H                                       1.0917590
     1   6 C       27   1 H                                       1.0877027
     1   6 C       28   1 H                                       1.0916980
    10   7 N       29   1 H                                       1.0088293 (min)
    12   6 C       30   1 H                                       1.0867880
    12   6 C       31   1 H                                       1.0873712
    12   6 C       32   1 H                                       1.0883700
    14   6 C       33   1 H                                       1.0890716
    14   6 C       34   1 H                                       1.0881242
    14   6 C       35   1 H                                       1.0877016
    15   6 C       36   1 H                                       1.0888578
    15   6 C       37   1 H                                       1.0882707
    15   6 C       38   1 H                                       1.0890387
    16   7 N       39   1 H                                       1.0103310
    23   6 C       40   1 H                                       1.0897308
    23   6 C       41   1 H                                       1.0893865
    23   6 C       42   1 H                                       1.0872256

 * 5 distinct bonds (by element types)

   Z      Z             #   av. dist./Å        max./Å        min./Å
   1 H    6 C          15     1.0887398     1.0917590     1.0867880
   6 C    6 C           4     1.5196724     1.5369042     1.4789861
   1 H    7 N           2     1.0095801     1.0103310     1.0088293
   6 C    7 N           8     1.3631014     1.4623632     1.2748204
   6 C    8 O           8     1.2863681     1.4339545     1.2041325


optimized geometry written to: xtbopt.xyz


           -------------------------------------------------
          | TOTAL ENERGY              -82.985595954952 Eh   |
          | GRADIENT NORM               0.000754644924 Eh/α |
          | HOMO-LUMO GAP               1.746668436120 eV   |
           -------------------------------------------------

------------------------------------------------------------------------
 * finished run on 2023/06/21 at 17:41:57.887     
------------------------------------------------------------------------
 total:
 * wall-time:     0 d,  0 h,  0 min,  5.051 sec
 *  cpu-time:     0 d,  0 h,  0 min,  4.982 sec
 * ratio c/w:     0.986 speedup
 SCF:
 * wall-time:     0 d,  0 h,  0 min,  0.182 sec
 *  cpu-time:     0 d,  0 h,  0 min,  0.171 sec
 * ratio c/w:     0.937 speedup
 ANC optimizer:
 * wall-time:     0 d,  0 h,  0 min,  4.785 sec
 *  cpu-time:     0 d,  0 h,  0 min,  4.775 sec
 * ratio c/w:     0.998 speedup

