      -----------------------------------------------------------      
     |                   =====================                   |     
     |                           x T B                           |     
     |                   =====================                   |     
     |                         S. Grimme                         |     
     |          Mulliken Center for Theoretical Chemistry        |     
     |                    University of Bonn                     |     
      -----------------------------------------------------------      

   * xtb version 6.5.1 (579679a) compiled by 'ehlert@majestix' on 2022-07-11

   xtb is free software: you can redistribute it and/or modify it under
   the terms of the GNU Lesser General Public License as published by
   the Free Software Foundation, either version 3 of the License, or
   (at your option) any later version.
   
   xtb is distributed in the hope that it will be useful,
   but WITHOUT ANY WARRANTY; without even the implied warranty of
   MERCHANTABILITY or FITNESS FOR A PARTICULAR PURPOSE.  See the
   GNU Lesser General Public License for more details.
   
   Cite this work as:
   * C. Bannwarth, E. Caldeweyher, S. Ehlert, A. Hansen, P. Pracht,
     J. Seibert, S. Spicher, S. Grimme, WIREs Comput. Mol. Sci., 2020, 11,
     e01493. DOI: 10.1002/wcms.1493
   
   for GFN2-xTB:
   * C. Bannwarth, S. Ehlert and S. Grimme., J. Chem. Theory Comput., 2019,
     15, 1652-1671. DOI: 10.1021/acs.jctc.8b01176
   for GFN1-xTB:
   * S. Grimme, C. Bannwarth, P. Shushkov, J. Chem. Theory Comput., 2017,
     13, 1989-2009. DOI: 10.1021/acs.jctc.7b00118
   for GFN0-xTB:
   * P. Pracht, E. Caldeweyher, S. Ehlert, S. Grimme, ChemRxiv, 2019, preprint.
     DOI: 10.26434/chemrxiv.8326202.v1
   for GFN-FF:
   * S. Spicher and S. Grimme, Angew. Chem. Int. Ed., 2020, 59, 15665-15673.
     DOI: 10.1002/anie.202004239
   
   for ALPB and GBSA implicit solvation:
   * S. Ehlert, M. Stahn, S. Spicher, S. Grimme, J. Chem. Theory Comput.,
     2021, 17, 4250-4261. DOI: 10.1021/acs.jctc.1c00471
   
   for DFT-D4:
   * E. Caldeweyher, C. Bannwarth and S. Grimme, J. Chem. Phys., 2017,
     147, 034112. DOI: 10.1063/1.4993215
   * E. Caldeweyher, S. Ehlert, A. Hansen, H. Neugebauer, S. Spicher,
     C. Bannwarth and S. Grimme, J. Chem. Phys., 2019, 150, 154122.
     DOI: 10.1063/1.5090222
   * E. Caldeweyher, J.-M. Mewes, S. Ehlert and S. Grimme, Phys. Chem. Chem. Phys.
     2020, 22, 8499-8512. DOI: 10.1039/D0CP00502A
   
   for sTDA-xTB:
   * S. Grimme and C. Bannwarth, J. Chem. Phys., 2016, 145, 054103.
     DOI: 10.1063/1.4959605
   
   in the mass-spec context:
   * V. Asgeirsson, C. Bauer and S. Grimme, Chem. Sci., 2017, 8, 4879.
     DOI: 10.1039/c7sc00601b
   * J. Koopman and S. Grimme, ACS Omega 2019, 4, 12, 15120-15133.
     DOI: 10.1021/acsomega.9b02011
   
   for metadynamics refer to:
   * S. Grimme, J. Chem. Theory Comput., 2019, 155, 2847-2862
     DOI: 10.1021/acs.jctc.9b00143
   
   for SPH calculations refer to:
   * S. Spicher and S. Grimme, J. Chem. Theory Comput., 2021, 17, 1701-1714
     DOI: 10.1021/acs.jctc.0c01306
   
   with help from (in alphabetical order)
   P. Atkinson, C. Bannwarth, F. Bohle, G. Brandenburg, E. Caldeweyher
   M. Checinski, S. Dohm, S. Ehlert, S. Ehrlich, I. Gerasimov, C. Hölzer
   A. Katbashev, J. Koopman, C. Lavigne, S. Lehtola, F. März, M. Müller,
   F. Musil, H. Neugebauer, J. Pisarek, C. Plett, P. Pracht, F. Pultar,
   J. Seibert, P. Shushkov, S. Spicher, M. Stahn, M. Steiner, T. Strunk,
   J. Stückrath, T. Rose, and J. Unsleber
   
 * started run on 2023/06/20 at 15:34:59.861     

           -------------------------------------------------
          |                Calculation Setup                |
           -------------------------------------------------

          program call               : /lustre/hpc/kemi/ree/PhD/git/ReactivityQM/dep/xtb-6.5.1/bin/xtb --gfn 1 /lustre/hpc/kemi/ree/PhD/git/ReactivityQM/calculations/RaltegravirCLI/reac02prodN13/conf11/RaltegravirCLI_reac02prodN13_conf11_gfn1.xyz --opt --vfukui --chrg 1 --uhf 0 --alpb DMSO
          hostname                   : node308
          coordinate file            : /lustre/hpc/kemi/ree/PhD/git/ReactivityQM/calculations/RaltegravirCLI/reac02prodN13/conf11/RaltegravirCLI_reac02prodN13_conf11_gfn1.xyz
          omp threads                :                     1

   ID    Z sym.   atoms
    1    6 C      1, 3-6, 9, 10, 13-17, 19-21, 23, 24
    2    7 N      2, 7, 8, 12
    3    8 O      11, 22, 25
    4    9 F      18
    5    1 H      26-47

           -------------------------------------------------
          |                 G F N 1 - x T B                 |
           -------------------------------------------------

        Reference                      10.1021/acs.jctc.7b00118
      * Hamiltonian:
        H0-scaling (s, p, d)           1.850000    2.250000    2.000000
        zeta-weighting                 0.000000
      * Dispersion:
        s8                             2.400000
        a1                             0.630000
        a2                             5.000000
        s9                             0.000000
      * Repulsion:
        kExp                           1.500000
        rExp                           1.000000
      * Coulomb:
        alpha                          2.000000
        third order                    atomic
        anisotropic                    false
      * Halogen bond correction:
        rad-scale                      1.300000
        damping                        0.440000

      * Solvation model:               ALPB
        Solvent                        DMSO
        Parameter file                 internal GFN1-xTB/ALPB
        Dielectric constant                4.6680E+01
        Reference state                gsolv [1 M gas/solution]
        Free energy shift                  7.6243E-03 Eh       4.7843E+00 kcal/mol
        Temperature                        2.9815E+02 K
        Density                            1.1000E+00 kg/L
        Solvent mass                       7.8130E+01 g/mol
        Interaction kernel             P16
        Born radius scaling (c1)           1.7672E+00
        Born radii integrator          GBOBC
        Born offset                        0.0000E+00 a0       0.0000E+00 AA
        H-bond correction              true
        Ion screening                  false
        Surface tension                    1.0000E-05 Eh       1.5569E+01 dyn/cm
        Grid points                               230 per atom

          ...................................................
          :                      SETUP                      :
          :.................................................:
          :  # basis functions                 144          :
          :  # atomic orbitals                 144          :
          :  # shells                           94          :
          :  # electrons                       134          :
          :  # halogen bonds                     0          :
          :  max. iterations                   250          :
          :  Hamiltonian                  GFN1-xTB          :
          :  restarted?                      false          :
          :  GBSA solvation                   true          :
          :  PC potential                    false          :
          :  electronic temp.          300.0000000     K    :
          :  accuracy                    1.0000000          :
          :  -> integral cutoff          0.2500000E+02      :
          :  -> integral neglect         0.1000000E-07      :
          :  -> SCF convergence          0.1000000E-05 Eh   :
          :  -> wf. convergence          0.2000000E-04 e    :
          :  Broyden damping             0.4000000          :
          ...................................................

 iter      E             dE          RMSdq      gap      omega  full diag
   1    -79.9572427 -0.799572E+02  0.854E+00    0.59       0.0  T
   2    -79.7716371  0.185606E+00  0.565E+00    0.34       1.0  T
   3    -79.8131929 -0.415557E-01  0.368E+00    0.41       1.0  T
   4    -80.0206252 -0.207432E+00  0.241E+00    0.84       1.0  T
   5    -80.1506689 -0.130044E+00  0.156E+00    0.27       1.0  T
   6    -80.2443546 -0.936856E-01  0.779E-01    0.09       1.0  T
   7    -80.2303965  0.139581E-01  0.800E-01    0.33       1.0  T
   8    -80.2679995 -0.376030E-01  0.300E-01    0.27       1.0  T
   9    -80.2654149  0.258457E-02  0.340E-01    0.15       1.0  T
  10    -80.2656575 -0.242570E-03  0.383E-01    0.13       1.0  T
  11    -80.2179872  0.476703E-01  0.801E-01    0.10       1.0  T
  12    -80.2709760 -0.529888E-01  0.230E-01    0.17       1.0  T
  13    -80.2717036 -0.727615E-03  0.207E-01    0.15       1.0  T
  14    -80.2734009 -0.169730E-02  0.141E-01    0.16       1.0  T
  15    -80.2744041 -0.100323E-02  0.859E-02    0.16       1.0  T
  16    -80.2749699 -0.565798E-03  0.209E-02    0.16       1.0  T
  17    -80.2750025 -0.325589E-04  0.671E-03    0.16       2.2  T
  18    -80.2750064 -0.392363E-05  0.170E-03    0.15       8.6  T
  19    -80.2750061  0.279267E-06  0.245E-03    0.15       5.9  T
  20    -80.2750065 -0.394649E-06  0.111E-03    0.15      13.2  T
  21    -80.2750066 -0.955200E-07  0.340E-04    0.15      42.9  T
  22    -80.2750066 -0.965142E-08  0.434E-05    0.15     336.3  T
  23    -80.2750066 -0.132317E-09  0.133E-05    0.15    1095.9  T

   *** convergence criteria satisfied after 23 iterations ***

         #    Occupation            Energy/Eh            Energy/eV
      -------------------------------------------------------------
         1        2.0000           -0.8739422             -23.7812
       ...           ...                  ...                  ...
        61        2.0000           -0.4796994             -13.0533
        62        2.0000           -0.4719708             -12.8430
        63        2.0000           -0.4644405             -12.6381
        64        2.0000           -0.4634739             -12.6118
        65        1.9991           -0.4554801             -12.3942
        66        1.9736           -0.4522349             -12.3059
        67        1.9171           -0.4511185             -12.2756 (HOMO)
        68        0.1102           -0.4454345             -12.1209 (LUMO)
        69                         -0.3505317              -9.5385
        70                         -0.3076295              -8.3710
        71                         -0.2821551              -7.6778
        72                         -0.2805750              -7.6348
       ...                                ...                  ...
       144                          0.6618584              18.0101
      -------------------------------------------------------------
                  HL-Gap            0.0056839 Eh            0.1547 eV
             Fermi-level           -0.4481348 Eh          -12.1944 eV

 SCC (total)                   0 d,  0 h,  0 min,  0.411 sec
 SCC setup                      ...        0 min,  0.002 sec (  0.589%)
 Dispersion                     ...        0 min,  0.000 sec (  0.120%)
 classical contributions        ...        0 min,  0.000 sec (  0.037%)
 integral evaluation            ...        0 min,  0.088 sec ( 21.343%)
 iterations                     ...        0 min,  0.183 sec ( 44.450%)
 molecular gradient             ...        0 min,  0.137 sec ( 33.197%)
 printout                       ...        0 min,  0.001 sec (  0.254%)

         :::::::::::::::::::::::::::::::::::::::::::::::::::::
         ::                     SUMMARY                     ::
         :::::::::::::::::::::::::::::::::::::::::::::::::::::
         :: total energy             -79.399376337081 Eh    ::
         :: total w/o Gsasa/hb       -79.370034524530 Eh    ::
         :: gradient norm              0.140464360338 Eh/a0 ::
         :: HOMO-LUMO gap              0.154668081166 eV    ::
         ::.................................................::
         :: SCC energy               -80.275006608821 Eh    ::
         :: -> electrostatic           0.321021345146 Eh    ::
         :: -> Gsolv                  -0.107436727307 Eh    ::
         ::    -> Gelec               -0.078094914756 Eh    ::
         ::    -> Gsasa               -0.024767234364 Eh    ::
         ::    -> Ghb                 -0.012198857192 Eh    ::
         ::    -> Gshift               0.007624279005 Eh    ::
         :: repulsion energy           0.906502204110 Eh    ::
         :: dispersion energy         -0.030871932370 Eh    ::
         :: halogen bond corr.         0.000000000000 Eh    ::
         :: add. restraining           0.000000000000 Eh    ::
         :: total charge               1.000000000000 e     ::
         :::::::::::::::::::::::::::::::::::::::::::::::::::::

      ----------------------------------------------------------- 
     |                   =====================                   |
     |                        A N C O P T                        |
     |                   =====================                   |
     |               Approximate Normal Coordinate               |
     |                Rational Function Optimizer                |
      ----------------------------------------------------------- 

          ...................................................
          :                      SETUP                      :
          :.................................................:
          :   optimization level            normal          :
          :   max. optcycles                   200          :
          :   ANC micro-cycles                  20          :
          :   degrees of freedom               135          :
          :.................................................:
          :   RF solver                   davidson          :
          :   write xtbopt.log                true          :
          :   linear?                        false          :
          :   energy convergence         0.5000000E-05 Eh   :
          :   grad. convergence          0.1000000E-02 Eh/α :
          :   maximium RF displ.         1.0000000          :
          :   Hlow (freq-cutoff)         0.1000000E-01      :
          :   Hmax (freq-cutoff)         5.0000000          :
          :   S6 in model hess.         20.0000000          :
          ...................................................

generating ANC from model Hessian ...
Using Lindh-Hessian (1995)
 Shifting diagonal of input Hessian by   9.769659096109834E-003
 Lowest  eigenvalues of input Hessian
    0.000000    0.000000    0.000000    0.000000    0.000000    0.000000
    0.010000    0.010086    0.010719    0.010842    0.011107    0.011900
    0.012621    0.014091    0.015293    0.015997    0.016969    0.018010
 Highest eigenvalues
    1.936079    1.980138    2.040209    2.120700    2.150599    2.306874
 

........................................................................
.............................. CYCLE    1 ..............................
........................................................................
   1    -80.2750066 -0.802750E+02  0.142E-06    0.15       0.0  T
   2    -80.2750066  0.375167E-11  0.650E-06    0.15    2245.0  T
   3    -80.2750066 -0.352429E-11  0.136E-06    0.15   10695.9  T
     SCC iter.                  ...        0 min,  0.012 sec
     gradient                   ...        0 min,  0.098 sec
 * total energy  :   -79.3993763 Eh     change       -0.1766409E-10 Eh
   gradient norm :     0.1404642 Eh/α   predicted     0.0000000E+00 (-100.00%)
   displ. norm   :     0.3731984 α      lambda       -0.2727935E-01
   maximum displ.:     0.1254635 α      in ANC's #30, #37, #73, ...

........................................................................
.............................. CYCLE    2 ..............................
........................................................................
   1    -80.2852092 -0.802852E+02  0.190E-01    0.33       0.0  T
   2    -80.0386669  0.246542E+00  0.167E+00    0.13       1.0  T
   3    -80.2861136 -0.247447E+00  0.167E-01    0.13       1.0  T
   4    -80.2879758 -0.186221E-02  0.102E-01    0.25       1.0  T
   5    -80.2885840 -0.608173E-03  0.705E-02    0.20       1.0  T
   6    -80.2888135 -0.229521E-03  0.441E-02    0.18       1.0  T
   7    -80.2889301 -0.116632E-03  0.229E-02    0.18       1.0  T
   8    -80.2889645 -0.343536E-04  0.125E-02    0.19       1.2  T
   9    -80.2889766 -0.121016E-04  0.491E-03    0.19       3.0  T
  10    -80.2889778 -0.121658E-05  0.277E-03    0.19       5.3  T
  11    -80.2889783 -0.531573E-06  0.882E-04    0.19      16.5  T
  12    -80.2889784 -0.408526E-07  0.486E-04    0.19      30.0  T
  13    -80.2889784 -0.131513E-07  0.271E-04    0.19      53.8  T
  14    -80.2889784 -0.468090E-08  0.118E-04    0.19     123.2  T
  15    -80.2889784 -0.979725E-09  0.379E-05    0.19     384.5  T
     SCC iter.                  ...        0 min,  0.056 sec
     gradient                   ...        0 min,  0.098 sec
 * total energy  :   -79.4198919 Eh     change       -0.2051554E-01 Eh
   gradient norm :     0.0852621 Eh/α   predicted    -0.1556238E-01 ( -24.14%)
   displ. norm   :     0.4306159 α      lambda       -0.1678634E-01
   maximum displ.:     0.1596862 α      in ANC's #13, #30, #36, ...

........................................................................
.............................. CYCLE    3 ..............................
........................................................................
   1    -80.3040086 -0.803040E+02  0.179E-01    0.47       0.0  T
   2    -80.2584579  0.455507E-01  0.733E-01    0.18       1.0  T
   3    -80.3061442 -0.476863E-01  0.992E-02    0.31       1.0  T
   4    -80.3064882 -0.344016E-03  0.688E-02    0.29       1.0  T
   5    -80.3066887 -0.200518E-03  0.407E-02    0.28       1.0  T
   6    -80.3068078 -0.119064E-03  0.128E-02    0.28       1.1  T
   7    -80.3068177 -0.992693E-05  0.183E-03    0.28       8.0  T
   8    -80.3068178 -0.671691E-07  0.948E-04    0.28      15.4  T
   9    -80.3068178 -0.192328E-07  0.300E-04    0.28      48.6  T
  10    -80.3068178  0.896691E-09  0.253E-04    0.28      57.6  T
  11    -80.3068178 -0.136455E-08  0.205E-04    0.28      71.3  T
  12    -80.3068178 -0.181574E-08  0.123E-04    0.28     119.0  T
  13    -80.3068178 -0.897558E-09  0.519E-05    0.28     280.9  T
     SCC iter.                  ...        0 min,  0.049 sec
     gradient                   ...        0 min,  0.098 sec
 * total energy  :   -79.4303249 Eh     change       -0.1043299E-01 Eh
   gradient norm :     0.0303082 Eh/α   predicted    -0.9949520E-02 (  -4.63%)
   displ. norm   :     0.3950931 α      lambda       -0.4062518E-02
   maximum displ.:     0.2139948 α      in ANC's #13, #7, #18, ...

........................................................................
.............................. CYCLE    4 ..............................
........................................................................
   1    -80.3124705 -0.803125E+02  0.737E-02    0.41       0.0  T
   2    -80.3114046  0.106590E-02  0.131E-01    0.29       1.0  T
   3    -80.3128578 -0.145323E-02  0.258E-02    0.36       1.0  T
   4    -80.3128912 -0.333725E-04  0.104E-02    0.36       1.4  T
   5    -80.3128949 -0.375101E-05  0.663E-03    0.35       2.2  T
   6    -80.3128963 -0.140820E-05  0.270E-03    0.35       5.4  T
   7    -80.3128968 -0.467680E-06  0.897E-04    0.35      16.3  T
   8    -80.3128968 -0.585646E-07  0.422E-04    0.35      34.5  T
   9    -80.3128969 -0.111208E-07  0.112E-04    0.35     130.2  T
  10    -80.3128969 -0.754596E-09  0.136E-05    0.35    1075.7  T
     SCC iter.                  ...        0 min,  0.038 sec
     gradient                   ...        0 min,  0.098 sec
 * total energy  :   -79.4334071 Eh     change       -0.3082283E-02 Eh
   gradient norm :     0.0178743 Eh/α   predicted    -0.2348772E-02 ( -23.80%)
   displ. norm   :     0.4835057 α      lambda       -0.2952188E-02
   maximum displ.:     0.2453924 α      in ANC's #13, #7, #18, ...

........................................................................
.............................. CYCLE    5 ..............................
........................................................................
   1    -80.3156983 -0.803157E+02  0.722E-02    0.46       0.0  T
   2    -80.3155570  0.141322E-03  0.821E-02    0.35       1.0  T
   3    -80.3160779 -0.520928E-03  0.182E-02    0.41       1.0  T
   4    -80.3160963 -0.183271E-04  0.671E-03    0.40       2.2  T
   5    -80.3160966 -0.378331E-06  0.447E-03    0.40       3.3  T
   6    -80.3160972 -0.563014E-06  0.192E-03    0.40       7.6  T
   7    -80.3160975 -0.264286E-06  0.376E-04    0.40      38.8  T
   8    -80.3160975 -0.229683E-08  0.348E-04    0.40      41.9  T
   9    -80.3160975 -0.717237E-08  0.748E-05    0.40     194.9  T
  10    -80.3160975 -0.265956E-09  0.181E-05    0.40     807.2  T
     SCC iter.                  ...        0 min,  0.040 sec
     gradient                   ...        0 min,  0.098 sec
 * total energy  :   -79.4354826 Eh     change       -0.2075491E-02 Eh
   gradient norm :     0.0121177 Eh/α   predicted    -0.1821190E-02 ( -12.25%)
   displ. norm   :     0.3739097 α      lambda       -0.1226385E-02
   maximum displ.:     0.1746471 α      in ANC's #13, #7, #18, ...

........................................................................
.............................. CYCLE    6 ..............................
........................................................................
   1    -80.3178770 -0.803179E+02  0.571E-02    0.48       0.0  T
   2    -80.3178930 -0.160660E-04  0.576E-02    0.37       1.0  T
   3    -80.3181446 -0.251535E-03  0.775E-03    0.42       1.9  T
   4    -80.3181463 -0.174159E-05  0.575E-03    0.42       2.5  T
   5    -80.3181471 -0.814529E-06  0.308E-03    0.42       4.7  T
   6    -80.3181475 -0.376274E-06  0.111E-03    0.42      13.1  T
   7    -80.3181476 -0.882939E-07  0.195E-04    0.42      74.8  T
   8    -80.3181476  0.241457E-09  0.138E-04    0.42     105.8  T
     SCC iter.                  ...        0 min,  0.033 sec
     gradient                   ...        0 min,  0.098 sec
 * total energy  :   -79.4363424 Eh     change       -0.8597223E-03 Eh
   gradient norm :     0.0111770 Eh/α   predicted    -0.6989447E-03 ( -18.70%)
   displ. norm   :     0.2875735 α      lambda       -0.6619045E-03
   maximum displ.:     0.1314139 α      in ANC's #7, #13, #18, ...

........................................................................
.............................. CYCLE    7 ..............................
........................................................................
   1    -80.3202182 -0.803202E+02  0.487E-02    0.49       0.0  T
   2    -80.3202895 -0.712689E-04  0.416E-02    0.40       1.0  T
   3    -80.3204158 -0.126251E-03  0.534E-03    0.43       2.7  T
   4    -80.3204155  0.290637E-06  0.464E-03    0.43       3.1  T
   5    -80.3204161 -0.596059E-06  0.193E-03    0.43       7.5  T
   6    -80.3204163 -0.187598E-06  0.645E-04    0.43      22.6  T
   7    -80.3204163 -0.259715E-07  0.165E-04    0.43      88.6  T
   8    -80.3204163 -0.304624E-09  0.667E-05    0.43     218.8  T
     SCC iter.                  ...        0 min,  0.031 sec
     gradient                   ...        0 min,  0.098 sec
 * total energy  :   -79.4368271 Eh     change       -0.4847694E-03 Eh
   gradient norm :     0.0083454 Eh/α   predicted    -0.3583226E-03 ( -26.08%)
   displ. norm   :     0.2600943 α      lambda       -0.4941450E-03
   maximum displ.:     0.0972436 α      in ANC's #7, #5, #13, ...

........................................................................
.............................. CYCLE    8 ..............................
........................................................................
   1    -80.3227371 -0.803227E+02  0.451E-02    0.50       0.0  T
   2    -80.3228302 -0.930425E-04  0.323E-02    0.42       1.0  T
   3    -80.3229025 -0.723491E-04  0.592E-03    0.45       2.5  T
   4    -80.3229024  0.161378E-06  0.349E-03    0.44       4.2  T
   5    -80.3229027 -0.355609E-06  0.101E-03    0.44      14.5  T
   6    -80.3229028 -0.578872E-07  0.263E-04    0.44      55.5  T
   7    -80.3229028 -0.119600E-08  0.164E-04    0.44      89.0  T
   8    -80.3229028 -0.291990E-09  0.396E-05    0.44     368.1  T
     SCC iter.                  ...        0 min,  0.031 sec
     gradient                   ...        0 min,  0.078 sec
 * total energy  :   -79.4371773 Eh     change       -0.3501873E-03 Eh
   gradient norm :     0.0058922 Eh/α   predicted    -0.2637874E-03 ( -24.67%)
   displ. norm   :     0.2095121 α      lambda       -0.2818750E-03
   maximum displ.:     0.0809043 α      in ANC's #5, #3, #14, ...

........................................................................
.............................. CYCLE    9 ..............................
........................................................................
   1    -80.3240319 -0.803240E+02  0.372E-02    0.50       0.0  T
   2    -80.3240980 -0.661570E-04  0.237E-02    0.44       1.0  T
   3    -80.3241369 -0.388089E-04  0.469E-03    0.46       3.1  T
   4    -80.3241370 -0.137757E-06  0.281E-03    0.46       5.2  T
   5    -80.3241372 -0.225230E-06  0.814E-04    0.46      17.9  T
   6    -80.3241372 -0.228064E-07  0.203E-04    0.46      71.7  T
   7    -80.3241372 -0.759144E-09  0.111E-04    0.46     131.6  T
   8    -80.3241372 -0.968470E-10  0.254E-05    0.46     573.5  T
     SCC iter.                  ...        0 min,  0.022 sec
     gradient                   ...        0 min,  0.052 sec
 * total energy  :   -79.4373705 Eh     change       -0.1932322E-03 Eh
   gradient norm :     0.0058720 Eh/α   predicted    -0.1471253E-03 ( -23.86%)
   displ. norm   :     0.1468096 α      lambda       -0.1514056E-03
   maximum displ.:     0.0581177 α      in ANC's #5, #3, #15, ...

........................................................................
.............................. CYCLE   10 ..............................
........................................................................
   1    -80.3250965 -0.803251E+02  0.236E-02    0.50       0.0  T
   2    -80.3251221 -0.256406E-04  0.141E-02    0.46       1.0  T
   3    -80.3251353 -0.131987E-04  0.343E-03    0.47       4.3  T
   4    -80.3251354 -0.107235E-06  0.198E-03    0.47       7.4  T
   5    -80.3251355 -0.103195E-06  0.451E-04    0.47      32.3  T
   6    -80.3251355 -0.415915E-08  0.153E-04    0.47      95.6  T
   7    -80.3251355 -0.792653E-09  0.642E-05    0.47     227.2  T
     SCC iter.                  ...        0 min,  0.019 sec
     gradient                   ...        0 min,  0.052 sec
 * total energy  :   -79.4374748 Eh     change       -0.1042203E-03 Eh
   gradient norm :     0.0051571 Eh/α   predicted    -0.7733504E-04 ( -25.80%)
   displ. norm   :     0.1325505 α      lambda       -0.1049476E-03
   maximum displ.:     0.0499371 α      in ANC's #15, #3, #5, ...

........................................................................
.............................. CYCLE   11 ..............................
........................................................................
   1    -80.3247747 -0.803248E+02  0.232E-02    0.50       0.0  T
   2    -80.3247992 -0.245357E-04  0.140E-02    0.48       1.0  T
   3    -80.3248117 -0.124640E-04  0.251E-03    0.48       5.8  T
   4    -80.3248118 -0.124777E-06  0.169E-03    0.48       8.6  T
   5    -80.3248119 -0.641267E-07  0.386E-04    0.48      37.8  T
   6    -80.3248119 -0.418922E-09  0.976E-05    0.48     149.4  T
   7    -80.3248119 -0.181998E-09  0.392E-05    0.48     372.5  T
     SCC iter.                  ...        0 min,  0.019 sec
     gradient                   ...        0 min,  0.052 sec
 * total energy  :   -79.4375443 Eh     change       -0.6953447E-04 Eh
   gradient norm :     0.0038583 Eh/α   predicted    -0.5339840E-04 ( -23.21%)
   displ. norm   :     0.1137435 α      lambda       -0.8046522E-04
   maximum displ.:     0.0441738 α      in ANC's #15, #1, #3, ...

........................................................................
.............................. CYCLE   12 ..............................
........................................................................
   1    -80.3253153 -0.803253E+02  0.123E-02    0.50       0.0  T
   2    -80.3253214 -0.610931E-05  0.663E-03    0.49       2.2  T
   3    -80.3253239 -0.248615E-05  0.198E-03    0.49       7.4  T
   4    -80.3253239 -0.483404E-07  0.113E-03    0.49      12.9  T
   5    -80.3253240 -0.276894E-07  0.217E-04    0.49      67.3  T
   6    -80.3253240 -0.636362E-09  0.677E-05    0.49     215.4  T
   7    -80.3253240 -0.159531E-09  0.269E-05    0.49     541.5  T
     SCC iter.                  ...        0 min,  0.019 sec
     gradient                   ...        0 min,  0.052 sec
 * total energy  :   -79.4375973 Eh     change       -0.5304172E-04 Eh
   gradient norm :     0.0034859 Eh/α   predicted    -0.4077138E-04 ( -23.13%)
   displ. norm   :     0.1243170 α      lambda       -0.6460455E-04
   maximum displ.:     0.0476656 α      in ANC's #15, #1, #3, ...

........................................................................
.............................. CYCLE   13 ..............................
........................................................................
   1    -80.3248164 -0.803248E+02  0.169E-02    0.52       0.0  T
   2    -80.3248294 -0.130442E-04  0.906E-03    0.50       1.6  T
   3    -80.3248344 -0.493779E-05  0.206E-03    0.50       7.1  T
   4    -80.3248345 -0.919286E-07  0.127E-03    0.50      11.5  T
   5    -80.3248345 -0.301277E-07  0.239E-04    0.50      60.9  T
   6    -80.3248345 -0.496556E-09  0.746E-05    0.50     195.6  T
   7    -80.3248345 -0.293596E-10  0.235E-05    0.50     620.5  T
     SCC iter.                  ...        0 min,  0.019 sec
     gradient                   ...        0 min,  0.052 sec
 * total energy  :   -79.4376468 Eh     change       -0.4947227E-04 Eh
   gradient norm :     0.0032374 Eh/α   predicted    -0.3281171E-04 ( -33.68%)
   displ. norm   :     0.2088163 α      lambda       -0.9739920E-04
   maximum displ.:     0.0804769 α      in ANC's #1, #15, #4, ...

........................................................................
.............................. CYCLE   14 ..............................
........................................................................
   1    -80.3249841 -0.803250E+02  0.272E-02    0.55       0.0  T
   2    -80.3250184 -0.343578E-04  0.135E-02    0.52       1.1  T
   3    -80.3250291 -0.106588E-04  0.369E-03    0.53       4.0  T
   4    -80.3250294 -0.269878E-06  0.205E-03    0.53       7.1  T
   5    -80.3250294 -0.623933E-07  0.389E-04    0.53      37.5  T
   6    -80.3250294 -0.268086E-08  0.139E-04    0.53     105.2  T
   7    -80.3250294 -0.996039E-10  0.423E-05    0.53     345.0  T
     SCC iter.                  ...        0 min,  0.019 sec
     gradient                   ...        0 min,  0.052 sec
 * total energy  :   -79.4377213 Eh     change       -0.7449407E-04 Eh
   gradient norm :     0.0040789 Eh/α   predicted    -0.5082641E-04 ( -31.77%)
   displ. norm   :     0.3645476 α      lambda       -0.1405004E-03
   maximum displ.:     0.1362993 α      in ANC's #1, #15, #6, ...

........................................................................
.............................. CYCLE   15 ..............................
........................................................................
   1    -80.3238912 -0.803239E+02  0.530E-02    0.63       0.0  T
   2    -80.3240220 -0.130759E-03  0.235E-02    0.59       1.0  T
   3    -80.3240536 -0.315687E-04  0.746E-03    0.59       2.0  T
   4    -80.3240545 -0.972811E-06  0.392E-03    0.59       3.7  T
   5    -80.3240547 -0.123629E-06  0.836E-04    0.59      17.5  T
   6    -80.3240547 -0.153278E-07  0.275E-04    0.59      52.9  T
   7    -80.3240547 -0.392362E-09  0.869E-05    0.59     167.9  T
   8    -80.3240547 -0.965770E-10  0.257E-05    0.59     567.8  T
     SCC iter.                  ...        0 min,  0.022 sec
     gradient                   ...        0 min,  0.052 sec
 * total energy  :   -79.4378509 Eh     change       -0.1295506E-03 Eh
   gradient norm :     0.0081471 Eh/α   predicted    -0.7958768E-04 ( -38.57%)
   displ. norm   :     0.8722106 α      lambda       -0.4201624E-03
   maximum displ.:     0.3232732 α      in ANC's #1, #15, #6, ...

........................................................................
.............................. CYCLE   16 ..............................
........................................................................
   1    -80.3163202 -0.803163E+02  0.129E-01    0.85       0.0  T
   2    -80.3170688 -0.748543E-03  0.438E-02    0.81       1.0  T
   3    -80.3171561 -0.873378E-04  0.188E-02    0.80       1.0  T
   4    -80.3171603 -0.422480E-05  0.926E-03    0.79       1.6  T
   5    -80.3171605 -0.187573E-06  0.233E-03    0.79       6.3  T
   6    -80.3171607 -0.149629E-06  0.520E-04    0.79      28.1  T
   7    -80.3171607 -0.141615E-08  0.173E-04    0.79      84.2  T
   8    -80.3171607 -0.318707E-09  0.374E-05    0.79     390.3  T
     SCC iter.                  ...        0 min,  0.022 sec
     gradient                   ...        0 min,  0.052 sec
 * total energy  :   -79.4383676 Eh     change       -0.5167748E-03 Eh
   gradient norm :     0.0306838 Eh/α   predicted    -0.3699029E-03 ( -28.42%)
   displ. norm   :     0.3140797 α      lambda       -0.9976578E-03
   maximum displ.:     0.1251394 α      in ANC's #4, #1, #8, ...

........................................................................
.............................. CYCLE   17 ..............................
........................................................................
   1    -80.3189816 -0.803190E+02  0.537E-02    0.87       0.0  T
   2    -80.3191081 -0.126491E-03  0.165E-02    0.87       1.0  T
   3    -80.3191180 -0.987558E-05  0.823E-03    0.87       1.8  T
   4    -80.3191187 -0.718147E-06  0.401E-03    0.87       3.6  T
   5    -80.3191187 -0.971973E-08  0.965E-04    0.87      15.1  T
   6    -80.3191187 -0.337631E-07  0.179E-04    0.87      81.3  T
   7    -80.3191187 -0.202988E-09  0.583E-05    0.87     250.4  T
     SCC iter.                  ...        0 min,  0.019 sec
     gradient                   ...        0 min,  0.052 sec
 * total energy  :   -79.4393333 Eh     change       -0.9656586E-03 Eh
   gradient norm :     0.0381953 Eh/α   predicted    -0.5480399E-03 ( -43.25%)
   displ. norm   :     0.6381469 α      lambda       -0.5181583E-02
   maximum displ.:     0.1950805 α      in ANC's #4, #8, #1, ...

........................................................................
.............................. CYCLE   18 ..............................
........................................................................
   1    -80.3442228 -0.803442E+02  0.187E-01    1.00       0.0  T
   2    -80.3456522 -0.142936E-02  0.527E-02    1.00       1.0  T
   3    -80.3457013 -0.491833E-04  0.299E-02    0.99       1.0  T
   4    -80.3457064 -0.509047E-05  0.130E-02    1.00       1.1  T
   5    -80.3457066 -0.190750E-06  0.260E-03    1.00       5.6  T
   6    -80.3457069 -0.295963E-06  0.513E-04    1.00      28.4  T
   7    -80.3457069 -0.272583E-08  0.217E-04    1.00      67.3  T
   8    -80.3457069 -0.312426E-09  0.452E-05    1.00     323.1  T
   9    -80.3457069 -0.257501E-10  0.976E-06    1.00    1494.8  T
     SCC iter.                  ...        0 min,  0.024 sec
     gradient                   ...        0 min,  0.052 sec
 * total energy  :   -79.4429141 Eh     change       -0.3580763E-02 Eh
   gradient norm :     0.0788705 Eh/α   predicted    -0.3645841E-02 (   1.82%)
   displ. norm   :     0.7235355 α      lambda       -0.4827309E-02
   maximum displ.:     0.2259561 α      in ANC's #1, #8, #6, ...

........................................................................
.............................. CYCLE   19 ..............................
........................................................................
   1    -80.3503808 -0.803504E+02  0.204E-01    0.98       0.0  T
   2    -80.3521780 -0.179719E-02  0.549E-02    0.99       1.0  T
   3    -80.3522202 -0.422721E-04  0.298E-02    0.98       1.0  T
   4    -80.3522233 -0.308410E-05  0.121E-02    0.99       1.2  T
   5    -80.3522238 -0.505917E-06  0.259E-03    0.99       5.6  T
   6    -80.3522241 -0.261872E-06  0.836E-04    0.99      17.4  T
   7    -80.3522241 -0.705937E-08  0.263E-04    0.99      55.5  T
   8    -80.3522241 -0.466954E-09  0.799E-05    0.99     182.6  T
   9    -80.3522241 -0.785576E-10  0.167E-05    0.99     875.3  T
     SCC iter.                  ...        0 min,  0.024 sec
     gradient                   ...        0 min,  0.052 sec
 * total energy  :   -79.4464459 Eh     change       -0.3531886E-02 Eh
   gradient norm :     0.1270794 Eh/α   predicted    -0.3677212E-02 (   4.11%)
   displ. norm   :     0.5841807 α      lambda       -0.1286239E-01
   maximum displ.:     0.2336134 α      in ANC's #41, #45, #4, ...

........................................................................
.............................. CYCLE   20 ..............................
........................................................................
   1    -80.3512547 -0.803513E+02  0.164E-01    0.85       0.0  T
   2    -80.3525358 -0.128105E-02  0.520E-02    0.84       1.0  T
   3    -80.3525750 -0.392471E-04  0.267E-02    0.85       1.0  T
   4    -80.3525780 -0.296341E-05  0.109E-02    0.85       1.3  T
   5    -80.3525787 -0.728142E-06  0.229E-03    0.85       6.4  T
   6    -80.3525788 -0.933707E-07  0.866E-04    0.85      16.9  T
   7    -80.3525788 -0.605110E-08  0.263E-04    0.85      55.4  T
   8    -80.3525788 -0.854044E-09  0.895E-05    0.85     163.0  T
   9    -80.3525788 -0.913900E-10  0.173E-05    0.85     845.6  T
     SCC iter.                  ...        0 min,  0.024 sec
     gradient                   ...        0 min,  0.052 sec
 * total energy  :   -79.4519080 Eh     change       -0.5462068E-02 Eh
   gradient norm :     0.1566444 Eh/α   predicted    -0.8625948E-02 (  57.92%)
   displ. norm   :     0.3427447 α      lambda       -0.2160508E-01
   maximum displ.:     0.1141481 α      in ANC's #17, #12, #16, ...
 * RMSD in coord.:     0.6994845 α      energy gain  -0.5253167E-01 Eh

generating ANC from model Hessian ...
Using Lindh-Hessian (1995)
 Shifting diagonal of input Hessian by   9.814328035378121E-003
 Lowest  eigenvalues of input Hessian
    0.000000    0.000000    0.000000    0.000000    0.000000    0.000000
    0.010000    0.010096    0.010611    0.010777    0.011211    0.012181
    0.012484    0.014004    0.014911    0.015119    0.017025    0.017834
 Highest eigenvalues
    1.999210    2.008296    2.099561    2.157064    2.242369    2.390669
 

........................................................................
.............................. CYCLE   21 ..............................
........................................................................
   1    -80.3459941 -0.803460E+02  0.848E-02    0.82       0.0  T
   2    -80.3462605 -0.266447E-03  0.406E-02    0.83       1.0  T
   3    -80.3462791 -0.185904E-04  0.208E-02    0.83       1.0  T
   4    -80.3462804 -0.129520E-05  0.678E-03    0.84       2.1  T
   5    -80.3462807 -0.304593E-06  0.131E-03    0.84      11.1  T
   6    -80.3462808 -0.535346E-07  0.522E-04    0.84      27.9  T
   7    -80.3462808 -0.437028E-08  0.176E-04    0.84      82.9  T
   8    -80.3462808 -0.521652E-09  0.449E-05    0.84     325.0  T
     SCC iter.                  ...        0 min,  0.022 sec
     gradient                   ...        0 min,  0.052 sec
 * total energy  :   -79.4677518 Eh     change       -0.1584377E-01 Eh
   gradient norm :     0.0963342 Eh/α   predicted     0.0000000E+00 (-100.00%)
   displ. norm   :     0.3272268 α      lambda       -0.1718065E-01
   maximum displ.:     0.1045841 α      in ANC's #28, #31, #18, ...

........................................................................
.............................. CYCLE   22 ..............................
........................................................................
   1    -80.3661973 -0.803662E+02  0.836E-02    0.80       0.0  T
   2    -80.3664596 -0.262320E-03  0.421E-02    0.80       1.0  T
   3    -80.3664819 -0.223531E-04  0.220E-02    0.79       1.0  T
   4    -80.3664825 -0.534828E-06  0.516E-03    0.79       2.8  T
   5    -80.3664828 -0.310704E-06  0.110E-03    0.79      13.3  T
   6    -80.3664828 -0.412899E-07  0.453E-04    0.79      32.2  T
   7    -80.3664828 -0.308158E-08  0.147E-04    0.79      99.2  T
   8    -80.3664828 -0.228752E-09  0.389E-05    0.79     374.8  T
     SCC iter.                  ...        0 min,  0.022 sec
     gradient                   ...        0 min,  0.052 sec
 * total energy  :   -79.4795968 Eh     change       -0.1184507E-01 Eh
   gradient norm :     0.0312598 Eh/α   predicted    -0.9513668E-02 ( -19.68%)
   displ. norm   :     0.3851295 α      lambda       -0.6198655E-02
   maximum displ.:     0.1674456 α      in ANC's #8, #28, #31, ...

........................................................................
.............................. CYCLE   23 ..............................
........................................................................
   1    -80.3750820 -0.803751E+02  0.536E-02    0.75       0.0  T
   2    -80.3752013 -0.119350E-03  0.245E-02    0.75       1.0  T
   3    -80.3752092 -0.793473E-05  0.125E-02    0.75       1.2  T
   4    -80.3752095 -0.303870E-06  0.414E-03    0.75       3.5  T
   5    -80.3752097 -0.176527E-06  0.705E-04    0.75      20.7  T
   6    -80.3752097 -0.111401E-07  0.312E-04    0.75      46.8  T
   7    -80.3752097 -0.122915E-08  0.116E-04    0.75     125.4  T
   8    -80.3752097 -0.183235E-09  0.317E-05    0.75     459.8  T
     SCC iter.                  ...        0 min,  0.022 sec
     gradient                   ...        0 min,  0.052 sec
 * total energy  :   -79.4836521 Eh     change       -0.4055214E-02 Eh
   gradient norm :     0.0179483 Eh/α   predicted    -0.3562454E-02 ( -12.15%)
   displ. norm   :     0.3514397 α      lambda       -0.2296233E-02
   maximum displ.:     0.1896564 α      in ANC's #8, #28, #31, ...

........................................................................
.............................. CYCLE   24 ..............................
........................................................................
   1    -80.3746018 -0.803746E+02  0.266E-02    0.72       0.0  T
   2    -80.3746379 -0.361097E-04  0.107E-02    0.73       1.4  T
   3    -80.3746401 -0.221766E-05  0.508E-03    0.73       2.9  T
   4    -80.3746402 -0.972090E-07  0.234E-03    0.73       6.2  T
   5    -80.3746403 -0.432901E-07  0.420E-04    0.73      34.8  T
   6    -80.3746403 -0.164366E-08  0.138E-04    0.73     106.0  T
   7    -80.3746403 -0.109779E-09  0.528E-05    0.73     276.5  T
     SCC iter.                  ...        0 min,  0.019 sec
     gradient                   ...        0 min,  0.052 sec
 * total energy  :   -79.4853372 Eh     change       -0.1685138E-02 Eh
   gradient norm :     0.0151402 Eh/α   predicted    -0.1289928E-02 ( -23.45%)
   displ. norm   :     0.3799562 α      lambda       -0.1511082E-02
   maximum displ.:     0.2270829 α      in ANC's #8, #28, #6, ...

........................................................................
.............................. CYCLE   25 ..............................
........................................................................
   1    -80.3737554 -0.803738E+02  0.209E-02    0.71       0.0  T
   2    -80.3737771 -0.217584E-04  0.803E-03    0.72       1.8  T
   3    -80.3737782 -0.106938E-05  0.382E-03    0.72       3.8  T
   4    -80.3737783 -0.785365E-07  0.184E-03    0.72       7.9  T
   5    -80.3737783 -0.268988E-07  0.375E-04    0.72      38.9  T
   6    -80.3737783 -0.129501E-08  0.109E-04    0.72     133.5  T
   7    -80.3737783 -0.896989E-10  0.462E-05    0.72     316.0  T
     SCC iter.                  ...        0 min,  0.019 sec
     gradient                   ...        0 min,  0.052 sec
 * total energy  :   -79.4863697 Eh     change       -0.1032460E-02 Eh
   gradient norm :     0.0110020 Eh/α   predicted    -0.8646198E-03 ( -16.26%)
   displ. norm   :     0.2723958 α      lambda       -0.6052933E-03
   maximum displ.:     0.1732314 α      in ANC's #8, #6, #14, ...

........................................................................
.............................. CYCLE   26 ..............................
........................................................................
   1    -80.3752135 -0.803752E+02  0.129E-02    0.73       0.0  T
   2    -80.3752230 -0.951562E-05  0.499E-03    0.73       2.9  T
   3    -80.3752234 -0.424295E-06  0.239E-03    0.73       6.1  T
   4    -80.3752235 -0.344603E-07  0.122E-03    0.73      11.9  T
   5    -80.3752235 -0.913745E-08  0.253E-04    0.73      57.7  T
   6    -80.3752235 -0.687578E-09  0.652E-05    0.73     223.7  T
   7    -80.3752235 -0.414957E-10  0.278E-05    0.73     525.2  T
     SCC iter.                  ...        0 min,  0.019 sec
     gradient                   ...        0 min,  0.052 sec
 * total energy  :   -79.4867883 Eh     change       -0.4186225E-03 Eh
   gradient norm :     0.0068830 Eh/α   predicted    -0.3251112E-03 ( -22.34%)
   displ. norm   :     0.2181833 α      lambda       -0.3060946E-03
   maximum displ.:     0.1353869 α      in ANC's #8, #6, #14, ...

........................................................................
.............................. CYCLE   27 ..............................
........................................................................
   1    -80.3770071 -0.803770E+02  0.756E-03    0.73       0.0  T
   2    -80.3770098 -0.265951E-05  0.296E-03    0.73       4.9  T
   3    -80.3770099 -0.114071E-06  0.147E-03    0.73       9.9  T
   4    -80.3770099 -0.233927E-07  0.677E-04    0.73      21.6  T
   5    -80.3770099 -0.213549E-08  0.136E-04    0.73     107.2  T
   6    -80.3770099 -0.240718E-09  0.355E-05    0.73     410.8  T
     SCC iter.                  ...        0 min,  0.023 sec
     gradient                   ...        0 min,  0.098 sec
 * total energy  :   -79.4870063 Eh     change       -0.2180062E-03 Eh
   gradient norm :     0.0051223 Eh/α   predicted    -0.1603555E-03 ( -26.44%)
   displ. norm   :     0.2072578 α      lambda       -0.2059941E-03
   maximum displ.:     0.1117384 α      in ANC's #8, #6, #14, ...

........................................................................
.............................. CYCLE   28 ..............................
........................................................................
   1    -80.3781675 -0.803782E+02  0.488E-03    0.74       0.0  T
   2    -80.3781685 -0.101529E-05  0.202E-03    0.74       7.2  T
   3    -80.3781686 -0.549849E-07  0.985E-04    0.74      14.8  T
   4    -80.3781686 -0.110820E-07  0.417E-04    0.74      35.0  T
   5    -80.3781686 -0.635296E-09  0.901E-05    0.74     162.0  T
   6    -80.3781686 -0.930669E-10  0.293E-05    0.74     497.8  T
     SCC iter.                  ...        0 min,  0.023 sec
     gradient                   ...        0 min,  0.098 sec
 * total energy  :   -79.4871594 Eh     change       -0.1530699E-03 Eh
   gradient norm :     0.0060332 Eh/α   predicted    -0.1074218E-03 ( -29.82%)
   displ. norm   :     0.2464554 α      lambda       -0.2005448E-03
   maximum displ.:     0.1085982 α      in ANC's #8, #6, #14, ...

........................................................................
.............................. CYCLE   29 ..............................
........................................................................
   1    -80.3782166 -0.803782E+02  0.394E-03    0.74       0.0  T
   2    -80.3782170 -0.394482E-06  0.167E-03    0.74       8.7  T
   3    -80.3782170 -0.326989E-07  0.854E-04    0.74      17.1  T
   4    -80.3782170 -0.602355E-08  0.253E-04    0.74      57.7  T
   5    -80.3782170 -0.646736E-09  0.823E-05    0.74     177.2  T
   6    -80.3782170 -0.764828E-10  0.296E-05    0.74     492.6  T
     SCC iter.                  ...        0 min,  0.023 sec
     gradient                   ...        0 min,  0.098 sec
 * total energy  :   -79.4873137 Eh     change       -0.1543037E-03 Eh
   gradient norm :     0.0068928 Eh/α   predicted    -0.1063697E-03 ( -31.06%)
   displ. norm   :     0.3158717 α      lambda       -0.2413808E-03
   maximum displ.:     0.1238742 α      in ANC's #17, #6, #3, ...

........................................................................
.............................. CYCLE   30 ..............................
........................................................................
   1    -80.3773734 -0.803774E+02  0.601E-03    0.73       0.0  T
   2    -80.3773745 -0.112457E-05  0.252E-03    0.73       5.8  T
   3    -80.3773746 -0.505258E-07  0.118E-03    0.73      12.4  T
   4    -80.3773746 -0.728008E-08  0.391E-04    0.73      37.3  T
   5    -80.3773746 -0.174731E-08  0.119E-04    0.73     122.9  T
   6    -80.3773746 -0.138456E-09  0.426E-05    0.73     342.6  T
     SCC iter.                  ...        0 min,  0.023 sec
     gradient                   ...        0 min,  0.098 sec
 * total energy  :   -79.4874931 Eh     change       -0.1794427E-03 Eh
   gradient norm :     0.0070069 Eh/α   predicted    -0.1327714E-03 ( -26.01%)
   displ. norm   :     0.2776586 α      lambda       -0.2260726E-03
   maximum displ.:     0.1211245 α      in ANC's #17, #3, #6, ...

........................................................................
.............................. CYCLE   31 ..............................
........................................................................
   1    -80.3770952 -0.803771E+02  0.832E-03    0.72       0.0  T
   2    -80.3770990 -0.377491E-05  0.295E-03    0.72       4.9  T
   3    -80.3770991 -0.126127E-06  0.140E-03    0.72      10.4  T
   4    -80.3770992 -0.146021E-07  0.658E-04    0.72      22.2  T
   5    -80.3770992 -0.288932E-08  0.161E-04    0.72      90.8  T
   6    -80.3770992 -0.180435E-09  0.536E-05    0.72     272.2  T
     SCC iter.                  ...        0 min,  0.023 sec
     gradient                   ...        0 min,  0.098 sec
 * total energy  :   -79.4876597 Eh     change       -0.1665865E-03 Eh
   gradient norm :     0.0054329 Eh/α   predicted    -0.1217524E-03 ( -26.91%)
   displ. norm   :     0.2668060 α      lambda       -0.2234373E-03
   maximum displ.:     0.1289551 α      in ANC's #17, #3, #5, ...

........................................................................
.............................. CYCLE   32 ..............................
........................................................................
   1    -80.3765166 -0.803765E+02  0.100E-02    0.71       0.0  T
   2    -80.3765218 -0.519468E-05  0.324E-03    0.71       4.5  T
   3    -80.3765220 -0.160303E-06  0.152E-03    0.71       9.6  T
   4    -80.3765220 -0.190487E-07  0.717E-04    0.71      20.3  T
   5    -80.3765220 -0.272351E-08  0.160E-04    0.71      91.0  T
   6    -80.3765220 -0.160526E-09  0.547E-05    0.71     266.5  T
     SCC iter.                  ...        0 min,  0.023 sec
     gradient                   ...        0 min,  0.098 sec
 * total energy  :   -79.4878284 Eh     change       -0.1687366E-03 Eh
   gradient norm :     0.0060732 Eh/α   predicted    -0.1196762E-03 ( -29.08%)
   displ. norm   :     0.2610042 α      lambda       -0.2737559E-03
   maximum displ.:     0.1305986 α      in ANC's #17, #3, #13, ...

........................................................................
.............................. CYCLE   33 ..............................
........................................................................
   1    -80.3785165 -0.803785E+02  0.123E-02    0.70       0.0  T
   2    -80.3785241 -0.751979E-05  0.378E-03    0.70       3.9  T
   3    -80.3785243 -0.225188E-06  0.193E-03    0.70       7.6  T
   4    -80.3785243 -0.206235E-07  0.856E-04    0.70      17.0  T
   5    -80.3785243 -0.393234E-08  0.171E-04    0.70      85.3  T
   6    -80.3785243 -0.245151E-09  0.586E-05    0.70     249.0  T
     SCC iter.                  ...        0 min,  0.023 sec
     gradient                   ...        0 min,  0.098 sec
 * total energy  :   -79.4880165 Eh     change       -0.1880597E-03 Eh
   gradient norm :     0.0079904 Eh/α   predicted    -0.1462034E-03 ( -22.26%)
   displ. norm   :     0.4333646 α      lambda       -0.3196966E-03
   maximum displ.:     0.2368350 α      in ANC's #17, #3, #13, ...

........................................................................
.............................. CYCLE   34 ..............................
........................................................................
   1    -80.3721848 -0.803722E+02  0.189E-02    0.69       0.0  T
   2    -80.3721950 -0.102397E-04  0.809E-03    0.69       1.8  T
   3    -80.3721955 -0.432945E-06  0.426E-03    0.70       3.4  T
   4    -80.3721955 -0.643936E-07  0.127E-03    0.70      11.5  T
   5    -80.3721956 -0.227452E-07  0.314E-04    0.70      46.5  T
   6    -80.3721956 -0.129533E-08  0.111E-04    0.70     131.9  T
   7    -80.3721956 -0.227573E-09  0.294E-05    0.70     495.8  T
     SCC iter.                  ...        0 min,  0.026 sec
     gradient                   ...        0 min,  0.098 sec
 * total energy  :   -79.4880724 Eh     change       -0.5586663E-04 Eh
   gradient norm :     0.0151618 Eh/α   predicted    -0.1898741E-03 ( 239.87%)
   displ. norm   :     0.1704275 α      lambda       -0.5543026E-03
   maximum displ.:     0.1152069 α      in ANC's #6, #8, #14, ...

........................................................................
.............................. CYCLE   35 ..............................
........................................................................
   1    -80.3799982 -0.803800E+02  0.188E-02    0.70       0.0  T
   2    -80.3800043 -0.601643E-05  0.895E-03    0.70       1.6  T
   3    -80.3800044 -0.179856E-06  0.427E-03    0.70       3.4  T
   4    -80.3800045 -0.696241E-07  0.110E-03    0.70      13.2  T
   5    -80.3800045 -0.166145E-07  0.223E-04    0.70      65.5  T
   6    -80.3800045 -0.190946E-08  0.436E-05    0.70     334.4  T
   7    -80.3800045 -0.314486E-10  0.213E-05    0.70     685.3  T
     SCC iter.                  ...        0 min,  0.026 sec
     gradient                   ...        0 min,  0.098 sec
 * total energy  :   -79.4883160 Eh     change       -0.2436068E-03 Eh
   gradient norm :     0.0083626 Eh/α   predicted    -0.2852279E-03 (  17.09%)
   displ. norm   :     0.1842078 α      lambda       -0.2890489E-03
   maximum displ.:     0.0967168 α      in ANC's #17, #3, #6, ...

........................................................................
.............................. CYCLE   36 ..............................
........................................................................
   1    -80.3815515 -0.803816E+02  0.103E-02    0.71       0.0  T
   2    -80.3815532 -0.165442E-05  0.489E-03    0.70       3.0  T
   3    -80.3815532 -0.493992E-07  0.234E-03    0.71       6.2  T
   4    -80.3815533 -0.658976E-07  0.627E-04    0.70      23.3  T
   5    -80.3815533 -0.431889E-08  0.150E-04    0.70      97.4  T
   6    -80.3815533 -0.205958E-09  0.388E-05    0.70     376.1  T
     SCC iter.                  ...        0 min,  0.023 sec
     gradient                   ...        0 min,  0.098 sec
 * total energy  :   -79.4884884 Eh     change       -0.1724083E-03 Eh
   gradient norm :     0.0087488 Eh/α   predicted    -0.1494291E-03 ( -13.33%)
   displ. norm   :     0.3174434 α      lambda       -0.3186466E-03
   maximum displ.:     0.1770704 α      in ANC's #3, #17, #5, ...

........................................................................
.............................. CYCLE   37 ..............................
........................................................................
   1    -80.3777436 -0.803777E+02  0.716E-03    0.71       0.0  T
   2    -80.3777456 -0.205742E-05  0.385E-03    0.71       3.8  T
   3    -80.3777459 -0.235764E-06  0.207E-03    0.71       7.1  T
   4    -80.3777459 -0.197056E-07  0.577E-04    0.71      25.3  T
   5    -80.3777459 -0.233422E-08  0.140E-04    0.71     104.2  T
   6    -80.3777459 -0.215479E-09  0.557E-05    0.71     261.9  T
     SCC iter.                  ...        0 min,  0.023 sec
     gradient                   ...        0 min,  0.098 sec
 * total energy  :   -79.4887129 Eh     change       -0.2245674E-03 Eh
   gradient norm :     0.0108958 Eh/α   predicted    -0.1753789E-03 ( -21.90%)
   displ. norm   :     0.2760703 α      lambda       -0.3579278E-03
   maximum displ.:     0.1556792 α      in ANC's #3, #17, #6, ...

........................................................................
.............................. CYCLE   38 ..............................
........................................................................
   1    -80.3770200 -0.803770E+02  0.919E-03    0.72       0.0  T
   2    -80.3770227 -0.273428E-05  0.412E-03    0.72       3.5  T
   3    -80.3770230 -0.245799E-06  0.202E-03    0.72       7.2  T
   4    -80.3770230 -0.268928E-07  0.689E-04    0.72      21.2  T
   5    -80.3770230 -0.265435E-08  0.158E-04    0.72      92.3  T
   6    -80.3770230 -0.513154E-09  0.574E-05    0.72     254.0  T
     SCC iter.                  ...        0 min,  0.023 sec
     gradient                   ...        0 min,  0.098 sec
 * total energy  :   -79.4889482 Eh     change       -0.2352545E-03 Eh
   gradient norm :     0.0110856 Eh/α   predicted    -0.1926060E-03 ( -18.13%)
   displ. norm   :     0.3657387 α      lambda       -0.3182316E-03
   maximum displ.:     0.2144357 α      in ANC's #3, #17, #6, ...

........................................................................
.............................. CYCLE   39 ..............................
........................................................................
   1    -80.3765150 -0.803765E+02  0.809E-03    0.72       0.0  T
   2    -80.3765168 -0.175427E-05  0.321E-03    0.72       4.5  T
   3    -80.3765169 -0.158053E-06  0.157E-03    0.72       9.3  T
   4    -80.3765169 -0.100894E-07  0.461E-04    0.72      31.6  T
   5    -80.3765169 -0.416904E-08  0.140E-04    0.72     104.0  T
   6    -80.3765169 -0.219046E-09  0.447E-05    0.72     326.0  T
     SCC iter.                  ...        0 min,  0.023 sec
     gradient                   ...        0 min,  0.098 sec
 * total energy  :   -79.4891868 Eh     change       -0.2385660E-03 Eh
   gradient norm :     0.0121399 Eh/α   predicted    -0.1804041E-03 ( -24.38%)
   displ. norm   :     0.3997303 α      lambda       -0.6656281E-03
   maximum displ.:     0.2206807 α      in ANC's #6, #3, #2, ...

........................................................................
.............................. CYCLE   40 ..............................
........................................................................
   1    -80.3830900 -0.803831E+02  0.145E-02    0.72       0.0  T
   2    -80.3830940 -0.398150E-05  0.747E-03    0.73       2.0  T
   3    -80.3830942 -0.140844E-06  0.377E-03    0.72       3.9  T
   4    -80.3830943 -0.103555E-06  0.806E-04    0.72      18.1  T
   5    -80.3830943 -0.396045E-08  0.137E-04    0.72     106.7  T
   6    -80.3830943 -0.243588E-09  0.475E-05    0.72     307.0  T
     SCC iter.                  ...        0 min,  0.023 sec
     gradient                   ...        0 min,  0.098 sec
 * total energy  :   -79.4894231 Eh     change       -0.2363851E-03 Eh
   gradient norm :     0.0119377 Eh/α   predicted    -0.3859968E-03 (  63.29%)
   displ. norm   :     0.4887791 α      lambda       -0.7071478E-03
   maximum displ.:     0.2789636 α      in ANC's #3, #17, #2, ...

........................................................................
.............................. CYCLE   41 ..............................
........................................................................
   1    -80.3789820 -0.803790E+02  0.233E-02    0.73       0.0  T
   2    -80.3789891 -0.707891E-05  0.111E-02    0.72       1.3  T
   3    -80.3789893 -0.236476E-06  0.463E-03    0.72       3.1  T
   4    -80.3789894 -0.105262E-06  0.114E-03    0.72      12.8  T
   5    -80.3789895 -0.188999E-07  0.361E-04    0.72      40.5  T
   6    -80.3789895 -0.196387E-08  0.713E-05    0.72     204.5  T
   7    -80.3789895 -0.866862E-10  0.239E-05    0.72     610.3  T
     SCC iter.                  ...        0 min,  0.027 sec
     gradient                   ...        0 min,  0.098 sec
 * total energy  :   -79.4896929 Eh     change       -0.2697647E-03 Eh
   gradient norm :     0.0129682 Eh/α   predicted    -0.4380468E-03 (  62.38%)
   displ. norm   :     0.1175345 α      lambda       -0.3009430E-03
   maximum displ.:     0.0610638 α      in ANC's #6, #3, #17, ...

........................................................................
.............................. CYCLE   42 ..............................
........................................................................
   1    -80.3823161 -0.803823E+02  0.970E-03    0.72       0.0  T
   2    -80.3823172 -0.108686E-05  0.526E-03    0.72       2.8  T
   3    -80.3823173 -0.702990E-07  0.267E-03    0.72       5.5  T
   4    -80.3823173 -0.408682E-07  0.397E-04    0.72      36.8  T
   5    -80.3823173 -0.265834E-08  0.118E-04    0.72     123.7  T
   6    -80.3823173 -0.292886E-09  0.373E-05    0.72     391.2  T
     SCC iter.                  ...        0 min,  0.023 sec
     gradient                   ...        0 min,  0.098 sec
 * total energy  :   -79.4898623 Eh     change       -0.1693775E-03 Eh
   gradient norm :     0.0057210 Eh/α   predicted    -0.1525502E-03 (  -9.93%)
   displ. norm   :     0.2171388 α      lambda       -0.2436570E-03
   maximum displ.:     0.1337044 α      in ANC's #3, #2, #17, ...
 * RMSD in coord.:     0.6211996 α      energy gain  -0.3795427E-01 Eh

generating ANC from model Hessian ...
Using Lindh-Hessian (1995)
 Shifting diagonal of input Hessian by   9.804348130597811E-003
 Lowest  eigenvalues of input Hessian
    0.000000    0.000000    0.000000    0.000000    0.000000    0.000000
    0.010000    0.010120    0.010601    0.010843    0.011202    0.012190
    0.012481    0.013316    0.015186    0.015556    0.017419    0.018287
 Highest eigenvalues
    1.975949    2.023295    2.103376    2.170900    2.339322    2.366551
 

........................................................................
.............................. CYCLE   43 ..............................
........................................................................
   1    -80.3813785 -0.803814E+02  0.634E-03    0.71       0.0  T
   2    -80.3813805 -0.205898E-05  0.372E-03    0.71       3.9  T
   3    -80.3813807 -0.217079E-06  0.197E-03    0.71       7.4  T
   4    -80.3813807 -0.571171E-08  0.640E-04    0.71      22.8  T
   5    -80.3813807 -0.248313E-08  0.130E-04    0.71     112.5  T
   6    -80.3813807 -0.415952E-09  0.460E-05    0.71     316.8  T
     SCC iter.                  ...        0 min,  0.023 sec
     gradient                   ...        0 min,  0.132 sec
 * total energy  :   -79.4900185 Eh     change       -0.1561945E-03 Eh
   gradient norm :     0.0065989 Eh/α   predicted     0.0000000E+00 (-100.00%)
   displ. norm   :     0.0674505 α      lambda       -0.1101414E-03
   maximum displ.:     0.0346628 α      in ANC's #6, #15, #13, ...

........................................................................
.............................. CYCLE   44 ..............................
........................................................................
   1    -80.3821501 -0.803822E+02  0.331E-03    0.71       0.0  T
   2    -80.3821507 -0.517669E-06  0.169E-03    0.71       8.6  T
   3    -80.3821507 -0.204424E-07  0.920E-04    0.71      15.9  T
   4    -80.3821507 -0.159346E-08  0.334E-04    0.71      43.6  T
   5    -80.3821507 -0.833367E-09  0.474E-05    0.71     307.7  T
   6    -80.3821507 -0.454747E-10  0.173E-05    0.71     843.3  T
     SCC iter.                  ...        0 min,  0.039 sec
     gradient                   ...        0 min,  0.170 sec
 * total energy  :   -79.4901209 Eh     change       -0.1023952E-03 Eh
   gradient norm :     0.0019938 Eh/α   predicted    -0.6307322E-04 ( -38.40%)
   displ. norm   :     0.3252416 α      lambda       -0.2451771E-03
   maximum displ.:     0.1671328 α      in ANC's #6, #15, #13, ...

........................................................................
.............................. CYCLE   45 ..............................
........................................................................
   1    -80.3818711 -0.803819E+02  0.827E-03    0.71       0.0  T
   2    -80.3818739 -0.284001E-05  0.392E-03    0.71       3.7  T
   3    -80.3818740 -0.118405E-06  0.200E-03    0.71       7.3  T
   4    -80.3818741 -0.175100E-07  0.736E-04    0.71      19.8  T
   5    -80.3818741 -0.573199E-08  0.169E-04    0.71      86.5  T
   6    -80.3818741 -0.267519E-09  0.581E-05    0.71     251.0  T
     SCC iter.                  ...        0 min,  0.049 sec
     gradient                   ...        0 min,  0.120 sec
 * total energy  :   -79.4903247 Eh     change       -0.2038372E-03 Eh
   gradient norm :     0.0096438 Eh/α   predicted    -0.1283594E-03 ( -37.03%)
   displ. norm   :     0.1156309 α      lambda       -0.1066009E-03
   maximum displ.:     0.0540283 α      in ANC's #6, #15, #13, ...

........................................................................
.............................. CYCLE   46 ..............................
........................................................................
   1    -80.3816514 -0.803817E+02  0.261E-03    0.71       0.0  T
   2    -80.3816515 -0.153010E-06  0.117E-03    0.71      12.5  T
   3    -80.3816515 -0.141879E-07  0.628E-04    0.71      23.2  T
   4    -80.3816515 -0.196628E-08  0.120E-04    0.71     121.6  T
   5    -80.3816515 -0.166267E-09  0.490E-05    0.71     297.4  T
     SCC iter.                  ...        0 min,  0.032 sec
     gradient                   ...        0 min,  0.105 sec
 * total energy  :   -79.4904156 Eh     change       -0.9086306E-04 Eh
   gradient norm :     0.0072844 Eh/α   predicted    -0.5401548E-04 ( -40.55%)
   displ. norm   :     0.2525801 α      lambda       -0.2039187E-03
   maximum displ.:     0.1081301 α      in ANC's #6, #15, #13, ...

........................................................................
.............................. CYCLE   47 ..............................
........................................................................
   1    -80.3812108 -0.803812E+02  0.623E-03    0.71       0.0  T
   2    -80.3812118 -0.940293E-06  0.276E-03    0.71       5.3  T
   3    -80.3812118 -0.662018E-07  0.147E-03    0.71       9.9  T
   4    -80.3812118 -0.878519E-08  0.320E-04    0.71      45.6  T
   5    -80.3812118 -0.117008E-08  0.123E-04    0.71     118.2  T
   6    -80.3812118 -0.156689E-09  0.341E-05    0.71     427.9  T
     SCC iter.                  ...        0 min,  0.049 sec
     gradient                   ...        0 min,  0.186 sec
 * total energy  :   -79.4905330 Eh     change       -0.1173760E-03 Eh
   gradient norm :     0.0035053 Eh/α   predicted    -0.1084739E-03 (  -7.58%)
   displ. norm   :     0.0515222 α      lambda       -0.3681863E-04
   maximum displ.:     0.0212367 α      in ANC's #5, #1, #4, ...

........................................................................
.............................. CYCLE   48 ..............................
........................................................................
   1    -80.3823108 -0.803823E+02  0.259E-03    0.71       0.0  T
   2    -80.3823109 -0.102037E-06  0.135E-03    0.71      10.8  T
   3    -80.3823109 -0.500491E-08  0.665E-04    0.71      21.9  T
   4    -80.3823109 -0.134625E-08  0.103E-04    0.71     141.1  T
   5    -80.3823109 -0.199876E-09  0.412E-05    0.71     354.3  T
     SCC iter.                  ...        0 min,  0.020 sec
     gradient                   ...        0 min,  0.154 sec
 * total energy  :   -79.4905565 Eh     change       -0.2353379E-04 Eh
   gradient norm :     0.0022410 Eh/α   predicted    -0.1845846E-04 ( -21.57%)
   displ. norm   :     0.1172323 α      lambda       -0.3039823E-04
   maximum displ.:     0.0450666 α      in ANC's #15, #5, #13, ...

........................................................................
.............................. CYCLE   49 ..............................
........................................................................
   1    -80.3824428 -0.803824E+02  0.254E-03    0.71       0.0  T
   2    -80.3824430 -0.195011E-06  0.102E-03    0.71      14.3  T
   3    -80.3824430 -0.144613E-07  0.482E-04    0.71      30.3  T
   4    -80.3824430 -0.256414E-08  0.143E-04    0.71     102.3  T
   5    -80.3824430 -0.182283E-09  0.525E-05    0.71     277.9  T
     SCC iter.                  ...        0 min,  0.033 sec
     gradient                   ...        0 min,  0.150 sec
 * total energy  :   -79.4905782 Eh     change       -0.2167451E-04 Eh
   gradient norm :     0.0020828 Eh/α   predicted    -0.1541700E-04 ( -28.87%)
   displ. norm   :     0.1082519 α      lambda       -0.2548147E-04
   maximum displ.:     0.0485050 α      in ANC's #5, #1, #4, ...

........................................................................
.............................. CYCLE   50 ..............................
........................................................................
   1    -80.3828419 -0.803828E+02  0.207E-03    0.71       0.0  T
   2    -80.3828421 -0.172602E-06  0.869E-04    0.71      16.8  T
   3    -80.3828421 -0.141175E-07  0.429E-04    0.71      34.0  T
   4    -80.3828421 -0.169968E-08  0.155E-04    0.71      94.4  T
   5    -80.3828421 -0.128253E-09  0.424E-05    0.71     343.8  T
     SCC iter.                  ...        0 min,  0.019 sec
     gradient                   ...        0 min,  0.150 sec
 * total energy  :   -79.4905964 Eh     change       -0.1823039E-04 Eh
   gradient norm :     0.0014386 Eh/α   predicted    -0.1289343E-04 ( -29.28%)
   displ. norm   :     0.1485158 α      lambda       -0.1883830E-04
   maximum displ.:     0.0716510 α      in ANC's #5, #1, #4, ...

........................................................................
.............................. CYCLE   51 ..............................
........................................................................
   1    -80.3830095 -0.803830E+02  0.212E-03    0.71       0.0  T
   2    -80.3830096 -0.159890E-06  0.895E-04    0.71      16.3  T
   3    -80.3830097 -0.146778E-07  0.461E-04    0.71      31.6  T
   4    -80.3830097 -0.194743E-08  0.166E-04    0.71      88.0  T
   5    -80.3830097 -0.899263E-10  0.365E-05    0.71     400.1  T
     SCC iter.                  ...        0 min,  0.033 sec
     gradient                   ...        0 min,  0.092 sec
 * total energy  :   -79.4906142 Eh     change       -0.1783901E-04 Eh
   gradient norm :     0.0018632 Eh/α   predicted    -0.9511588E-05 ( -46.68%)
   displ. norm   :     0.0826412 α      lambda       -0.1093797E-04
   maximum displ.:     0.0390375 α      in ANC's #5, #1, #4, ...

........................................................................
.............................. CYCLE   52 ..............................
........................................................................
   1    -80.3829019 -0.803829E+02  0.111E-03    0.71       0.0  T
   2    -80.3829019 -0.477255E-07  0.518E-04    0.71      28.2  T
   3    -80.3829019 -0.368041E-08  0.279E-04    0.71      52.3  T
   4    -80.3829019 -0.221434E-09  0.887E-05    0.71     164.4  T
   5    -80.3829019 -0.407141E-10  0.182E-05    0.71     799.6  T
     SCC iter.                  ...        0 min,  0.020 sec
     gradient                   ...        0 min,  0.093 sec
 * total energy  :   -79.4906274 Eh     change       -0.1321759E-04 Eh
   gradient norm :     0.0013216 Eh/α   predicted    -0.5497565E-05 ( -58.41%)
   displ. norm   :     0.1354608 α      lambda       -0.1484582E-04
   maximum displ.:     0.0623888 α      in ANC's #5, #1, #4, ...

........................................................................
.............................. CYCLE   53 ..............................
........................................................................
   1    -80.3824809 -0.803825E+02  0.198E-03    0.70       0.0  T
   2    -80.3824810 -0.175398E-06  0.794E-04    0.70      18.4  T
   3    -80.3824811 -0.118198E-07  0.411E-04    0.70      35.5  T
   4    -80.3824811 -0.520700E-09  0.157E-04    0.70      92.7  T
   5    -80.3824811 -0.104052E-09  0.358E-05    0.70     406.9  T
     SCC iter.                  ...        0 min,  0.020 sec
     gradient                   ...        0 min,  0.094 sec
 * total energy  :   -79.4906432 Eh     change       -0.1579131E-04 Eh
   gradient norm :     0.0009951 Eh/α   predicted    -0.7484334E-05 ( -52.60%)
   displ. norm   :     0.1186464 α      lambda       -0.9772510E-05
   maximum displ.:     0.0539240 α      in ANC's #4, #1, #5, ...

........................................................................
.............................. CYCLE   54 ..............................
........................................................................
   1    -80.3826503 -0.803827E+02  0.194E-03    0.70       0.0  T
   2    -80.3826504 -0.131949E-06  0.778E-04    0.70      18.7  T
   3    -80.3826504 -0.740232E-08  0.435E-04    0.70      33.6  T
   4    -80.3826504 -0.604444E-09  0.138E-04    0.70     105.8  T
   5    -80.3826504 -0.157812E-09  0.350E-05    0.70     416.6  T
     SCC iter.                  ...        0 min,  0.020 sec
     gradient                   ...        0 min,  0.094 sec
 * total energy  :   -79.4906535 Eh     change       -0.1028330E-04 Eh
   gradient norm :     0.0012777 Eh/α   predicted    -0.4917052E-05 ( -52.18%)
   displ. norm   :     0.1496530 α      lambda       -0.1196491E-04
   maximum displ.:     0.0757352 α      in ANC's #4, #1, #5, ...

........................................................................
.............................. CYCLE   55 ..............................
........................................................................
   1    -80.3820378 -0.803820E+02  0.234E-03    0.70       0.0  T
   2    -80.3820380 -0.153944E-06  0.956E-04    0.70      15.3  T
   3    -80.3820380 -0.111360E-07  0.547E-04    0.70      26.7  T
   4    -80.3820380 -0.117785E-08  0.140E-04    0.70     104.5  T
   5    -80.3820380 -0.224702E-09  0.344E-05    0.70     423.7  T
     SCC iter.                  ...        0 min,  0.020 sec
     gradient                   ...        0 min,  0.093 sec
 * total energy  :   -79.4906665 Eh     change       -0.1294299E-04 Eh
   gradient norm :     0.0014984 Eh/α   predicted    -0.6043356E-05 ( -53.31%)
   displ. norm   :     0.1586071 α      lambda       -0.1392569E-04
   maximum displ.:     0.0827227 α      in ANC's #4, #1, #2, ...

........................................................................
.............................. CYCLE   56 ..............................
........................................................................
   1    -80.3821762 -0.803822E+02  0.181E-03    0.70       0.0  T
   2    -80.3821763 -0.103386E-06  0.633E-04    0.70      23.0  T
   3    -80.3821763 -0.839316E-08  0.378E-04    0.70      38.6  T
   4    -80.3821763 -0.776708E-09  0.108E-04    0.70     134.6  T
   5    -80.3821763 -0.120650E-09  0.330E-05    0.70     441.5  T
     SCC iter.                  ...        0 min,  0.020 sec
     gradient                   ...        0 min,  0.106 sec
 * total energy  :   -79.4906837 Eh     change       -0.1723519E-04 Eh
   gradient norm :     0.0013235 Eh/α   predicted    -0.7041149E-05 ( -59.15%)
   displ. norm   :     0.2316475 α      lambda       -0.2008216E-04
   maximum displ.:     0.1221097 α      in ANC's #4, #2, #1, ...

........................................................................
.............................. CYCLE   57 ..............................
........................................................................
   1    -80.3822358 -0.803822E+02  0.216E-03    0.69       0.0  T
   2    -80.3822360 -0.133694E-06  0.860E-04    0.69      17.0  T
   3    -80.3822360 -0.140312E-07  0.509E-04    0.69      28.6  T
   4    -80.3822360 -0.180945E-08  0.133E-04    0.69     110.0  T
   5    -80.3822360 -0.114923E-09  0.397E-05    0.69     367.2  T
     SCC iter.                  ...        0 min,  0.020 sec
     gradient                   ...        0 min,  0.093 sec
 * total energy  :   -79.4907070 Eh     change       -0.2328918E-04 Eh
   gradient norm :     0.0012682 Eh/α   predicted    -0.1028477E-04 ( -55.84%)
   displ. norm   :     0.2635462 α      lambda       -0.1749632E-04
   maximum displ.:     0.1377324 α      in ANC's #4, #2, #1, ...

........................................................................
.............................. CYCLE   58 ..............................
........................................................................
   1    -80.3820593 -0.803821E+02  0.218E-03    0.69       0.0  T
   2    -80.3820595 -0.148375E-06  0.858E-04    0.69      17.0  T
   3    -80.3820595 -0.187023E-07  0.498E-04    0.69      29.3  T
   4    -80.3820595 -0.166557E-08  0.138E-04    0.69     105.7  T
   5    -80.3820595 -0.560050E-10  0.362E-05    0.69     403.3  T
     SCC iter.                  ...        0 min,  0.020 sec
     gradient                   ...        0 min,  0.093 sec
 * total energy  :   -79.4907263 Eh     change       -0.1927256E-04 Eh
   gradient norm :     0.0013105 Eh/α   predicted    -0.9020464E-05 ( -53.20%)
   displ. norm   :     0.1921911 α      lambda       -0.1153182E-04
   maximum displ.:     0.0995336 α      in ANC's #4, #2, #1, ...

........................................................................
.............................. CYCLE   59 ..............................
........................................................................
   1    -80.3825342 -0.803825E+02  0.158E-03    0.69       0.0  T
   2    -80.3825344 -0.130446E-06  0.683E-04    0.69      21.4  T
   3    -80.3825344 -0.928110E-08  0.376E-04    0.69      38.8  T
   4    -80.3825344 -0.581323E-09  0.144E-04    0.69     101.2  T
   5    -80.3825344 -0.616467E-10  0.361E-05    0.69     403.7  T
     SCC iter.                  ...        0 min,  0.019 sec
     gradient                   ...        0 min,  0.093 sec
 * total energy  :   -79.4907397 Eh     change       -0.1343213E-04 Eh
   gradient norm :     0.0010732 Eh/α   predicted    -0.5863574E-05 ( -56.35%)
   displ. norm   :     0.4057524 α      lambda       -0.1839581E-04
   maximum displ.:     0.2118411 α      in ANC's #4, #2, #1, ...

........................................................................
.............................. CYCLE   60 ..............................
........................................................................
   1    -80.3810898 -0.803811E+02  0.432E-03    0.69       0.0  T
   2    -80.3810904 -0.605303E-06  0.174E-03    0.69       8.4  T
   3    -80.3810905 -0.687194E-07  0.995E-04    0.69      14.7  T
   4    -80.3810905 -0.418326E-08  0.277E-04    0.69      52.6  T
   5    -80.3810905 -0.422105E-09  0.531E-05    0.69     274.7  T
[...]
H31-C5-C4-N7=300.80           H32-C6-C4-C3=183.34           H32-C6-C4-C5=303.07           H32-C6-C4-N7= 64.89           
H33-C6-C4-C3=302.87           H33-C6-C4-C5= 62.59           H33-C6-C4-N7=184.41           H34-C6-C4-C3= 63.77           
H34-C6-C4-C5=183.49           H34-C6-C4-N7=305.31           H35-N7-C4-C3=193.57           H35-N7-C4-C5= 71.67           
H35-N7-C4-C6=310.34           H36-N7-C4-C3= 73.97           H36-N7-C4-C5=312.07           H36-N7-C4-C6=190.74           
C9-N8-C3-N2= 18.07            C9-N8-C3-C4=195.48            C10-C9-N8-C3=189.66           C21-C9-N8-C3= 12.76           
O11-C10-C9-N8=351.21          O11-C10-C9-C21=167.70         N12-C10-C9-N8=171.27          N12-C10-C9-C21=347.76         
           -------------------------------------------------
          |                Final Singlepoint                |
           -------------------------------------------------

          ...................................................
          :                      SETUP                      :
          :.................................................:
          :  # basis functions                 144          :
          :  # atomic orbitals                 144          :
          :  # shells                           94          :
          :  # electrons                       134          :
          :  # halogen bonds                     0          :
          :  max. iterations                   250          :
          :  Hamiltonian                  GFN1-xTB          :
          :  restarted?                      false          :
          :  GBSA solvation                   true          :
          :  PC potential                    false          :
          :  electronic temp.          300.0000000     K    :
          :  accuracy                    1.0000000          :
          :  -> integral cutoff          0.2500000E+02      :
          :  -> integral neglect         0.1000000E-07      :
          :  -> SCF convergence          0.1000000E-05 Eh   :
          :  -> wf. convergence          0.2000000E-04 e    :
          :  Broyden damping             0.4000000          :
          ...................................................

 iter      E             dE          RMSdq      gap      omega  full diag
   1    -80.3826335 -0.803826E+02  0.621E-06    0.69       0.0  T
   2    -80.3826335 -0.667910E-12  0.276E-06    0.69    5278.4  T
   3    -80.3826335 -0.113687E-12  0.146E-06    0.69   10006.9  T

   *** convergence criteria satisfied after 3 iterations ***

         #    Occupation            Energy/Eh            Energy/eV
      -------------------------------------------------------------
         1        2.0000           -0.8868181             -24.1315
       ...           ...                  ...                  ...
        61        2.0000           -0.4971031             -13.5269
        62        2.0000           -0.4814381             -13.1006
        63        2.0000           -0.4783302             -13.0160
        64        2.0000           -0.4654784             -12.6663
        65        2.0000           -0.4589960             -12.4899
        66        2.0000           -0.4459907             -12.1360
        67        2.0000           -0.4421170             -12.0306 (HOMO)
        68        0.0000           -0.4167734             -11.3410 (LUMO)
        69                         -0.3422733              -9.3137
        70                         -0.3014566              -8.2031
        71                         -0.2809044              -7.6438
        72                         -0.2760110              -7.5106
       ...                                ...                  ...
       144                          0.6845804              18.6284
      -------------------------------------------------------------
                  HL-Gap            0.0253436 Eh            0.6896 eV
             Fermi-level           -0.4294372 Eh          -11.6856 eV

 SCC (total)                   0 d,  0 h,  0 min,  0.148 sec
 SCC setup                      ...        0 min,  0.002 sec (  1.411%)
 Dispersion                     ...        0 min,  0.000 sec (  0.266%)
 classical contributions        ...        0 min,  0.000 sec (  0.090%)
 integral evaluation            ...        0 min,  0.039 sec ( 26.173%)
 iterations                     ...        0 min,  0.012 sec (  8.063%)
 molecular gradient             ...        0 min,  0.094 sec ( 63.423%)
 printout                       ...        0 min,  0.001 sec (  0.551%)

         :::::::::::::::::::::::::::::::::::::::::::::::::::::
         ::                     SUMMARY                     ::
         :::::::::::::::::::::::::::::::::::::::::::::::::::::
         :: total energy             -79.490812140490 Eh    ::
         :: total w/o Gsasa/hb       -79.462038393461 Eh    ::
         :: gradient norm              0.000406270639 Eh/a0 ::
         :: HOMO-LUMO gap              0.689635743325 eV    ::
         ::.................................................::
         :: SCC energy               -80.382633470718 Eh    ::
         :: -> electrostatic           0.311461704744 Eh    ::
         :: -> Gsolv                  -0.106856263053 Eh    ::
         ::    -> Gelec               -0.078082516024 Eh    ::
         ::    -> Gsasa               -0.024904784243 Eh    ::
         ::    -> Ghb                 -0.011493241790 Eh    ::
         ::    -> Gshift               0.007624279005 Eh    ::
         :: repulsion energy           0.922865649261 Eh    ::
         :: dispersion energy         -0.031044319034 Eh    ::
         :: halogen bond corr.         0.000000000000 Eh    ::
         :: add. restraining           0.000000000000 Eh    ::
         :: total charge               1.000000000001 e     ::
         :::::::::::::::::::::::::::::::::::::::::::::::::::::

           -------------------------------------------------
          |                Property Printout                |
           -------------------------------------------------

    * Orbital Energies and Occupations

         #    Occupation            Energy/Eh            Energy/eV
      -------------------------------------------------------------
         1        2.0000           -0.8868181             -24.1315
       ...           ...                  ...                  ...
        55        2.0000           -0.5204713             -14.1627
        56        2.0000           -0.5198085             -14.1447
        57        2.0000           -0.5165049             -14.0548
        58        2.0000           -0.5145755             -14.0023
        59        2.0000           -0.5116538             -13.9228
        60        2.0000           -0.5043288             -13.7235
        61        2.0000           -0.4971031             -13.5269
        62        2.0000           -0.4814381             -13.1006
        63        2.0000           -0.4783302             -13.0160
        64        2.0000           -0.4654784             -12.6663
        65        2.0000           -0.4589960             -12.4899
        66        2.0000           -0.4459907             -12.1360
        67        2.0000           -0.4421170             -12.0306 (HOMO)
        68        0.0000           -0.4167734             -11.3410 (LUMO)
        69                         -0.3422733              -9.3137
        70                         -0.3014566              -8.2031
        71                         -0.2809044              -7.6438
        72                         -0.2760110              -7.5106
        73                         -0.2429689              -6.6115
        74                         -0.1626725              -4.4265
        75                         -0.1579534              -4.2981
        76                         -0.1542819              -4.1982
        77                         -0.1420754              -3.8661
        78                         -0.1351913              -3.6787
       ...                                ...                  ...
       144                          0.6845804              18.6284
      -------------------------------------------------------------
                  HL-Gap            0.0253436 Eh            0.6896 eV
             Fermi-level           -0.4294372 Eh          -11.6856 eV

  Mulliken/CM5 charges         n(s)   n(p)   n(d)
     1C     0.03875 -0.04875   1.005  2.957  0.000
     2N    -0.16996 -0.42335   1.457  3.712  0.000
     3C     0.33182  0.48018   1.061  2.607  0.000
     4C     0.14891  0.18379   1.065  2.786  0.000
     5C    -0.11297 -0.25278   1.025  3.088  0.000
     6C    -0.10547 -0.24690   1.027  3.079  0.000
     7N    -0.50444 -0.97064   1.472  4.032  0.000
     8N    -0.29070 -0.48645   1.505  3.786  0.000
     9C     0.19631  0.28841   1.115  2.689  0.000
    10C     0.47405  0.58502   0.973  2.553  0.000
    11O    -0.56505 -0.60796   1.724  4.841  0.000
    12N    -0.30335 -0.66432   1.438  3.865  0.000
    13C     0.09028  0.04592   1.013  2.896  0.000
    14C    -0.01614 -0.02550   1.084  2.932  0.000
    15C    -0.03059 -0.08345   1.064  2.967  0.000
    16C    -0.06289 -0.11381   1.059  3.004  0.000
    17C     0.24858  0.25992   1.046  2.705  0.000
    18F    -0.26918 -0.29344   1.828  5.441  0.000
    19C    -0.06462 -0.11548   1.060  3.005  0.000
    20C    -0.02276 -0.07500   1.065  2.958  0.000
    21C     0.21736  0.23738   1.036  2.747  0.000
    22O    -0.56949 -0.78100   1.694  4.875  0.000
    23C     0.47775  0.57495   1.027  2.495  0.000
    24C    -0.10221 -0.24325   1.037  3.065  0.000
    25O    -0.46227 -0.51408   1.718  4.744  0.000
    26H     0.08855  0.15305   0.911  0.000  0.000
    27H     0.08145  0.15874   0.919  0.000  0.000
    28H     0.09309  0.16038   0.907  0.000  0.000
    29H     0.05657  0.11532   0.943  0.000  0.000
    30H     0.05443  0.11239   0.946  0.000  0.000
    31H     0.06237  0.11785   0.938  0.000  0.000
    32H     0.07636  0.13169   0.924  0.000  0.000
    33H     0.05490  0.10969   0.945  0.000  0.000
    34H     0.05689  0.11531   0.943  0.000  0.000
    35H     0.25064  0.44164   0.749  0.000  0.000
    36H     0.24364  0.43487   0.756  0.000  0.000
    37H     0.28098  0.49239   0.719  0.000  0.000
    38H     0.06304  0.12899   0.937  0.000  0.000
    39H     0.07106  0.14138   0.929  0.000  0.000
    40H     0.05295  0.11032   0.947  0.000  0.000
    41H     0.06517  0.12228   0.935  0.000  0.000
    42H     0.06327  0.12038   0.937  0.000  0.000
    43H     0.05601  0.11723   0.944  0.000  0.000
    44H     0.41806  0.59578   0.582  0.000  0.000
    45H     0.08771  0.14457   0.912  0.000  0.000
    46H     0.06133  0.12041   0.939  0.000  0.000
    47H     0.08982  0.14592   0.910  0.000  0.000

Wiberg/Mayer (AO) data.
largest (>0.10) Wiberg bond orders for each atom

 ---------------------------------------------------------------------------
     #   Z sym  total        # sym  WBO       # sym  WBO       # sym  WBO
 ---------------------------------------------------------------------------
     1   6 C    3.880 --    28 H    0.969    26 H    0.966    27 H    0.960
                             2 N    0.901
     2   7 N    3.553 --     3 C    1.370    23 C    1.011     1 C    0.901
     3   6 C    3.869 --     2 N    1.370     8 N    1.264     4 C    0.988
     4   6 C    3.954 --     3 C    0.988     5 C    0.988     7 N    0.983
                             6 C    0.953
     5   6 C    3.988 --     4 C    0.988    31 H    0.983    29 H    0.982
                            30 H    0.981
     6   6 C    3.986 --    33 H    0.984    34 H    0.983    32 H    0.975
                             4 C    0.953
     7   7 N    3.007 --     4 C    0.983    36 H    0.929    35 H    0.924
     8   7 N    3.138 --     9 C    1.625     3 C    1.264
     9   6 C    3.895 --     8 N    1.625    21 C    1.004    10 C    0.959
    10   6 C    3.922 --    11 O    1.584    12 N    1.302     9 C    0.959
    11   8 O    1.913 --    10 C    1.584    12 N    0.203
    12   7 N    3.420 --    10 C    1.302    13 C    0.929    37 H    0.870
                            11 O    0.203
    13   6 C    3.929 --    14 C    0.985    38 H    0.974    39 H    0.969
                            12 N    0.929
    14   6 C    3.981 --    15 C    1.421    20 C    1.416    13 C    0.985
    15   6 C    3.993 --    16 C    1.442    14 C    1.421    40 H    0.970
                            19 C    0.110
    16   6 C    3.990 --    15 C    1.442    17 C    1.401    41 H    0.968
                            20 C    0.111
    17   6 C    3.861 --    16 C    1.401    19 C    1.398    18 F    0.930
    18   9 F    1.059 --    17 C    0.930
    19   6 C    3.991 --    20 C    1.446    17 C    1.398    42 H    0.969
                            15 C    0.110
    20   6 C    3.992 --    19 C    1.446    14 C    1.416    43 H    0.969
                            16 C    0.111
    21   6 C    3.933 --     9 C    1.004    22 O    0.988    23 C    0.929
                            24 C    0.892
    22   8 O    1.932 --    21 C    0.988    44 H    0.808
    23   6 C    3.860 --    25 O    1.773     2 N    1.011    21 C    0.929
    24   6 C    3.968 --    46 H    0.984    45 H    0.978    47 H    0.975
                            21 C    0.892
    25   8 O    2.039 --    23 C    1.773
    26   1 H    0.994 --     1 C    0.966
    27   1 H    1.020 --     1 C    0.960
    28   1 H    0.997 --     1 C    0.969
    29   1 H    1.004 --     5 C    0.982
    30   1 H    1.003 --     5 C    0.981
    31   1 H    0.999 --     5 C    0.983
    32   1 H    0.994 --     6 C    0.975
    33   1 H    0.999 --     6 C    0.984
    34   1 H    0.998 --     6 C    0.983
    35   1 H    0.940 --     7 N    0.924
    36   1 H    0.944 --     7 N    0.929
    37   1 H    0.934 --    12 N    0.870
    38   1 H    0.999 --    13 C    0.974
    39   1 H    1.004 --    13 C    0.969
    40   1 H    0.998 --    15 C    0.970
    41   1 H    0.997 --    16 C    0.968
    42   1 H    0.997 --    19 C    0.969
    43   1 H    1.009 --    20 C    0.969
    44   1 H    0.833 --    22 O    0.808
    45   1 H    0.993 --    24 C    0.978
    46   1 H    0.997 --    24 C    0.984
    47   1 H    0.995 --    24 C    0.975
 ---------------------------------------------------------------------------

Topologies differ in total number of bonds
Writing topology from bond orders to xtbtopo.mol

 dipole moment from electron density (au)
     X       Y       Z   
  -4.4688   1.9149   1.1048  total (Debye):   12.673

           -------------------------------------------------
          |                Geometry Summary                 |
           -------------------------------------------------

      molecular mass/u    :      349.3806376
   center of mass at/Å    :        0.5968851       0.1081326      -0.0943306
  moments of inertia/u·Å² :        0.1367724E+04   0.4607345E+04   0.4904305E+04
rotational constants/cm⁻¹ :        0.1232532E-01   0.3658861E-02   0.3437313E-02

 * 42 selected distances

     #   Z          #   Z                                           value/Å
     1   6 C        2   7 N                                       1.4659857
     2   7 N        3   6 C                                       1.3307707
     4   6 C        5   6 C                                       1.5341793
     4   6 C        6   6 C                                       1.5394284 (max)
     4   6 C        7   7 N                                       1.4540156
     3   6 C        8   7 N                                       1.3459407
     8   7 N        9   6 C                                       1.2922804
    10   6 C       11   8 O                                       1.2191912
    10   6 C       12   7 N                                       1.3367975
    12   7 N       13   6 C                                       1.4630096
    14   6 C       15   6 C                                       1.3923576
    15   6 C       16   6 C                                       1.3881485
    16   6 C       17   6 C                                       1.3832718
    17   6 C       18   9 F                                       1.3408606
    17   6 C       19   6 C                                       1.3837151
    14   6 C       20   6 C                                       1.3934840
    19   6 C       20   6 C                                       1.3872214
    21   6 C       22   8 O                                       1.3903062
     2   7 N       23   6 C                                       1.4224366
    23   6 C       25   8 O                                       1.1956366
     1   6 C       26   1 H                                       1.0889725
     1   6 C       27   1 H                                       1.0868059
     1   6 C       28   1 H                                       1.0894944
     5   6 C       29   1 H                                       1.0886417
     5   6 C       30   1 H                                       1.0888972
     5   6 C       31   1 H                                       1.0880351
     6   6 C       32   1 H                                       1.0886350
     6   6 C       33   1 H                                       1.0887524
     6   6 C       34   1 H                                       1.0876998
     7   7 N       35   1 H                                       1.0097548
     7   7 N       36   1 H                                       1.0105024
    12   7 N       37   1 H                                       1.0074442
    13   6 C       38   1 H                                       1.0912168
    13   6 C       39   1 H                                       1.0936064
    15   6 C       40   1 H                                       1.0830886
    16   6 C       41   1 H                                       1.0821652
    19   6 C       42   1 H                                       1.0823109
    20   6 C       43   1 H                                       1.0835290
    22   8 O       44   1 H                                       0.9697034 (min)
    24   6 C       45   1 H                                       1.0876579
    24   6 C       46   1 H                                       1.0869751
    24   6 C       47   1 H                                       1.0877174

 * 7 distinct bonds (by element types)

   Z      Z             #   av. dist./Å        max./Å        min./Å
   1 H    6 C          18     1.0874556     1.0936064     1.0821652
   6 C    6 C           8     1.4252258     1.5394284     1.3832718
   1 H    7 N           3     1.0092338     1.0105024     1.0074442
   6 C    7 N           8     1.3889046     1.4659857     1.2922804
   1 H    8 O           1     0.9697034     0.9697034     0.9697034
   6 C    8 O           3     1.2683780     1.3903062     1.1956366
   6 C    9 F           1     1.3408606     1.3408606     1.3408606


optimized geometry written to: xtbopt.xyz


           -------------------------------------------------
          | TOTAL ENERGY              -79.490812140490 Eh   |
          | GRADIENT NORM               0.000406270639 Eh/α |
          | HOMO-LUMO GAP               0.689635743325 eV   |
           -------------------------------------------------

------------------------------------------------------------------------
 * finished run on 2023/06/20 at 15:35:11.398     
------------------------------------------------------------------------
 total:
 * wall-time:     0 d,  0 h,  0 min, 11.537 sec
 *  cpu-time:     0 d,  0 h,  0 min, 10.533 sec
 * ratio c/w:     0.913 speedup
 SCF:
 * wall-time:     0 d,  0 h,  0 min,  0.412 sec
 *  cpu-time:     0 d,  0 h,  0 min,  0.231 sec
 * ratio c/w:     0.561 speedup
 ANC optimizer:
 * wall-time:     0 d,  0 h,  0 min, 11.004 sec
 *  cpu-time:     0 d,  0 h,  0 min, 10.249 sec
 * ratio c/w:     0.931 speedup

