43
 energy: -83.191073534765 gnorm: 0.000604367528 xtb: 6.5.1 (579679a)
C            5.74555887105340        0.62814051768631        2.20177940749975
O            4.52965892881325        0.23264905537519        1.55445615500042
C            4.55616303342125        0.16564209686425        0.23276350462669
O            5.54760805690412        0.41972128461277       -0.42941404414966
C            3.27144130141669       -0.25026670396251       -0.37661566101414
N            2.21997246849846       -0.49198030741070        0.47436597005956
C            1.09207482695644       -0.85405577473234       -0.02703714449742
C           -0.07072502621711       -1.17407701554030        0.88611658260603
C            0.09923102780664       -0.47346682258188        2.23580981048632
C           -0.17642233307581       -2.69226269709309        1.05495710294915
N           -1.31668079070520       -0.71384301830432        0.24803063584427
C           -1.47381812139066        0.55155701911852       -0.14964793059523
O           -0.63468399107122        1.42867421926537       -0.13973382022682
C           -2.86017182423863        0.81523854483333       -0.67005105508826
O           -3.78303850504285       -0.13087721444847       -0.75345231029199
C           -4.88213888816774        0.46100003278759       -1.25355224696704
C           -6.11253581021973       -0.31257662590056       -1.48466074066912
N           -4.66646299526779        1.72463468785833       -1.47721635620789
N           -3.38979066977661        1.93350939768475       -1.10668626575770
C           -2.83553890519415        3.26681375716119       -1.22187383594343
N            0.90611474372125       -1.03144243329596       -1.36655299769126
C            1.87359723507862       -0.79542277570939       -2.32795181172888
O            1.62991647837524       -0.93991150090523       -3.51125481655697
C            3.15320310875780       -0.37719373698826       -1.74012315546059
O            4.14331474530519       -0.14337074127204       -2.59847274485262
H            5.54041532868025        0.62854952453554        3.27015079127637
H            6.03752634936508        1.62620218229639        1.86767684883452
H            6.54106160076540       -0.08196048178428        1.96511221794716
H           -0.75733578288681       -0.68587046879978        2.87153465485120
H            1.00705130018318       -0.83833446633803        2.71408559396338
H            0.18496570908659        0.60240030323172        2.09236447275168
H           -0.31856379276563       -3.16894935811724        0.08695861233845
H            0.73769830481415       -3.07317513310850        1.50809453069149
H           -1.01913227245647       -2.93502593503454        1.69919568828846
H           -2.10475711276375       -1.33854682062901        0.23571937797660
H           -6.41089378327128       -0.81006845818649       -0.56113253870972
H           -5.92008694411546       -1.08638101065297       -2.23017341297087
H           -6.90640060670444        0.34603225410257       -1.83043788330950
H           -3.39628444840228        3.92518976563655       -0.55952334845765
H           -2.95523692507546        3.59605681711622       -2.25302839909509
H           -1.78589986779707        3.23844283539432       -0.94036620567737
H            0.00206731482302       -1.32333144461037       -1.70125590375775
H            4.95795766278546        0.13193464984117       -2.11311832831273
