      -----------------------------------------------------------      
     |                   =====================                   |     
     |                           x T B                           |     
     |                   =====================                   |     
     |                         S. Grimme                         |     
     |          Mulliken Center for Theoretical Chemistry        |     
     |                    University of Bonn                     |     
      -----------------------------------------------------------      

   * xtb version 6.5.1 (579679a) compiled by 'ehlert@majestix' on 2022-07-11

   xtb is free software: you can redistribute it and/or modify it under
   the terms of the GNU Lesser General Public License as published by
   the Free Software Foundation, either version 3 of the License, or
   (at your option) any later version.
   
   xtb is distributed in the hope that it will be useful,
   but WITHOUT ANY WARRANTY; without even the implied warranty of
   MERCHANTABILITY or FITNESS FOR A PARTICULAR PURPOSE.  See the
   GNU Lesser General Public License for more details.
   
   Cite this work as:
   * C. Bannwarth, E. Caldeweyher, S. Ehlert, A. Hansen, P. Pracht,
     J. Seibert, S. Spicher, S. Grimme, WIREs Comput. Mol. Sci., 2020, 11,
     e01493. DOI: 10.1002/wcms.1493
   
   for GFN2-xTB:
   * C. Bannwarth, S. Ehlert and S. Grimme., J. Chem. Theory Comput., 2019,
     15, 1652-1671. DOI: 10.1021/acs.jctc.8b01176
   for GFN1-xTB:
   * S. Grimme, C. Bannwarth, P. Shushkov, J. Chem. Theory Comput., 2017,
     13, 1989-2009. DOI: 10.1021/acs.jctc.7b00118
   for GFN0-xTB:
   * P. Pracht, E. Caldeweyher, S. Ehlert, S. Grimme, ChemRxiv, 2019, preprint.
     DOI: 10.26434/chemrxiv.8326202.v1
   for GFN-FF:
   * S. Spicher and S. Grimme, Angew. Chem. Int. Ed., 2020, 59, 15665-15673.
     DOI: 10.1002/anie.202004239
   
   for ALPB and GBSA implicit solvation:
   * S. Ehlert, M. Stahn, S. Spicher, S. Grimme, J. Chem. Theory Comput.,
     2021, 17, 4250-4261. DOI: 10.1021/acs.jctc.1c00471
   
   for DFT-D4:
   * E. Caldeweyher, C. Bannwarth and S. Grimme, J. Chem. Phys., 2017,
     147, 034112. DOI: 10.1063/1.4993215
   * E. Caldeweyher, S. Ehlert, A. Hansen, H. Neugebauer, S. Spicher,
     C. Bannwarth and S. Grimme, J. Chem. Phys., 2019, 150, 154122.
     DOI: 10.1063/1.5090222
   * E. Caldeweyher, J.-M. Mewes, S. Ehlert and S. Grimme, Phys. Chem. Chem. Phys.
     2020, 22, 8499-8512. DOI: 10.1039/D0CP00502A
   
   for sTDA-xTB:
   * S. Grimme and C. Bannwarth, J. Chem. Phys., 2016, 145, 054103.
     DOI: 10.1063/1.4959605
   
   in the mass-spec context:
   * V. Asgeirsson, C. Bauer and S. Grimme, Chem. Sci., 2017, 8, 4879.
     DOI: 10.1039/c7sc00601b
   * J. Koopman and S. Grimme, ACS Omega 2019, 4, 12, 15120-15133.
     DOI: 10.1021/acsomega.9b02011
   
   for metadynamics refer to:
   * S. Grimme, J. Chem. Theory Comput., 2019, 155, 2847-2862
     DOI: 10.1021/acs.jctc.9b00143
   
   for SPH calculations refer to:
   * S. Spicher and S. Grimme, J. Chem. Theory Comput., 2021, 17, 1701-1714
     DOI: 10.1021/acs.jctc.0c01306
   
   with help from (in alphabetical order)
   P. Atkinson, C. Bannwarth, F. Bohle, G. Brandenburg, E. Caldeweyher
   M. Checinski, S. Dohm, S. Ehlert, S. Ehrlich, I. Gerasimov, C. Hölzer
   A. Katbashev, J. Koopman, C. Lavigne, S. Lehtola, F. März, M. Müller,
   F. Musil, H. Neugebauer, J. Pisarek, C. Plett, P. Pracht, F. Pultar,
   J. Seibert, P. Shushkov, S. Spicher, M. Stahn, M. Steiner, T. Strunk,
   J. Stückrath, T. Rose, and J. Unsleber
   
 * started run on 2023/06/20 at 14:55:31.720     

           -------------------------------------------------
          |                Calculation Setup                |
           -------------------------------------------------

          program call               : /lustre/hpc/kemi/ree/PhD/git/ReactivityQM/dep/xtb-6.5.1/bin/xtb --gfn 1 /lustre/hpc/kemi/ree/PhD/git/ReactivityQM/calculations/RaltegravirCLI/reac01prodN07/conf09/RaltegravirCLI_reac01prodN07_conf09_gfn1.xyz --opt --vfukui --chrg 1 --uhf 0 --alpb DMSO
          hostname                   : node308
          coordinate file            : /lustre/hpc/kemi/ree/PhD/git/ReactivityQM/calculations/RaltegravirCLI/reac01prodN07/conf09/RaltegravirCLI_reac01prodN07_conf09_gfn1.xyz
          omp threads                :                     1

   ID    Z sym.   atoms
    1    6 C      1, 3, 5, 8, 9
    2    8 O      2, 10
    3   17 Cl     4
    4    7 N      6, 7
    5    1 H      11-16

           -------------------------------------------------
          |                 G F N 1 - x T B                 |
           -------------------------------------------------

        Reference                      10.1021/acs.jctc.7b00118
      * Hamiltonian:
        H0-scaling (s, p, d)           1.850000    2.250000    2.000000
        zeta-weighting                 0.000000
      * Dispersion:
        s8                             2.400000
        a1                             0.630000
        a2                             5.000000
        s9                             0.000000
      * Repulsion:
        kExp                           1.500000
        rExp                           1.000000
      * Coulomb:
        alpha                          2.000000
        third order                    atomic
        anisotropic                    false
      * Halogen bond correction:
        rad-scale                      1.300000
        damping                        0.440000

      * Solvation model:               ALPB
        Solvent                        DMSO
        Parameter file                 internal GFN1-xTB/ALPB
        Dielectric constant                4.6680E+01
        Reference state                gsolv [1 M gas/solution]
        Free energy shift                  7.6243E-03 Eh       4.7843E+00 kcal/mol
        Temperature                        2.9815E+02 K
        Density                            1.1000E+00 kg/L
        Solvent mass                       7.8130E+01 g/mol
        Interaction kernel             P16
        Born radius scaling (c1)           1.7672E+00
        Born radii integrator          GBOBC
        Born offset                        0.0000E+00 a0       0.0000E+00 AA
        H-bond correction              true
        Ion screening                  false
        Surface tension                    1.0000E-05 Eh       1.5569E+01 dyn/cm
        Grid points                               230 per atom

          ...................................................
          :                      SETUP                      :
          :.................................................:
          :  # basis functions                  58          :
          :  # atomic orbitals                  57          :
          :  # shells                           33          :
          :  # electrons                        54          :
          :  # halogen bonds                     4          :
          :  max. iterations                   250          :
          :  Hamiltonian                  GFN1-xTB          :
          :  restarted?                      false          :
          :  GBSA solvation                   true          :
          :  PC potential                    false          :
          :  electronic temp.          300.0000000     K    :
          :  accuracy                    1.0000000          :
          :  -> integral cutoff          0.2500000E+02      :
          :  -> integral neglect         0.1000000E-07      :
          :  -> SCF convergence          0.1000000E-05 Eh   :
          :  -> wf. convergence          0.2000000E-04 e    :
          :  Broyden damping             0.4000000          :
          ...................................................

 iter      E             dE          RMSdq      gap      omega  full diag
   1    -33.5649249 -0.335649E+02  0.784E+00    2.74       0.0  T
   2    -33.6561679 -0.912430E-01  0.484E+00    1.85       1.0  T
   3    -33.6437264  0.124415E-01  0.184E+00    2.62       1.0  T
   4    -33.6679816 -0.242552E-01  0.248E-01    2.07       1.0  T
   5    -33.6690432 -0.106160E-02  0.918E-02    2.17       1.0  T
   6    -33.6691438 -0.100616E-03  0.248E-02    2.15       1.0  T
   7    -33.6691477 -0.386181E-05  0.586E-03    2.15       4.3  T
   8    -33.6691478 -0.134513E-06  0.124E-03    2.15      20.2  T
   9    -33.6691478 -0.141747E-07  0.332E-04    2.15      75.2  T
  10    -33.6691478 -0.232696E-09  0.174E-04    2.15     143.3  T
  11    -33.6691478 -0.382130E-10  0.322E-05    2.15     776.3  T

   *** convergence criteria satisfied after 11 iterations ***

         #    Occupation            Energy/Eh            Energy/eV
      -------------------------------------------------------------
         1        2.0000           -1.0113052             -27.5190
       ...           ...                  ...                  ...
        21        2.0000           -0.5630801             -15.3222
        22        2.0000           -0.5593924             -15.2218
        23        2.0000           -0.5360910             -14.5878
        24        2.0000           -0.5350894             -14.5605
        25        2.0000           -0.5246893             -14.2775
        26        2.0000           -0.5073365             -13.8053
        27        2.0000           -0.4991649             -13.5830 (HOMO)
        28                         -0.4200840             -11.4311 (LUMO)
        29                         -0.3137845              -8.5385
        30                         -0.2901451              -7.8952
        31                         -0.2694920              -7.3333
        32                         -0.1664414              -4.5291
       ...                                ...                  ...
        57                          0.5025953              13.6763
      -------------------------------------------------------------
                  HL-Gap            0.0790809 Eh            2.1519 eV
             Fermi-level           -0.4596245 Eh          -12.5070 eV

 SCC (total)                   0 d,  0 h,  0 min,  0.076 sec
 SCC setup                      ...        0 min,  0.001 sec (  0.946%)
 Dispersion                     ...        0 min,  0.000 sec (  0.131%)
 classical contributions        ...        0 min,  0.000 sec (  0.063%)
 integral evaluation            ...        0 min,  0.009 sec ( 11.529%)
 iterations                     ...        0 min,  0.009 sec ( 11.177%)
 molecular gradient             ...        0 min,  0.058 sec ( 75.832%)
 printout                       ...        0 min,  0.000 sec (  0.274%)

         :::::::::::::::::::::::::::::::::::::::::::::::::::::
         ::                     SUMMARY                     ::
         :::::::::::::::::::::::::::::::::::::::::::::::::::::
         :: total energy             -33.407804086364 Eh    ::
         :: total w/o Gsasa/hb       -33.397868865426 Eh    ::
         :: gradient norm              0.083983288761 Eh/a0 ::
         :: HOMO-LUMO gap              2.151899793942 eV    ::
         ::.................................................::
         :: SCC energy               -33.669147809916 Eh    ::
         :: -> electrostatic           0.172466633846 Eh    ::
         :: -> Gsolv                  -0.077740714425 Eh    ::
         ::    -> Gelec               -0.067805493487 Eh    ::
         ::    -> Gsasa               -0.015588112223 Eh    ::
         ::    -> Ghb                 -0.001971387720 Eh    ::
         ::    -> Gshift               0.007624279005 Eh    ::
         :: repulsion energy           0.268462619752 Eh    ::
         :: dispersion energy         -0.007118896200 Eh    ::
         :: halogen bond corr.         0.000000000000 Eh    ::
         :: add. restraining           0.000000000000 Eh    ::
         :: total charge               1.000000000000 e     ::
         :::::::::::::::::::::::::::::::::::::::::::::::::::::

      ----------------------------------------------------------- 
     |                   =====================                   |
     |                        A N C O P T                        |
     |                   =====================                   |
     |               Approximate Normal Coordinate               |
     |                Rational Function Optimizer                |
      ----------------------------------------------------------- 

          ...................................................
          :                      SETUP                      :
          :.................................................:
          :   optimization level            normal          :
          :   max. optcycles                   200          :
          :   ANC micro-cycles                  20          :
          :   degrees of freedom                42          :
          :.................................................:
          :   RF solver                   davidson          :
          :   write xtbopt.log                true          :
          :   linear?                        false          :
          :   energy convergence         0.5000000E-05 Eh   :
          :   grad. convergence          0.1000000E-02 Eh/α :
          :   maximium RF displ.         1.0000000          :
          :   Hlow (freq-cutoff)         0.1000000E-01      :
          :   Hmax (freq-cutoff)         5.0000000          :
          :   S6 in model hess.         20.0000000          :
          ...................................................

generating ANC from model Hessian ...
Using Lindh-Hessian (1995)
 Shifting diagonal of input Hessian by   7.632839518456223E-003
 Lowest  eigenvalues of input Hessian
    0.000000    0.000000    0.000000    0.000000    0.000000    0.000000
    0.010000    0.011307    0.011734    0.015823    0.024018    0.024760
    0.033213    0.045290    0.054476    0.056847    0.079391    0.087196
 Highest eigenvalues
    1.602632    1.672395    1.890497    1.901096    2.073600    2.171572
 

........................................................................
.............................. CYCLE    1 ..............................
........................................................................
   1    -33.6691478 -0.336691E+02  0.350E-06    2.15       0.0  T
   2    -33.6691478 -0.923706E-13  0.167E-06    2.15   14989.7  T
   3    -33.6691478  0.497380E-13  0.840E-07    2.15   29763.9  T
     SCC iter.                  ...        0 min,  0.002 sec
     gradient                   ...        0 min,  0.030 sec
 * total energy  :   -33.4078041 Eh     change       -0.3673506E-11 Eh
   gradient norm :     0.0839831 Eh/α   predicted     0.0000000E+00 (-100.00%)
   displ. norm   :     0.2571361 α      lambda       -0.1081559E-01
   maximum displ.:     0.1312960 α      in ANC's #10, #9, #11, ...

........................................................................
.............................. CYCLE    2 ..............................
........................................................................
   1    -33.6847875 -0.336848E+02  0.111E-01    2.38       0.0  T
   2    -33.6849858 -0.198334E-03  0.796E-02    2.30       1.0  T
   3    -33.6850551 -0.692802E-04  0.359E-02    2.32       1.0  T
   4    -33.6850547  0.338931E-06  0.852E-03    2.32       2.9  T
   5    -33.6850555 -0.717422E-06  0.184E-03    2.32      13.6  T
   6    -33.6850555 -0.498355E-07  0.462E-04    2.32      54.1  T
   7    -33.6850555 -0.690875E-09  0.193E-04    2.32     129.7  T
   8    -33.6850555 -0.110880E-09  0.496E-05    2.32     504.4  T
     SCC iter.                  ...        0 min,  0.005 sec
     gradient                   ...        0 min,  0.032 sec
 * total energy  :   -33.4156166 Eh     change       -0.7812484E-02 Eh
   gradient norm :     0.0395338 Eh/α   predicted    -0.5765351E-02 ( -26.20%)
   displ. norm   :     0.2727936 α      lambda       -0.4100228E-02
   maximum displ.:     0.1411321 α      in ANC's #3, #2, #10, ...

........................................................................
.............................. CYCLE    3 ..............................
........................................................................
   1    -33.6939939 -0.336940E+02  0.993E-02    2.51       0.0  T
   2    -33.6941774 -0.183496E-03  0.662E-02    2.42       1.0  T
   3    -33.6942306 -0.532387E-04  0.287E-02    2.44       1.0  T
   4    -33.6942308 -0.131338E-06  0.875E-03    2.44       2.9  T
   5    -33.6942311 -0.288560E-06  0.228E-03    2.44      11.0  T
   6    -33.6942311 -0.619994E-07  0.451E-04    2.44      55.4  T
   7    -33.6942311 -0.611323E-09  0.185E-04    2.44     135.1  T
   8    -33.6942311 -0.101828E-09  0.551E-05    2.44     453.4  T
     SCC iter.                  ...        0 min,  0.006 sec
     gradient                   ...        0 min,  0.031 sec
 * total energy  :   -33.4177854 Eh     change       -0.2168863E-02 Eh
   gradient norm :     0.0148521 Eh/α   predicted    -0.2202675E-02 (   1.56%)
   displ. norm   :     0.1264768 α      lambda       -0.3701091E-03
   maximum displ.:     0.0882641 α      in ANC's #3, #2, #6, ...

........................................................................
.............................. CYCLE    4 ..............................
........................................................................
   1    -33.6943919 -0.336944E+02  0.200E-02    2.45       0.0  T
   2    -33.6943963 -0.437640E-05  0.647E-03    2.44       3.9  T
   3    -33.6943967 -0.419511E-06  0.336E-03    2.44       7.4  T
   4    -33.6943968 -0.894814E-07  0.143E-03    2.44      17.5  T
   5    -33.6943968 -0.552717E-09  0.630E-04    2.44      39.7  T
   6    -33.6943968 -0.256708E-08  0.683E-05    2.44     366.2  T
   7    -33.6943968 -0.253735E-10  0.332E-05    2.44     751.9  T
     SCC iter.                  ...        0 min,  0.005 sec
     gradient                   ...        0 min,  0.018 sec
 * total energy  :   -33.4180727 Eh     change       -0.2872781E-03 Eh
   gradient norm :     0.0088363 Eh/α   predicted    -0.1880169E-03 ( -34.55%)
   displ. norm   :     0.1722934 α      lambda       -0.3107220E-03
   maximum displ.:     0.1171398 α      in ANC's #3, #2, #6, ...

........................................................................
.............................. CYCLE    5 ..............................
........................................................................
   1    -33.6945966 -0.336946E+02  0.241E-02    2.45       0.0  T
   2    -33.6946042 -0.767159E-05  0.932E-03    2.43       2.7  T
   3    -33.6946053 -0.109187E-05  0.411E-03    2.44       6.1  T
   4    -33.6946055 -0.143876E-06  0.179E-03    2.44      13.9  T
   5    -33.6946055 -0.192717E-08  0.777E-04    2.44      32.2  T
   6    -33.6946055 -0.301327E-08  0.820E-05    2.44     304.9  T
   7    -33.6946055 -0.387388E-10  0.455E-05    2.44     549.5  T
     SCC iter.                  ...        0 min,  0.005 sec
     gradient                   ...        0 min,  0.018 sec
 * total energy  :   -33.4182541 Eh     change       -0.1813523E-03 Eh
   gradient norm :     0.0036873 Eh/α   predicted    -0.1599739E-03 ( -11.79%)
   displ. norm   :     0.0562703 α      lambda       -0.3070197E-04
   maximum displ.:     0.0359954 α      in ANC's #3, #2, #6, ...

........................................................................
.............................. CYCLE    6 ..............................
........................................................................
   1    -33.6948489 -0.336948E+02  0.653E-03    2.44       0.0  T
   2    -33.6948500 -0.113013E-05  0.372E-03    2.43       6.7  T
   3    -33.6948502 -0.212037E-06  0.119E-03    2.44      21.0  T
   4    -33.6948502 -0.153093E-08  0.717E-04    2.43      34.9  T
   5    -33.6948502 -0.117454E-08  0.172E-04    2.43     145.3  T
   6    -33.6948502 -0.820890E-10  0.306E-05    2.43     816.8  T
     SCC iter.                  ...        0 min,  0.004 sec
     gradient                   ...        0 min,  0.031 sec
 * total energy  :   -33.4182754 Eh     change       -0.2130476E-04 Eh
   gradient norm :     0.0026197 Eh/α   predicted    -0.1539882E-04 ( -27.72%)
   displ. norm   :     0.0345849 α      lambda       -0.1423018E-04
   maximum displ.:     0.0214493 α      in ANC's #6, #3, #2, ...

........................................................................
.............................. CYCLE    7 ..............................
........................................................................
   1    -33.6950888 -0.336951E+02  0.557E-03    2.44       0.0  T
   2    -33.6950895 -0.719998E-06  0.254E-03    2.43       9.8  T
   3    -33.6950896 -0.692105E-07  0.104E-03    2.43      24.1  T
   4    -33.6950896 -0.980336E-09  0.676E-04    2.43      37.0  T
   5    -33.6950896 -0.138274E-08  0.568E-05    2.43     439.9  T
   6    -33.6950896 -0.432152E-10  0.109E-05    2.43    2284.5  T
     SCC iter.                  ...        0 min,  0.017 sec
     gradient                   ...        0 min,  0.026 sec
 * total energy  :   -33.4182840 Eh     change       -0.8672540E-05 Eh
   gradient norm :     0.0010432 Eh/α   predicted    -0.7125562E-05 ( -17.84%)
   displ. norm   :     0.0131114 α      lambda       -0.2222245E-05
   maximum displ.:     0.0106100 α      in ANC's #6, #4, #7, ...

........................................................................
.............................. CYCLE    8 ..............................
........................................................................
   1    -33.6951263 -0.336951E+02  0.317E-03    2.43       0.0  T
   2    -33.6951265 -0.150762E-06  0.882E-04    2.43      28.3  T
   3    -33.6951265 -0.382666E-08  0.462E-04    2.43      54.1  T
   4    -33.6951265 -0.216147E-09  0.234E-04    2.43     106.7  T
   5    -33.6951265 -0.853149E-10  0.337E-05    2.43     741.4  T
   6    -33.6951265 -0.724754E-11  0.130E-05    2.43    1920.8  T
     SCC iter.                  ...        0 min,  0.004 sec
     gradient                   ...        0 min,  0.018 sec
 * total energy  :   -33.4182856 Eh     change       -0.1559428E-05 Eh
   gradient norm :     0.0004493 Eh/α   predicted    -0.1112728E-05 ( -28.65%)
   displ. norm   :     0.0068595 α      lambda       -0.4075487E-06
   maximum displ.:     0.0039388 α      in ANC's #2, #4, #3, ...

   *** GEOMETRY OPTIMIZATION CONVERGED AFTER 8 ITERATIONS ***

------------------------------------------------------------------------
 total energy gain   :        -0.0104815 Eh       -6.5772 kcal/mol
 total RMSD          :         0.2050879 a0        0.1085 Å
 total power (kW/mol):        -3.4399013 (step)  -70.1378 (real)
------------------------------------------------------------------------

 ANCopt (total)                0 d,  0 h,  0 min,  0.392 sec
 optimizer setup                ...        0 min,  0.001 sec (  0.181%)
 model hessian                  ...        0 min,  0.003 sec (  0.726%)
 ANC generation                 ...        0 min,  0.000 sec (  0.115%)
 coordinate transformation      ...        0 min,  0.000 sec (  0.024%)
 single point calculation       ...        0 min,  0.366 sec ( 93.307%)
 optimization log               ...        0 min,  0.020 sec (  5.214%)
 hessian update                 ...        0 min,  0.000 sec (  0.022%)
 rational function              ...        0 min,  0.001 sec (  0.271%)

================
 final structure:
================
16
 xtb: 6.5.1 (579679a)
C            2.99436711431215        0.85519348951455       -0.20272774785604
O            2.51129099660501       -0.41010896252759       -0.68540433791051
C            1.28443773665290       -0.77809902905478       -0.67748879037086
Cl           0.96168235390043       -2.29020233976199       -1.28998574491071
C            0.22930531411185        0.03379091410027       -0.18188610495862
N            0.28510812247386        1.25101157120311        0.33012940987879
N           -0.94984233574083        1.60223213690634        0.64871206611579
C           -1.74001779146806        0.59297059923315        0.32707290951407
C           -3.19662305589394        0.50566890202833        0.50669040488171
O           -1.04717322305580       -0.40904116891896       -0.19575263873247
H            2.73756744449898        0.96501674634226        0.85150197478484
H            4.07226908036798        0.82802747680478       -0.34796587179285
H            2.53637661899742        1.66168005201124       -0.77659927064306
H           -3.41199966948775        0.01036341348432        1.45641450551522
H           -3.63009778006847        1.50350016255190        0.52889419289170
H           -3.63664992620574       -0.08931296391690       -0.29160395640699
 
 Bond Distances (Angstroems)
 ---------------------------
C1-O2=1.4378         C1-H11=1.0906        C1-H12=1.0880        C1-H13=1.0906        O2-C1=1.4378         O2-C3=1.2809         
C3-O2=1.2809         C3-Cl4=1.6631        C3-C5=1.4206         Cl4-C3=1.6631        C5-C3=1.4206         C5-N6=1.3217         
C5-O10=1.3512        N6-C5=1.3217         N6-N7=1.3229         N7-N6=1.3229         N7-C8=1.3215         C8-N7=1.3215         
C8-C9=1.4702         C8-O10=1.3257        C9-C8=1.4702         C9-H14=1.0926        C9-H15=1.0881        C9-H16=1.0885        
O10-C5=1.3512        O10-C8=1.3257        H11-C1=1.0906        H12-C1=1.0880        H13-C1=1.0906        H14-C9=1.0926        
H15-C9=1.0881        H16-C9=1.0885        
 C  H  Rav=1.0897 sigma=0.0017  Rmin=1.0880  Rmax=1.0926     6
 C  C  Rav=1.4454 sigma=0.0248  Rmin=1.4206  Rmax=1.4702     2
 N  C  Rav=1.3216 sigma=0.0001  Rmin=1.3215  Rmax=1.3217     2
 N  N  Rav=1.3229 sigma=0.0000  Rmin=1.3229  Rmax=1.3229     1
 O  C  Rav=1.3489 sigma=0.0572  Rmin=1.2809  Rmax=1.4378     4
 Cl C  Rav=1.6631 sigma=0.0000  Rmin=1.6631  Rmax=1.6631     1
 
 selected bond angles (degree)
 --------------------
H11-C1-O2=109.51               H12-C1-O2=105.43               H12-C1-H11=111.40              H13-C1-O2=109.45               
H13-C1-H11=109.59              H13-C1-H12=111.36              C3-O2-C1=124.93                Cl4-C3-O2=116.41               
C5-C3-O2=123.32                C5-C3-Cl4=120.26               N6-C5-C3=129.06                O10-C5-C3=120.72               
O10-C5-N6=110.22               N7-N6-C5=107.36                C8-N7-N6=107.27                C9-C8-N7=127.44                
O10-C8-N7=111.15               O10-C8-C9=121.41               H14-C9-C8=109.17               H15-C9-C8=110.04               
H15-C9-H14=108.63              H16-C9-C8=110.08               H16-C9-H14=108.06              H16-C9-H15=110.80              
C8-O10-C5=104.00               
 
 selected dihedral angles (degree)
 ---------------------------------
C3-O2-C1-H11= 59.36           C3-O2-C1-H12=179.32           C3-O2-C1-H13=299.20           Cl4-C3-O2-C1=179.97           
C5-C3-O2-C1=  0.00            N6-C5-C3-O2=  0.39            N6-C5-C3-Cl4=180.44           O10-C5-C3-O2=180.17           
O10-C5-C3-Cl4=  0.23          N7-N6-C5-C3=179.77            N7-N6-C5-O10=359.96           C8-N7-N6-C5=  0.05            
C9-C8-N7-N6=179.22            O10-C8-N7-N6=359.94           H14-C9-C8-N7=265.96           H14-C9-C8-O10= 85.17          
H15-C9-C8-N7= 25.09           H15-C9-C8-O10=204.30          H16-C9-C8-N7=147.50           H16-C9-C8-O10=326.70          
C8-O10-C5-C3=180.18           C8-O10-C5-N6=  0.00           C5-O10-C8-N7=  0.03           C5-O10-C8-C9=180.71           
           -------------------------------------------------
          |                Final Singlepoint                |
           -------------------------------------------------

          ...................................................
          :                      SETUP                      :
          :.................................................:
          :  # basis functions                  58          :
          :  # atomic orbitals                  57          :
          :  # shells                           33          :
          :  # electrons                        54          :
          :  # halogen bonds                     4          :
          :  max. iterations                   250          :
          :  Hamiltonian                  GFN1-xTB          :
          :  restarted?                      false          :
          :  GBSA solvation                   true          :
          :  PC potential                    false          :
          :  electronic temp.          300.0000000     K    :
          :  accuracy                    1.0000000          :
          :  -> integral cutoff          0.2500000E+02      :
          :  -> integral neglect         0.1000000E-07      :
          :  -> SCF convergence          0.1000000E-05 Eh   :
          :  -> wf. convergence          0.2000000E-04 e    :
          :  Broyden damping             0.4000000          :
          ...................................................

 iter      E             dE          RMSdq      gap      omega  full diag
   1    -33.6951265 -0.336951E+02  0.441E-06    2.43       0.0  T
   2    -33.6951265 -0.213163E-13  0.255E-06    2.43    9804.9  T
   3    -33.6951265 -0.710543E-14  0.116E-06    2.43   21530.2  T

   *** convergence criteria satisfied after 3 iterations ***

         #    Occupation            Energy/Eh            Energy/eV
      -------------------------------------------------------------
         1        2.0000           -1.0162049             -27.6523
       ...           ...                  ...                  ...
        21        2.0000           -0.5610318             -15.2665
        22        2.0000           -0.5598169             -15.2334
        23        2.0000           -0.5375681             -14.6280
        24        2.0000           -0.5341919             -14.5361
        25        2.0000           -0.5254957             -14.2995
        26        2.0000           -0.5047049             -13.7337
        27        2.0000           -0.5013428             -13.6422 (HOMO)
        28                         -0.4118966             -11.2083 (LUMO)
        29                         -0.3066913              -8.3455
        30                         -0.2849409              -7.7536
        31                         -0.2644163              -7.1951
        32                         -0.1703921              -4.6366
       ...                                ...                  ...
        57                          0.5362505              14.5921
      -------------------------------------------------------------
                  HL-Gap            0.0894462 Eh            2.4340 eV
             Fermi-level           -0.4566197 Eh          -12.4253 eV

 SCC (total)                   0 d,  0 h,  0 min,  0.022 sec
 SCC setup                      ...        0 min,  0.000 sec (  2.297%)
 Dispersion                     ...        0 min,  0.000 sec (  0.278%)
 classical contributions        ...        0 min,  0.000 sec (  0.112%)
 integral evaluation            ...        0 min,  0.008 sec ( 38.466%)
 iterations                     ...        0 min,  0.002 sec (  7.376%)
 molecular gradient             ...        0 min,  0.011 sec ( 50.559%)
 printout                       ...        0 min,  0.000 sec (  0.757%)

         :::::::::::::::::::::::::::::::::::::::::::::::::::::
         ::                     SUMMARY                     ::
         :::::::::::::::::::::::::::::::::::::::::::::::::::::
         :: total energy             -33.418285599987 Eh    ::
         :: total w/o Gsasa/hb       -33.408190677687 Eh    ::
         :: gradient norm              0.000449828551 Eh/a0 ::
         :: HOMO-LUMO gap              2.433953747788 eV    ::
         ::.................................................::
         :: SCC energy               -33.695126462416 Eh    ::
         :: -> electrostatic           0.174683580341 Eh    ::
         :: -> Gsolv                  -0.078381443525 Eh    ::
         ::    -> Gelec               -0.068286521224 Eh    ::
         ::    -> Gsasa               -0.015712186588 Eh    ::
         ::    -> Ghb                 -0.002007014717 Eh    ::
         ::    -> Gshift               0.007624279005 Eh    ::
         :: repulsion energy           0.283948043877 Eh    ::
         :: dispersion energy         -0.007107181449 Eh    ::
         :: halogen bond corr.         0.000000000000 Eh    ::
         :: add. restraining           0.000000000000 Eh    ::
         :: total charge               1.000000000000 e     ::
         :::::::::::::::::::::::::::::::::::::::::::::::::::::

           -------------------------------------------------
          |                Property Printout                |
           -------------------------------------------------

    * Orbital Energies and Occupations

         #    Occupation            Energy/Eh            Energy/eV
      -------------------------------------------------------------
         1        2.0000           -1.0162049             -27.6523
       ...           ...                  ...                  ...
        15        2.0000           -0.6383659             -17.3708
        16        2.0000           -0.5978602             -16.2686
        17        2.0000           -0.5843904             -15.9021
        18        2.0000           -0.5827475             -15.8574
        19        2.0000           -0.5727328             -15.5849
        20        2.0000           -0.5628030             -15.3146
        21        2.0000           -0.5610318             -15.2665
        22        2.0000           -0.5598169             -15.2334
        23        2.0000           -0.5375681             -14.6280
        24        2.0000           -0.5341919             -14.5361
        25        2.0000           -0.5254957             -14.2995
        26        2.0000           -0.5047049             -13.7337
        27        2.0000           -0.5013428             -13.6422 (HOMO)
        28                         -0.4118966             -11.2083 (LUMO)
        29                         -0.3066913              -8.3455
        30                         -0.2849409              -7.7536
        31                         -0.2644163              -7.1951
        32                         -0.1703921              -4.6366
        33                         -0.1620448              -4.4095
        34                         -0.1403320              -3.8186
        35                         -0.1402397              -3.8161
        36                         -0.1389197              -3.7802
        37                         -0.1103016              -3.0015
        38                         -0.1007080              -2.7404
       ...                                ...                  ...
        57                          0.5362505              14.5921
      -------------------------------------------------------------
                  HL-Gap            0.0894462 Eh            2.4340 eV
             Fermi-level           -0.4566197 Eh          -12.4253 eV

  Mulliken/CM5 charges         n(s)   n(p)   n(d)
     1C     0.14774  0.02728   1.003  2.849  0.000
     2O    -0.32044 -0.41073   1.660  4.661  0.000
     3C     0.40800  0.44327   1.039  2.553  0.000
     4Cl    0.20250  0.20848   1.932  4.880 -0.015
     5C     0.32632  0.44164   0.981  2.692  0.000
     6N    -0.14671 -0.25662   1.561  3.586  0.000
     7N    -0.19754 -0.30066   1.552  3.646  0.000
     8C     0.42791  0.53264   1.027  2.546  0.000
     9C    -0.11204 -0.24921   1.017  3.095  0.000
    10O    -0.31912 -0.37340   1.686  4.633  0.000
    11H     0.08588  0.15024   0.914  0.000  0.000
    12H     0.10064  0.16123   0.899  0.000  0.000
    13H     0.08646  0.15059   0.914  0.000  0.000
    14H     0.11266  0.16673   0.887  0.000  0.000
    15H     0.09635  0.15179   0.904  0.000  0.000
    16H     0.10138  0.15674   0.899  0.000  0.000

Wiberg/Mayer (AO) data.
largest (>0.10) Wiberg bond orders for each atom

 ---------------------------------------------------------------------------
     #   Z sym  total        # sym  WBO       # sym  WBO       # sym  WBO
 ---------------------------------------------------------------------------
     1   6 C    3.809 --    12 H    0.977    11 H    0.964    13 H    0.964
                             2 O    0.842
     2   8 O    2.343 --     3 C    1.300     1 C    0.842
     3   6 C    3.886 --     2 O    1.300     4 Cl   1.228     5 C    1.182
     4  17 Cl   1.461 --     3 C    1.228
     5   6 C    3.887 --     6 N    1.449     3 C    1.182    10 O    1.040
     6   7 N    3.042 --     5 C    1.449     7 N    1.341
     7   7 N    2.999 --     8 C    1.454     6 N    1.341
     8   6 C    3.843 --     7 N    1.454    10 O    1.131     9 C    1.050
     9   6 C    3.971 --     8 C    1.050    15 H    0.970    16 H    0.965
                            14 H    0.933
    10   8 O    2.353 --     8 C    1.131     5 C    1.040
    11   1 H    1.003 --     1 C    0.964
    12   1 H    0.998 --     1 C    0.977
    13   1 H    1.003 --     1 C    0.964
    14   1 H    0.985 --     9 C    0.933
    15   1 H    0.990 --     9 C    0.970
    16   1 H    0.989 --     9 C    0.965
 ---------------------------------------------------------------------------

Topologies differ in total number of bonds
Writing topology from bond orders to xtbtopo.mol

 dipole moment from electron density (au)
     X       Y       Z   
   0.4314  -0.9892  -0.7348  total (Debye):    3.318

           -------------------------------------------------
          |                Geometry Summary                 |
           -------------------------------------------------

      molecular mass/u    :      161.5664778
   center of mass at/Å    :        0.2582136      -0.2159512      -0.2935760
  moments of inertia/u·Å² :        0.2622260E+03   0.5985980E+03   0.8544881E+03
rotational constants/cm⁻¹ :        0.6428667E-01   0.2816186E-01   0.1972834E-01

 * 15 selected distances

     #   Z          #   Z                                           value/Å
     1   6 C        2   8 O                                       1.4378212
     2   8 O        3   6 C                                       1.2808780
     3   6 C        4  17 Cl                                      1.6630636 (max)
     3   6 C        5   6 C                                       1.4205957
     5   6 C        6   7 N                                       1.3217036
     7   7 N        8   6 C                                       1.3215287
     8   6 C        9   6 C                                       1.4702324
     5   6 C       10   8 O                                       1.3511811
     8   6 C       10   8 O                                       1.3256727
     1   6 C       11   1 H                                       1.0905997
     1   6 C       12   1 H                                       1.0879821 (min)
     1   6 C       13   1 H                                       1.0906441
     9   6 C       14   1 H                                       1.0925615
     9   6 C       15   1 H                                       1.0881456
     9   6 C       16   1 H                                       1.0885317

 * 5 distinct bonds (by element types)

   Z      Z             #   av. dist./Å        max./Å        min./Å
   1 H    6 C           6     1.0897441     1.0925615     1.0879821
   6 C    6 C           2     1.4454140     1.4702324     1.4205957
   6 C    7 N           2     1.3216161     1.3217036     1.3215287
   6 C    8 O           4     1.3488883     1.4378212     1.2808780
   6 C   17 Cl          1     1.6630636     1.6630636     1.6630636


optimized geometry written to: xtbopt.xyz


           -------------------------------------------------
          | TOTAL ENERGY              -33.418285599987 Eh   |
          | GRADIENT NORM               0.000449828551 Eh/α |
          | HOMO-LUMO GAP               2.433953747788 eV   |
           -------------------------------------------------

------------------------------------------------------------------------
 * finished run on 2023/06/20 at 14:55:32.282     
------------------------------------------------------------------------
 total:
 * wall-time:     0 d,  0 h,  0 min,  0.562 sec
 *  cpu-time:     0 d,  0 h,  0 min,  0.327 sec
 * ratio c/w:     0.581 speedup
 SCF:
 * wall-time:     0 d,  0 h,  0 min,  0.077 sec
 *  cpu-time:     0 d,  0 h,  0 min,  0.036 sec
 * ratio c/w:     0.473 speedup
 ANC optimizer:
 * wall-time:     0 d,  0 h,  0 min,  0.432 sec
 *  cpu-time:     0 d,  0 h,  0 min,  0.276 sec
 * ratio c/w:     0.638 speedup

