42
 energy: -83.656219975656 gnorm: 0.000397578841 xtb: 6.5.1 (579679a)
C           -6.98927308117661       -1.00118729623601       -0.07411533266646
O           -5.70922976094647       -0.67665116362371        0.45588298833894
C           -4.74809178867970       -0.39270458486183       -0.44403102561686
O           -4.97481420997958       -0.40355874339590       -1.63984583485416
C           -3.43523940793216       -0.08684563552646        0.16275609070392
N           -2.43491933283520        0.15905297066734       -0.73810386299628
C           -1.22858116190920        0.41147453529194       -0.26924975949655
C           -0.16430216300629        0.69387619713568       -1.32884852274892
C           -0.49782068245718        2.05666083648877       -1.96245738655814
C           -0.21687573184139       -0.41530393015851       -2.39602104357789
N            1.13974415014225        0.74071553451674       -0.68514528631521
C            2.32042210443591        0.82837089990760       -1.40949728574043
O            2.34565322538281        1.25167920801706       -2.58879115412524
C            3.48197233110749        0.44786706073980       -0.68823694593599
N            4.73108878395198        0.46644762573734       -1.12268469651145
N            5.55351498079229        0.00150791127291       -0.22318074606112
C            4.75174369139252       -0.38406201787264        0.94940656582652
C            4.90279359330436       -1.89505451966115        1.20405679432984
C            5.20712551549113        0.41974503708651        2.18001901612337
O            3.40544761619421       -0.06982956710971        0.62428167016751
N           -0.86284280431364        0.47363521845519        1.01091533685988
C           -1.79959154619352        0.26486397787065        1.96159317670135
O           -1.58347856625303        0.31360530956775        3.19212317561372
C           -3.15752321484107       -0.03851312995721        1.50440022036035
O           -4.05279071241062       -0.25199688892317        2.49890671851574
H           -6.92669896591254       -1.89059421527321       -0.70769068235670
H           -7.64382543129741       -1.19475853910692        0.77372632435361
H           -7.38194243510247       -0.17016514232322       -0.66694976323867
H           -1.51886538915801        2.03754510556454       -2.34349103486500
H            0.18310079603426        2.27853607945311       -2.78314948479075
H           -0.41632261519034        2.84284027211822       -1.21153279841072
H            0.06698982795186       -1.37112233050086       -1.95527571085280
H            0.45928826043168       -0.18944233752979       -3.21977569605067
H           -1.23277014630922       -0.49548871051333       -2.78238139057015
H            1.19217603705931        0.24160675419870        0.19705827367322
H            4.57048742913172       -2.44327061612063        0.32373472369981
H            4.30368684993497       -2.19954337755869        2.06072009683161
H            5.94806976358714       -2.13010256812269        1.39349971541645
H            6.26058123994208        0.22647789526199        2.37131752882262
H            5.07112495750239        1.48305160310100        1.98765563292893
H            4.62508742445307        0.13817599739926        3.05605877561494
H           -3.54429543047457       -0.14433071547366        3.33234361945139
