42
 energy: -83.614897771635 gnorm: 0.000485523376 xtb: 6.5.1 (579679a)
C           -3.60135926920477        2.78255398364442        2.12954026591717
O           -3.55977836981322        1.73057475393889        1.19181245375244
C           -2.29040011620369        1.14335085130489        1.01390099391654
O           -1.33974659727768        1.61733702232493        1.67764144080929
C           -2.23934927976071        0.05522447293253        0.13328869407389
N           -0.95803553736527       -0.42700118803353       -0.05183721112531
C           -0.71576026819611       -1.48983017060828       -0.72589084509985
C            0.71402086070406       -1.94637551404820       -0.96003729460002
C            1.00363035315637       -3.26803153683821       -0.22879341753736
C            0.99744691073332       -2.09290181022992       -2.46308146749576
N            1.55120795088744       -0.88779512457294       -0.39685572652448
C            2.88595334377002       -0.85809469442240       -0.41791474518471
O            3.61985039400324       -1.70543835938273       -0.91927633557964
C            3.40887987495794        0.36820503506911        0.24408466023567
N            2.69967769688577        1.32385294822311        0.76727076744550
N            3.57924798292128        2.25079175403950        1.24822460210147
C            4.76623608739599        1.80352496545414        0.98741236006119
C            6.06112530634952        2.44413200899124        1.30858575973373
O            4.73215278824129        0.61973733469510        0.35376356507338
N           -1.74077065462699       -2.30643044213391       -1.23822610862190
C           -3.05583592948074       -2.00101663965563       -1.00024424035840
O           -3.90085876717860       -2.90086425247545       -1.08932094867207
C           -3.36311070090534       -0.47344065613675       -0.81570367971416
C           -4.76702001156366       -0.40617261048808       -0.12138020881717
O           -3.35471498325280        0.08861088658050       -2.03522360562124
H           -3.28809120826466        2.44609607207131        3.12690049392099
H           -4.63271899254850        3.13642138676455        2.18286204122234
H           -2.95271943969940        3.61730780449169        1.83124615486255
H            2.04294373692426       -3.56014874536315       -0.36993243667702
H            0.36577540059541       -4.05618960043235       -0.62403586297613
H            0.80787042559488       -3.15572867101927        0.83710460177595
H            2.01203478572301       -2.45052283179559       -2.62820413465599
H            0.30109724717129       -2.80886281391238       -2.89632413877514
H            0.87482800844321       -1.13205281103418       -2.96306987988087
H            1.03072538837084       -0.14724789139660        0.08594213919068
H            5.88832090494490        3.34402101138874        1.89328568704575
H            6.68868784537408        1.75632064244701        1.87380995513125
H            6.58911628215277        2.70503913008594        0.39146033177006
H           -1.53053983327848       -3.27344738016207       -1.41866788314466
H           -5.44916448006559       -1.08413221407492       -0.63745285156162
H           -5.16798234133509        0.60223658417305       -0.20657444443630
H           -4.71287179527710       -0.69118069040270        0.92990949902552
