      -----------------------------------------------------------      
     |                   =====================                   |     
     |                           x T B                           |     
     |                   =====================                   |     
     |                         S. Grimme                         |     
     |          Mulliken Center for Theoretical Chemistry        |     
     |                    University of Bonn                     |     
      -----------------------------------------------------------      

   * xtb version 6.5.1 (579679a) compiled by 'ehlert@majestix' on 2022-07-11

   xtb is free software: you can redistribute it and/or modify it under
   the terms of the GNU Lesser General Public License as published by
   the Free Software Foundation, either version 3 of the License, or
   (at your option) any later version.
   
   xtb is distributed in the hope that it will be useful,
   but WITHOUT ANY WARRANTY; without even the implied warranty of
   MERCHANTABILITY or FITNESS FOR A PARTICULAR PURPOSE.  See the
   GNU Lesser General Public License for more details.
   
   Cite this work as:
   * C. Bannwarth, E. Caldeweyher, S. Ehlert, A. Hansen, P. Pracht,
     J. Seibert, S. Spicher, S. Grimme, WIREs Comput. Mol. Sci., 2020, 11,
     e01493. DOI: 10.1002/wcms.1493
   
   for GFN2-xTB:
   * C. Bannwarth, S. Ehlert and S. Grimme., J. Chem. Theory Comput., 2019,
     15, 1652-1671. DOI: 10.1021/acs.jctc.8b01176
   for GFN1-xTB:
   * S. Grimme, C. Bannwarth, P. Shushkov, J. Chem. Theory Comput., 2017,
     13, 1989-2009. DOI: 10.1021/acs.jctc.7b00118
   for GFN0-xTB:
   * P. Pracht, E. Caldeweyher, S. Ehlert, S. Grimme, ChemRxiv, 2019, preprint.
     DOI: 10.26434/chemrxiv.8326202.v1
   for GFN-FF:
   * S. Spicher and S. Grimme, Angew. Chem. Int. Ed., 2020, 59, 15665-15673.
     DOI: 10.1002/anie.202004239
   
   for ALPB and GBSA implicit solvation:
   * S. Ehlert, M. Stahn, S. Spicher, S. Grimme, J. Chem. Theory Comput.,
     2021, 17, 4250-4261. DOI: 10.1021/acs.jctc.1c00471
   
   for DFT-D4:
   * E. Caldeweyher, C. Bannwarth and S. Grimme, J. Chem. Phys., 2017,
     147, 034112. DOI: 10.1063/1.4993215
   * E. Caldeweyher, S. Ehlert, A. Hansen, H. Neugebauer, S. Spicher,
     C. Bannwarth and S. Grimme, J. Chem. Phys., 2019, 150, 154122.
     DOI: 10.1063/1.5090222
   * E. Caldeweyher, J.-M. Mewes, S. Ehlert and S. Grimme, Phys. Chem. Chem. Phys.
     2020, 22, 8499-8512. DOI: 10.1039/D0CP00502A
   
   for sTDA-xTB:
   * S. Grimme and C. Bannwarth, J. Chem. Phys., 2016, 145, 054103.
     DOI: 10.1063/1.4959605
   
   in the mass-spec context:
   * V. Asgeirsson, C. Bauer and S. Grimme, Chem. Sci., 2017, 8, 4879.
     DOI: 10.1039/c7sc00601b
   * J. Koopman and S. Grimme, ACS Omega 2019, 4, 12, 15120-15133.
     DOI: 10.1021/acsomega.9b02011
   
   for metadynamics refer to:
   * S. Grimme, J. Chem. Theory Comput., 2019, 155, 2847-2862
     DOI: 10.1021/acs.jctc.9b00143
   
   for SPH calculations refer to:
   * S. Spicher and S. Grimme, J. Chem. Theory Comput., 2021, 17, 1701-1714
     DOI: 10.1021/acs.jctc.0c01306
   
   with help from (in alphabetical order)
   P. Atkinson, C. Bannwarth, F. Bohle, G. Brandenburg, E. Caldeweyher
   M. Checinski, S. Dohm, S. Ehlert, S. Ehrlich, I. Gerasimov, C. Hölzer
   A. Katbashev, J. Koopman, C. Lavigne, S. Lehtola, F. März, M. Müller,
   F. Musil, H. Neugebauer, J. Pisarek, C. Plett, P. Pracht, F. Pultar,
   J. Seibert, P. Shushkov, S. Spicher, M. Stahn, M. Steiner, T. Strunk,
   J. Stückrath, T. Rose, and J. Unsleber
   
 * started run on 2023/06/21 at 17:00:44.605     

           -------------------------------------------------
          |                Calculation Setup                |
           -------------------------------------------------

          program call               : /lustre/hpc/kemi/ree/PhD/git/ReactivityQM/dep/xtb-6.5.1/bin/xtb --gfn 1 /lustre/hpc/kemi/ree/PhD/git/ReactivityQM/calculations/R02oxygendeprot/reac01/conf04/R02oxygendeprot_reac01_conf04_gfn1.xyz --opt --vfukui --chrg -1 --uhf 0 --alpb DMSO
          hostname                   : node070
          coordinate file            : /lustre/hpc/kemi/ree/PhD/git/ReactivityQM/calculations/R02oxygendeprot/reac01/conf04/R02oxygendeprot_reac01_conf04_gfn1.xyz
          omp threads                :                     1

   ID    Z sym.   atoms
    1    6 C      1, 3, 5, 7-10, 12, 14, 17, 18, 21, 23
    2    8 O      2, 4, 13, 19, 22, 24
    3    7 N      6, 11, 15, 16, 20
    4    1 H      25-38

           -------------------------------------------------
          |                 G F N 1 - x T B                 |
           -------------------------------------------------

        Reference                      10.1021/acs.jctc.7b00118
      * Hamiltonian:
        H0-scaling (s, p, d)           1.850000    2.250000    2.000000
        zeta-weighting                 0.000000
      * Dispersion:
        s8                             2.400000
        a1                             0.630000
        a2                             5.000000
        s9                             0.000000
      * Repulsion:
        kExp                           1.500000
        rExp                           1.000000
      * Coulomb:
        alpha                          2.000000
        third order                    atomic
        anisotropic                    false
      * Halogen bond correction:
        rad-scale                      1.300000
        damping                        0.440000

      * Solvation model:               ALPB
        Solvent                        DMSO
        Parameter file                 internal GFN1-xTB/ALPB
        Dielectric constant                4.6680E+01
        Reference state                gsolv [1 M gas/solution]
        Free energy shift                  7.6243E-03 Eh       4.7843E+00 kcal/mol
        Temperature                        2.9815E+02 K
        Density                            1.1000E+00 kg/L
        Solvent mass                       7.8130E+01 g/mol
        Interaction kernel             P16
        Born radius scaling (c1)           1.7672E+00
        Born radii integrator          GBOBC
        Born offset                        0.0000E+00 a0       0.0000E+00 AA
        H-bond correction              true
        Ion screening                  false
        Surface tension                    1.0000E-05 Eh       1.5569E+01 dyn/cm
        Grid points                               230 per atom

          ...................................................
          :                      SETUP                      :
          :.................................................:
          :  # basis functions                 124          :
          :  # atomic orbitals                 124          :
          :  # shells                           76          :
          :  # electrons                       128          :
          :  # halogen bonds                     0          :
          :  max. iterations                   250          :
          :  Hamiltonian                  GFN1-xTB          :
          :  restarted?                      false          :
          :  GBSA solvation                   true          :
          :  PC potential                    false          :
          :  electronic temp.          300.0000000     K    :
          :  accuracy                    1.0000000          :
          :  -> integral cutoff          0.2500000E+02      :
          :  -> integral neglect         0.1000000E-07      :
          :  -> SCF convergence          0.1000000E-05 Eh   :
          :  -> wf. convergence          0.2000000E-04 e    :
          :  Broyden damping             0.4000000          :
          ...................................................

 iter      E             dE          RMSdq      gap      omega  full diag
   1    -79.9699043 -0.799699E+02  0.872E+00    2.67       0.0  T
   2    -80.3002931 -0.330389E+00  0.523E+00    1.84       1.0  T
   3    -80.2847418  0.155513E-01  0.181E+00    1.33       1.0  T
   4    -80.3199609 -0.352191E-01  0.217E-01    1.04       1.0  T
   5    -80.3215897 -0.162879E-02  0.572E-02    1.08       1.0  T
   6    -80.3216808 -0.911106E-04  0.178E-02    1.13       1.0  T
   7    -80.3216871 -0.631073E-05  0.409E-03    1.14       4.0  T
   8    -80.3216874 -0.254022E-06  0.928E-04    1.14      17.5  T
   9    -80.3216874 -0.178115E-07  0.420E-04    1.15      38.6  T
  10    -80.3216874 -0.112648E-08  0.147E-04    1.15     110.0  T
  11    -80.3216874 -0.139693E-09  0.411E-05    1.15     394.6  T

   *** convergence criteria satisfied after 11 iterations ***

         #    Occupation            Energy/Eh            Energy/eV
      -------------------------------------------------------------
         1        2.0000           -0.8594291             -23.3863
       ...           ...                  ...                  ...
        58        2.0000           -0.4418961             -12.0246
        59        2.0000           -0.4398685             -11.9694
        60        2.0000           -0.4344690             -11.8225
        61        2.0000           -0.4342961             -11.8178
        62        2.0000           -0.4162797             -11.3275
        63        2.0000           -0.3716949             -10.1143
        64        2.0000           -0.3552168              -9.6659 (HOMO)
        65                         -0.3131166              -8.5203 (LUMO)
        66                         -0.2674187              -7.2768
        67                         -0.2570423              -6.9945
        68                         -0.2388375              -6.4991
        69                         -0.1970830              -5.3629
       ...                                ...                  ...
       124                          0.8105842              22.0571
      -------------------------------------------------------------
                  HL-Gap            0.0421002 Eh            1.1456 eV
             Fermi-level           -0.3341667 Eh           -9.0931 eV

 SCC (total)                   0 d,  0 h,  0 min,  0.095 sec
 SCC setup                      ...        0 min,  0.001 sec (  1.122%)
 Dispersion                     ...        0 min,  0.000 sec (  0.210%)
 classical contributions        ...        0 min,  0.000 sec (  0.068%)
 integral evaluation            ...        0 min,  0.013 sec ( 13.949%)
 iterations                     ...        0 min,  0.031 sec ( 32.748%)
 molecular gradient             ...        0 min,  0.048 sec ( 50.760%)
 printout                       ...        0 min,  0.001 sec (  1.121%)

         :::::::::::::::::::::::::::::::::::::::::::::::::::::
         ::                     SUMMARY                     ::
         :::::::::::::::::::::::::::::::::::::::::::::::::::::
         :: total energy             -79.604158667904 Eh    ::
         :: total w/o Gsasa/hb       -79.584404204744 Eh    ::
         :: gradient norm              0.137115640260 Eh/a0 ::
         :: HOMO-LUMO gap              1.145604136043 eV    ::
         ::.................................................::
         :: SCC energy               -80.321687385579 Eh    ::
         :: -> electrostatic           0.467078200720 Eh    ::
         :: -> Gsolv                  -0.121310482924 Eh    ::
         ::    -> Gelec               -0.101556019764 Eh    ::
         ::    -> Gsasa               -0.023890058969 Eh    ::
         ::    -> Ghb                 -0.003488683196 Eh    ::
         ::    -> Gshift               0.007624279005 Eh    ::
         :: repulsion energy           0.740192266304 Eh    ::
         :: dispersion energy         -0.022663548629 Eh    ::
         :: halogen bond corr.         0.000000000000 Eh    ::
         :: add. restraining           0.000000000000 Eh    ::
         :: total charge              -1.000000000000 e     ::
         :::::::::::::::::::::::::::::::::::::::::::::::::::::

      ----------------------------------------------------------- 
     |                   =====================                   |
     |                        A N C O P T                        |
     |                   =====================                   |
     |               Approximate Normal Coordinate               |
     |                Rational Function Optimizer                |
      ----------------------------------------------------------- 

          ...................................................
          :                      SETUP                      :
          :.................................................:
          :   optimization level            normal          :
          :   max. optcycles                   200          :
          :   ANC micro-cycles                  20          :
          :   degrees of freedom               108          :
          :.................................................:
          :   RF solver                   davidson          :
          :   write xtbopt.log                true          :
          :   linear?                        false          :
          :   energy convergence         0.5000000E-05 Eh   :
          :   grad. convergence          0.1000000E-02 Eh/α :
          :   maximium RF displ.         1.0000000          :
          :   Hlow (freq-cutoff)         0.1000000E-01      :
          :   Hmax (freq-cutoff)         5.0000000          :
          :   S6 in model hess.         20.0000000          :
          ...................................................

generating ANC from model Hessian ...
Using Lindh-Hessian (1995)
 Shifting diagonal of input Hessian by   9.814670105223617E-003
 Lowest  eigenvalues of input Hessian
    0.000000    0.000000    0.000000    0.000000    0.000000    0.000000
    0.010000    0.010249    0.010647    0.011402    0.012044    0.012814
    0.013166    0.014399    0.015477    0.016480    0.017220    0.018882
 Highest eigenvalues
    2.077446    2.122313    2.237374    2.314206    2.321484    2.441194
 

........................................................................
.............................. CYCLE    1 ..............................
........................................................................
   1    -80.3216874 -0.803217E+02  0.117E-05    1.15       0.0  T
   2    -80.3216874 -0.184741E-11  0.592E-06    1.15    2739.8  T
   3    -80.3216874 -0.994760E-13  0.293E-06    1.15    5530.8  T
     SCC iter.                  ...        0 min,  0.013 sec
     gradient                   ...        0 min,  0.046 sec
 * total energy  :   -79.6041587 Eh     change       -0.3646505E-10 Eh
   gradient norm :     0.1371157 Eh/α   predicted     0.0000000E+00 (-100.00%)
   displ. norm   :     0.2707239 α      lambda       -0.1655449E-01
   maximum displ.:     0.1242242 α      in ANC's #23, #57, #24, ...

........................................................................
.............................. CYCLE    2 ..............................
........................................................................
   1    -80.3323524 -0.803324E+02  0.899E-02    1.41       0.0  T
   2    -80.3326763 -0.323956E-03  0.456E-02    1.40       1.0  T
   3    -80.3327312 -0.548444E-04  0.169E-02    1.40       1.0  T
   4    -80.3327313 -0.101855E-06  0.674E-03    1.40       2.4  T
   5    -80.3327315 -0.192834E-06  0.122E-03    1.40      13.3  T
   6    -80.3327315 -0.386053E-07  0.311E-04    1.40      52.1  T
   7    -80.3327315 -0.150075E-08  0.115E-04    1.40     141.4  T
   8    -80.3327315 -0.950564E-10  0.282E-05    1.40     575.9  T
     SCC iter.                  ...        0 min,  0.034 sec
     gradient                   ...        0 min,  0.048 sec
 * total energy  :   -79.6161354 Eh     change       -0.1197669E-01 Eh
   gradient norm :     0.0670170 Eh/α   predicted    -0.8893846E-02 ( -25.74%)
   displ. norm   :     0.2804742 α      lambda       -0.7290435E-02
   maximum displ.:     0.1383392 α      in ANC's #23, #9, #32, ...

........................................................................
.............................. CYCLE    3 ..............................
........................................................................
   1    -80.3438652 -0.803439E+02  0.837E-02    1.61       0.0  T
   2    -80.3441118 -0.246609E-03  0.360E-02    1.59       1.0  T
   3    -80.3441469 -0.350473E-04  0.126E-02    1.60       1.3  T
   4    -80.3441470 -0.126068E-06  0.533E-03    1.60       3.0  T
   5    -80.3441471 -0.977381E-07  0.944E-04    1.60      17.2  T
   6    -80.3441471 -0.159189E-07  0.250E-04    1.60      64.9  T
   7    -80.3441471 -0.112740E-08  0.102E-04    1.60     159.1  T
   8    -80.3441471 -0.724327E-10  0.272E-05    1.60     597.1  T
     SCC iter.                  ...        0 min,  0.034 sec
     gradient                   ...        0 min,  0.047 sec
 * total energy  :   -79.6203329 Eh     change       -0.4197542E-02 Eh
   gradient norm :     0.0177632 Eh/α   predicted    -0.3933041E-02 (  -6.30%)
   displ. norm   :     0.1767659 α      lambda       -0.8157041E-03
   maximum displ.:     0.0817811 α      in ANC's #9, #6, #23, ...

........................................................................
.............................. CYCLE    4 ..............................
........................................................................
   1    -80.3453917 -0.803454E+02  0.212E-02    1.62       0.0  T
   2    -80.3454071 -0.154617E-04  0.928E-03    1.62       1.7  T
   3    -80.3454091 -0.191571E-05  0.400E-03    1.62       4.1  T
   4    -80.3454091 -0.106706E-07  0.139E-03    1.62      11.7  T
   5    -80.3454091 -0.161739E-07  0.271E-04    1.63      59.9  T
   6    -80.3454091 -0.117799E-08  0.757E-05    1.63     214.4  T
   7    -80.3454091 -0.110717E-09  0.281E-05    1.62     577.1  T
     SCC iter.                  ...        0 min,  0.029 sec
     gradient                   ...        0 min,  0.048 sec
 * total energy  :   -79.6209352 Eh     change       -0.6023216E-03 Eh
   gradient norm :     0.0100244 Eh/α   predicted    -0.4206300E-03 ( -30.17%)
   displ. norm   :     0.2688037 α      lambda       -0.6544577E-03
   maximum displ.:     0.1354866 α      in ANC's #9, #6, #5, ...

........................................................................
.............................. CYCLE    5 ..............................
........................................................................
   1    -80.3458156 -0.803458E+02  0.205E-02    1.62       0.0  T
   2    -80.3458296 -0.140414E-04  0.882E-03    1.62       1.8  T
   3    -80.3458313 -0.162428E-05  0.431E-03    1.63       3.8  T
   4    -80.3458313 -0.337015E-07  0.137E-03    1.63      11.9  T
   5    -80.3458313 -0.132210E-07  0.253E-04    1.63      64.2  T
   6    -80.3458313 -0.124085E-08  0.789E-05    1.63     205.6  T
   7    -80.3458313 -0.105047E-09  0.272E-05    1.63     596.0  T
     SCC iter.                  ...        0 min,  0.029 sec
     gradient                   ...        0 min,  0.049 sec
 * total energy  :   -79.6213720 Eh     change       -0.4367498E-03 Eh
   gradient norm :     0.0073340 Eh/α   predicted    -0.3509100E-03 ( -19.65%)
   displ. norm   :     0.2363936 α      lambda       -0.3055224E-03
   maximum displ.:     0.1168687 α      in ANC's #9, #6, #5, ...

........................................................................
.............................. CYCLE    6 ..............................
........................................................................
   1    -80.3462014 -0.803462E+02  0.963E-03    1.62       0.0  T
   2    -80.3462039 -0.246072E-05  0.373E-03    1.62       4.4  T
   3    -80.3462041 -0.213914E-06  0.210E-03    1.62       7.7  T
   4    -80.3462041 -0.153695E-07  0.659E-04    1.63      24.6  T
   5    -80.3462041 -0.224750E-08  0.121E-04    1.63     134.5  T
   6    -80.3462041 -0.245564E-09  0.420E-05    1.63     386.4  T
     SCC iter.                  ...        0 min,  0.024 sec
     gradient                   ...        0 min,  0.047 sec
 * total energy  :   -79.6215969 Eh     change       -0.2249220E-03 Eh
   gradient norm :     0.0076821 Eh/α   predicted    -0.1612979E-03 ( -28.29%)
   displ. norm   :     0.2836134 α      lambda       -0.2863772E-03
   maximum displ.:     0.1298649 α      in ANC's #2, #9, #6, ...

........................................................................
.............................. CYCLE    7 ..............................
........................................................................
   1    -80.3468810 -0.803469E+02  0.721E-03    1.62       0.0  T
   2    -80.3468823 -0.126448E-05  0.299E-03    1.62       5.4  T
   3    -80.3468823 -0.716373E-07  0.161E-03    1.62      10.1  T
   4    -80.3468823 -0.414818E-08  0.514E-04    1.62      31.6  T
   5    -80.3468823 -0.306272E-08  0.873E-05    1.62     185.7  T
   6    -80.3468823 -0.113005E-09  0.316E-05    1.62     513.3  T
     SCC iter.                  ...        0 min,  0.025 sec
     gradient                   ...        0 min,  0.047 sec
 * total energy  :   -79.6218036 Eh     change       -0.2067254E-03 Eh
   gradient norm :     0.0069564 Eh/α   predicted    -0.1547070E-03 ( -25.16%)
   displ. norm   :     0.2493986 α      lambda       -0.2065526E-03
   maximum displ.:     0.1373177 α      in ANC's #2, #5, #6, ...

........................................................................
.............................. CYCLE    8 ..............................
........................................................................
   1    -80.3477926 -0.803478E+02  0.755E-03    1.62       0.0  T
   2    -80.3477946 -0.205558E-05  0.337E-03    1.62       4.8  T
   3    -80.3477948 -0.189952E-06  0.167E-03    1.62       9.7  T
   4    -80.3477948 -0.691387E-09  0.552E-04    1.62      29.4  T
   5    -80.3477948 -0.444942E-08  0.861E-05    1.62     188.5  T
   6    -80.3477948 -0.107462E-09  0.215E-05    1.62     753.8  T
     SCC iter.                  ...        0 min,  0.025 sec
     gradient                   ...        0 min,  0.047 sec
 * total energy  :   -79.6219522 Eh     change       -0.1485713E-03 Eh
   gradient norm :     0.0055874 Eh/α   predicted    -0.1097021E-03 ( -26.16%)
   displ. norm   :     0.2044675 α      lambda       -0.1350670E-03
   maximum displ.:     0.1289680 α      in ANC's #2, #5, #6, ...

........................................................................
.............................. CYCLE    9 ..............................
........................................................................
   1    -80.3485774 -0.803486E+02  0.664E-03    1.63       0.0  T
   2    -80.3485790 -0.152137E-05  0.287E-03    1.63       5.6  T
   3    -80.3485791 -0.132348E-06  0.154E-03    1.63      10.5  T
   4    -80.3485791 -0.349436E-08  0.438E-04    1.63      37.0  T
   5    -80.3485791 -0.247708E-08  0.912E-05    1.63     177.8  T
   6    -80.3485791 -0.137504E-09  0.198E-05    1.63     818.7  T
     SCC iter.                  ...        0 min,  0.025 sec
     gradient                   ...        0 min,  0.047 sec
 * total energy  :   -79.6220524 Eh     change       -0.1001710E-03 Eh
   gradient norm :     0.0043569 Eh/α   predicted    -0.7035873E-04 ( -29.76%)
   displ. norm   :     0.1779444 α      lambda       -0.9634774E-04
   maximum displ.:     0.1218487 α      in ANC's #2, #5, #6, ...

........................................................................
.............................. CYCLE   10 ..............................
........................................................................
   1    -80.3487865 -0.803488E+02  0.516E-03    1.63       0.0  T
   2    -80.3487873 -0.784821E-06  0.219E-03    1.64       7.4  T
   3    -80.3487873 -0.504589E-07  0.120E-03    1.64      13.5  T
   4    -80.3487873 -0.311417E-08  0.361E-04    1.63      44.9  T
   5    -80.3487873 -0.102959E-08  0.731E-05    1.63     221.9  T
   6    -80.3487873 -0.799787E-10  0.193E-05    1.63     839.5  T
     SCC iter.                  ...        0 min,  0.024 sec
     gradient                   ...        0 min,  0.048 sec
 * total energy  :   -79.6221271 Eh     change       -0.7469291E-04 Eh
   gradient norm :     0.0033138 Eh/α   predicted    -0.4970755E-04 ( -33.45%)
   displ. norm   :     0.1696175 α      lambda       -0.7906176E-04
   maximum displ.:     0.1196719 α      in ANC's #2, #6, #1, ...

........................................................................
.............................. CYCLE   11 ..............................
........................................................................
   1    -80.3487388 -0.803487E+02  0.417E-03    1.64       0.0  T
   2    -80.3487393 -0.461472E-06  0.174E-03    1.64       9.3  T
   3    -80.3487393 -0.214391E-07  0.899E-04    1.64      18.0  T
   4    -80.3487393 -0.843556E-09  0.327E-04    1.64      49.6  T
   5    -80.3487393 -0.906610E-09  0.458E-05    1.64     353.9  T
   6    -80.3487393 -0.229932E-10  0.146E-05    1.64    1107.6  T
     SCC iter.                  ...        0 min,  0.025 sec
     gradient                   ...        0 min,  0.048 sec
 * total energy  :   -79.6221903 Eh     change       -0.6324803E-04 Eh
   gradient norm :     0.0030054 Eh/α   predicted    -0.4066942E-04 ( -35.70%)
   displ. norm   :     0.1747489 α      lambda       -0.7223182E-04
   maximum displ.:     0.1227078 α      in ANC's #2, #1, #6, ...

........................................................................
.............................. CYCLE   12 ..............................
........................................................................
   1    -80.3486417 -0.803486E+02  0.382E-03    1.65       0.0  T
   2    -80.3486421 -0.414523E-06  0.149E-03    1.65      10.9  T
   3    -80.3486422 -0.235590E-07  0.717E-04    1.65      22.6  T
   4    -80.3486422 -0.548297E-09  0.298E-04    1.65      54.4  T
   5    -80.3486422 -0.100971E-08  0.411E-05    1.65     394.7  T
   6    -80.3486422 -0.147651E-10  0.123E-05    1.65    1320.8  T
     SCC iter.                  ...        0 min,  0.024 sec
     gradient                   ...        0 min,  0.048 sec
 * total energy  :   -79.6222490 Eh     change       -0.5865303E-04 Eh
   gradient norm :     0.0034046 Eh/α   predicted    -0.3722466E-04 ( -36.53%)
   displ. norm   :     0.1957904 α      lambda       -0.7231354E-04
   maximum displ.:     0.1349367 α      in ANC's #2, #1, #6, ...

........................................................................
.............................. CYCLE   13 ..............................
........................................................................
   1    -80.3485496 -0.803485E+02  0.350E-03    1.65       0.0  T
   2    -80.3485500 -0.386918E-06  0.123E-03    1.65      13.2  T
   3    -80.3485500 -0.236116E-07  0.607E-04    1.65      26.7  T
   4    -80.3485500 -0.943245E-09  0.245E-04    1.65      66.3  T
   5    -80.3485500 -0.679464E-09  0.482E-05    1.65     336.7  T
   6    -80.3485500 -0.273133E-10  0.137E-05    1.65    1179.9  T
     SCC iter.                  ...        0 min,  0.024 sec
     gradient                   ...        0 min,  0.047 sec
 * total energy  :   -79.6223080 Eh     change       -0.5902631E-04 Eh
   gradient norm :     0.0035955 Eh/α   predicted    -0.3754349E-04 ( -36.40%)
   displ. norm   :     0.2296661 α      lambda       -0.7695970E-04
   maximum displ.:     0.1561439 α      in ANC's #2, #1, #7, ...

........................................................................
.............................. CYCLE   14 ..............................
........................................................................
   1    -80.3485918 -0.803486E+02  0.310E-03    1.65       0.0  T
   2    -80.3485921 -0.268264E-06  0.109E-03    1.65      14.9  T
   3    -80.3485921 -0.185218E-07  0.596E-04    1.65      27.2  T
   4    -80.3485921 -0.146883E-08  0.204E-04    1.65      79.6  T
   5    -80.3485921 -0.272266E-09  0.537E-05    1.65     302.3  T
   6    -80.3485921 -0.301981E-10  0.138E-05    1.65    1172.2  T
     SCC iter.                  ...        0 min,  0.025 sec
     gradient                   ...        0 min,  0.046 sec
 * total energy  :   -79.6223691 Eh     change       -0.6112820E-04 Eh
   gradient norm :     0.0033381 Eh/α   predicted    -0.4051043E-04 ( -33.73%)
   displ. norm   :     0.2619560 α      lambda       -0.7726562E-04
   maximum displ.:     0.1771105 α      in ANC's #2, #1, #7, ...

........................................................................
.............................. CYCLE   15 ..............................
........................................................................
   1    -80.3485927 -0.803486E+02  0.332E-03    1.65       0.0  T
   2    -80.3485930 -0.262504E-06  0.130E-03    1.65      12.5  T
   3    -80.3485930 -0.217139E-07  0.695E-04    1.65      23.4  T
   4    -80.3485930 -0.184878E-08  0.243E-04    1.65      66.8  T
   5    -80.3485930 -0.216957E-09  0.479E-05    1.65     338.5  T
   6    -80.3485930 -0.228653E-10  0.133E-05    1.65    1220.7  T
     SCC iter.                  ...        0 min,  0.025 sec
     gradient                   ...        0 min,  0.047 sec
 * total energy  :   -79.6224297 Eh     change       -0.6059279E-04 Eh
   gradient norm :     0.0029481 Eh/α   predicted    -0.4128717E-04 ( -31.86%)
   displ. norm   :     0.3088973 α      lambda       -0.7980352E-04
   maximum displ.:     0.2076484 α      in ANC's #2, #1, #4, ...

........................................................................
.............................. CYCLE   16 ..............................
........................................................................
   1    -80.3488422 -0.803488E+02  0.403E-03    1.65       0.0  T
   2    -80.3488427 -0.441192E-06  0.160E-03    1.65      10.1  T
   3    -80.3488427 -0.368494E-07  0.763E-04    1.65      21.3  T
   4    -80.3488427 -0.192172E-08  0.303E-04    1.65      53.6  T
   5    -80.3488427 -0.476192E-09  0.569E-05    1.65     285.1  T
   6    -80.3488427 -0.214726E-10  0.138E-05    1.65    1173.0  T
     SCC iter.                  ...        0 min,  0.025 sec
     gradient                   ...        0 min,  0.048 sec
 * total energy  :   -79.6224879 Eh     change       -0.5816876E-04 Eh
   gradient norm :     0.0030502 Eh/α   predicted    -0.4371151E-04 ( -24.85%)
   displ. norm   :     0.2412002 α      lambda       -0.5961349E-04
   maximum displ.:     0.1583794 α      in ANC's #2, #1, #4, ...

........................................................................
.............................. CYCLE   17 ..............................
........................................................................
   1    -80.3492435 -0.803492E+02  0.362E-03    1.65       0.0  T
   2    -80.3492439 -0.407120E-06  0.134E-03    1.65      12.1  T
   3    -80.3492439 -0.229430E-07  0.647E-04    1.65      25.1  T
   4    -80.3492439 -0.848502E-09  0.264E-04    1.65      61.4  T
   5    -80.3492439 -0.525702E-09  0.478E-05    1.65     339.3  T
   6    -80.3492439 -0.179483E-10  0.125E-05    1.65    1293.5  T
     SCC iter.                  ...        0 min,  0.025 sec
     gradient                   ...        0 min,  0.050 sec
 * total energy  :   -79.6225344 Eh     change       -0.4649258E-04 Eh
   gradient norm :     0.0031276 Eh/α   predicted    -0.3154379E-04 ( -32.15%)
   displ. norm   :     0.2974546 α      lambda       -0.7417674E-04
   maximum displ.:     0.1862899 α      in ANC's #2, #1, #10, ...

........................................................................
.............................. CYCLE   18 ..............................
........................................................................
   1    -80.3491520 -0.803492E+02  0.416E-03    1.65       0.0  T
   2    -80.3491525 -0.581304E-06  0.138E-03    1.65      11.7  T
   3    -80.3491526 -0.177397E-07  0.684E-04    1.65      23.7  T
   4    -80.3491526 -0.691500E-09  0.240E-04    1.65      67.6  T
   5    -80.3491526 -0.514660E-09  0.577E-05    1.65     281.1  T
   6    -80.3491526 -0.249969E-10  0.159E-05    1.65    1022.6  T
     SCC iter.                  ...        0 min,  0.025 sec
     gradient                   ...        0 min,  0.048 sec
 * total energy  :   -79.6225913 Eh     change       -0.5691362E-04 Eh
   gradient norm :     0.0035047 Eh/α   predicted    -0.4037106E-04 ( -29.07%)
   displ. norm   :     0.3059226 α      lambda       -0.1041687E-03
   maximum displ.:     0.1705604 α      in ANC's #1, #2, #3, ...

........................................................................
.............................. CYCLE   19 ..............................
........................................................................
   1    -80.3510721 -0.803511E+02  0.716E-03    1.66       0.0  T
   2    -80.3510730 -0.890146E-06  0.346E-03    1.66       4.7  T
   3    -80.3510730 -0.260312E-07  0.167E-03    1.66       9.7  T
   4    -80.3510731 -0.563209E-08  0.371E-04    1.66      43.7  T
   5    -80.3510731 -0.205294E-08  0.908E-05    1.66     178.7  T
   6    -80.3510731 -0.112010E-09  0.263E-05    1.66     616.3  T
     SCC iter.                  ...        0 min,  0.024 sec
     gradient                   ...        0 min,  0.047 sec
 * total energy  :   -79.6226379 Eh     change       -0.4657173E-04 Eh
   gradient norm :     0.0048524 Eh/α   predicted    -0.5695987E-04 (  22.31%)
   displ. norm   :     0.3735607 α      lambda       -0.9976640E-04
   maximum displ.:     0.2256126 α      in ANC's #2, #1, #10, ...

........................................................................
.............................. CYCLE   20 ..............................
........................................................................
   1    -80.3475240 -0.803475E+02  0.866E-03    1.66       0.0  T
   2    -80.3475244 -0.410250E-06  0.455E-03    1.66       3.6  T
   3    -80.3475244 -0.223991E-09  0.176E-03    1.66       9.2  T
   4    -80.3475244 -0.465408E-07  0.392E-04    1.66      41.4  T
   5    -80.3475244 -0.137071E-08  0.849E-05    1.66     191.1  T
   6    -80.3475244 -0.760565E-10  0.174E-05    1.66     931.9  T
     SCC iter.                  ...        0 min,  0.026 sec
     gradient                   ...        0 min,  0.048 sec
 * total energy  :   -79.6226639 Eh     change       -0.2606722E-04 Eh
   gradient norm :     0.0056395 Eh/α   predicted    -0.5684605E-04 ( 118.07%)
   displ. norm   :     0.1530232 α      lambda       -0.6485315E-04
   maximum displ.:     0.0986335 α      in ANC's #2, #1, #4, ...
 * RMSD in coord.:     0.5639410 α      energy gain  -0.1850525E-01 Eh

generating ANC from model Hessian ...
Using Lindh-Hessian (1995)
 Shifting diagonal of input Hessian by   9.801397995722556E-003
 Lowest  eigenvalues of input Hessian
    0.000000    0.000000    0.000000    0.000000    0.000000    0.000000
    0.010000    0.010294    0.010594    0.011513    0.012056    0.012645
    0.013262    0.014297    0.015519    0.016683    0.017799    0.018650
 Highest eigenvalues
    2.069731    2.182026    2.241485    2.305301    2.367865    2.404548
 

........................................................................
.............................. CYCLE   21 ..............................
........................................................................
   1    -80.3495454 -0.803495E+02  0.550E-03    1.66       0.0  T
   2    -80.3495460 -0.624370E-06  0.234E-03    1.66       6.9  T
   3    -80.3495460 -0.236477E-07  0.125E-03    1.66      13.0  T
   4    -80.3495460 -0.187987E-08  0.269E-04    1.66      60.3  T
   5    -80.3495460 -0.648143E-09  0.602E-05    1.66     269.4  T
   6    -80.3495460 -0.341771E-10  0.168E-05    1.66     968.4  T
     SCC iter.                  ...        0 min,  0.026 sec
     gradient                   ...        0 min,  0.049 sec
 * total energy  :   -79.6227038 Eh     change       -0.3984235E-04 Eh
   gradient norm :     0.0023372 Eh/α   predicted     0.0000000E+00 (-100.00%)
   displ. norm   :     0.0261047 α      lambda       -0.1106276E-04
   maximum displ.:     0.0122625 α      in ANC's #9, #3, #12, ...

........................................................................
.............................. CYCLE   22 ..............................
........................................................................
   1    -80.3495397 -0.803495E+02  0.176E-03    1.66       0.0  T
   2    -80.3495399 -0.114725E-06  0.613E-04    1.66      26.5  T
   3    -80.3495399 -0.418822E-08  0.327E-04    1.66      49.6  T
   4    -80.3495399 -0.152752E-09  0.128E-04    1.66     126.6  T
   5    -80.3495399 -0.121972E-09  0.266E-05    1.66     610.9  T
     SCC iter.                  ...        0 min,  0.021 sec
     gradient                   ...        0 min,  0.048 sec
 * total energy  :   -79.6227186 Eh     change       -0.1486993E-04 Eh
   gradient norm :     0.0012541 Eh/α   predicted    -0.8739918E-05 ( -41.22%)
   displ. norm   :     0.1442654 α      lambda       -0.4324700E-04
   maximum displ.:     0.0617569 α      in ANC's #9, #3, #10, ...

........................................................................
.............................. CYCLE   23 ..............................
........................................................................
   1    -80.3493544 -0.803494E+02  0.652E-03    1.66       0.0  T
   2    -80.3493561 -0.170114E-05  0.211E-03    1.66       7.7  T
   3    -80.3493561 -0.474706E-07  0.107E-03    1.66      15.1  T
   4    -80.3493561 -0.137663E-08  0.479E-04    1.66      33.9  T
   5    -80.3493561 -0.128455E-08  0.907E-05    1.66     178.8  T
   6    -80.3493561 -0.227217E-09  0.171E-05    1.66     950.2  T
     SCC iter.                  ...        0 min,  0.025 sec
     gradient                   ...        0 min,  0.049 sec
 * total energy  :   -79.6227466 Eh     change       -0.2792825E-04 Eh
   gradient norm :     0.0029090 Eh/α   predicted    -0.2182462E-04 ( -21.85%)
   displ. norm   :     0.0193304 α      lambda       -0.1061221E-04
   maximum displ.:     0.0088858 α      in ANC's #3, #10, #2, ...

........................................................................
.............................. CYCLE   24 ..............................
........................................................................
   1    -80.3495077 -0.803495E+02  0.126E-03    1.66       0.0  T
   2    -80.3495078 -0.583221E-07  0.466E-04    1.66      34.8  T
   3    -80.3495078 -0.306555E-08  0.250E-04    1.66      64.8  T
   4    -80.3495078 -0.114056E-09  0.930E-05    1.66     174.4  T
   5    -80.3495078 -0.617604E-10  0.188E-05    1.66     861.6  T
     SCC iter.                  ...        0 min,  0.021 sec
     gradient                   ...        0 min,  0.050 sec
 * total energy  :   -79.6227559 Eh     change       -0.9362563E-05 Eh
   gradient norm :     0.0020372 Eh/α   predicted    -0.5308464E-05 ( -43.30%)
   displ. norm   :     0.1029220 α      lambda       -0.3596065E-04
   maximum displ.:     0.0468520 α      in ANC's #3, #10, #2, ...

........................................................................
.............................. CYCLE   25 ..............................
........................................................................
   1    -80.3497865 -0.803498E+02  0.438E-03    1.66       0.0  T
   2    -80.3497872 -0.727276E-06  0.156E-03    1.66      10.4  T
   3    -80.3497872 -0.412510E-07  0.800E-04    1.66      20.3  T
   4    -80.3497872 -0.135192E-08  0.314E-04    1.66      51.7  T
   5    -80.3497872 -0.754781E-09  0.655E-05    1.66     247.8  T
   6    -80.3497872 -0.743654E-10  0.151E-05    1.66    1076.4  T
     SCC iter.                  ...        0 min,  0.024 sec
     gradient                   ...        0 min,  0.048 sec
 * total energy  :   -79.6227780 Eh     change       -0.2206435E-04 Eh
   gradient norm :     0.0014351 Eh/α   predicted    -0.1821164E-04 ( -17.46%)
   displ. norm   :     0.1556851 α      lambda        0.1304532E-04
   maximum displ.:     0.0708911 α      in ANC's #3, #10, #2, ...

........................................................................
.............................. CYCLE   26 ..............................
........................................................................
   1    -80.3497765 -0.803498E+02  0.670E-03    1.66       0.0  T
   2    -80.3497781 -0.163045E-05  0.240E-03    1.66       6.7  T
   3    -80.3497782 -0.941126E-07  0.123E-03    1.66      13.1  T
   4    -80.3497782 -0.341305E-08  0.466E-04    1.66      34.8  T
   5    -80.3497782 -0.190296E-08  0.102E-04    1.66     159.7  T
   6    -80.3497782 -0.170260E-09  0.230E-05    1.66     704.8  T
     SCC iter.                  ...        0 min,  0.026 sec
     gradient                   ...        0 min,  0.049 sec
 * total energy  :   -79.6227551 Eh     change        0.2288358E-04 Eh
   gradient norm :     0.0060351 Eh/α   predicted     0.6592086E-05 ( -71.19%)
   displ. norm   :     0.0488202 α      lambda       -0.4121894E-04
   maximum displ.:     0.0203634 α      in ANC's #3, #10, #2, ...

........................................................................
.............................. CYCLE   27 ..............................
........................................................................
   1    -80.3498074 -0.803498E+02  0.389E-03    1.66       0.0  T
   2    -80.3498079 -0.526370E-06  0.143E-03    1.66      11.4  T
   3    -80.3498079 -0.296290E-07  0.758E-04    1.66      21.4  T
   4    -80.3498080 -0.134901E-08  0.272E-04    1.66      59.6  T
   5    -80.3498080 -0.657707E-09  0.594E-05    1.66     273.3  T
   6    -80.3498080 -0.572840E-10  0.122E-05    1.66    1326.9  T
     SCC iter.                  ...        0 min,  0.025 sec
     gradient                   ...        0 min,  0.049 sec
 * total energy  :   -79.6227841 Eh     change       -0.2902929E-04 Eh
   gradient norm :     0.0030535 Eh/α   predicted    -0.2066441E-04 ( -28.82%)
   displ. norm   :     0.0159512 α      lambda       -0.1824140E-04
   maximum displ.:     0.0071331 α      in ANC's #6, #22, #31, ...

........................................................................
.............................. CYCLE   28 ..............................
........................................................................
   1    -80.3497621 -0.803498E+02  0.308E-03    1.66       0.0  T
   2    -80.3497625 -0.347397E-06  0.113E-03    1.66      14.4  T
   3    -80.3497625 -0.226518E-07  0.588E-04    1.66      27.6  T
   4    -80.3497625 -0.916643E-09  0.223E-04    1.66      72.7  T
   5    -80.3497625 -0.362178E-09  0.459E-05    1.66     353.6  T
   6    -80.3497625 -0.312070E-10  0.912E-06    1.66    1778.1  T
     SCC iter.                  ...        0 min,  0.020 sec
     gradient                   ...        0 min,  0.036 sec
 * total energy  :   -79.6227954 Eh     change       -0.1129443E-04 Eh
   gradient norm :     0.0007065 Eh/α   predicted    -0.9132297E-05 ( -19.14%)
   displ. norm   :     0.0535521 α      lambda       -0.6560101E-05
   maximum displ.:     0.0246326 α      in ANC's #3, #10, #1, ...

........................................................................
.............................. CYCLE   29 ..............................
........................................................................
   1    -80.3496988 -0.803497E+02  0.154E-03    1.66       0.0  T
   2    -80.3496989 -0.894287E-07  0.587E-04    1.66      27.6  T
   3    -80.3496989 -0.704111E-08  0.296E-04    1.66      54.9  T
   4    -80.3496989 -0.264450E-09  0.116E-04    1.66     139.4  T
   5    -80.3496989 -0.731433E-10  0.221E-05    1.66     733.9  T
     SCC iter.                  ...        0 min,  0.021 sec
     gradient                   ...        0 min,  0.048 sec
 * total energy  :   -79.6228025 Eh     change       -0.7029666E-05 Eh
   gradient norm :     0.0006994 Eh/α   predicted    -0.3289915E-05 ( -53.20%)
   displ. norm   :     0.1227955 α      lambda       -0.9946803E-05
   maximum displ.:     0.0582902 α      in ANC's #10, #3, #1, ...

........................................................................
.............................. CYCLE   30 ..............................
........................................................................
   1    -80.3495142 -0.803495E+02  0.108E-03    1.66       0.0  T
   2    -80.3495142 -0.338698E-07  0.543E-04    1.66      29.9  T
   3    -80.3495142 -0.560806E-08  0.256E-04    1.66      63.4  T
   4    -80.3495142 -0.207109E-09  0.538E-05    1.66     301.8  T
   5    -80.3495142 -0.167830E-10  0.196E-05    1.66     828.9  T
     SCC iter.                  ...        0 min,  0.021 sec
     gradient                   ...        0 min,  0.047 sec
 * total energy  :   -79.6228122 Eh     change       -0.9745632E-05 Eh
   gradient norm :     0.0009034 Eh/α   predicted    -0.5014113E-05 ( -48.55%)
   displ. norm   :     0.0902279 α      lambda       -0.4881676E-05
   maximum displ.:     0.0452167 α      in ANC's #10, #1, #3, ...

........................................................................
.............................. CYCLE   31 ..............................
........................................................................
   1    -80.3495450 -0.803495E+02  0.110E-03    1.66       0.0  T
   2    -80.3495450 -0.317898E-07  0.503E-04    1.66      32.3  T
   3    -80.3495450 -0.299180E-08  0.261E-04    1.66      62.2  T
   4    -80.3495450 -0.259533E-09  0.713E-05    1.66     227.7  T
   5    -80.3495450 -0.374314E-10  0.188E-05    1.66     860.9  T
     SCC iter.                  ...        0 min,  0.021 sec
     gradient                   ...        0 min,  0.048 sec
 * total energy  :   -79.6228162 Eh     change       -0.3986679E-05 Eh
   gradient norm :     0.0006593 Eh/α   predicted    -0.2449948E-05 ( -38.55%)
   displ. norm   :     0.0419489 α      lambda       -0.3045091E-05
   maximum displ.:     0.0201476 α      in ANC's #1, #10, #7, ...

   *** GEOMETRY OPTIMIZATION CONVERGED AFTER 31 ITERATIONS ***

------------------------------------------------------------------------
 total energy gain   :        -0.0186575 Eh      -11.7078 kcal/mol
 total RMSD          :         0.5739877 a0        0.3037 Å
 total power (kW/mol):        -1.5801714 (step)  -16.2175 (real)
------------------------------------------------------------------------

 ANCopt (total)                0 d,  0 h,  0 min,  3.021 sec
 optimizer setup                ...        0 min,  0.001 sec (  0.026%)
 model hessian                  ...        0 min,  0.033 sec (  1.079%)
 ANC generation                 ...        0 min,  0.004 sec (  0.133%)
 coordinate transformation      ...        0 min,  0.001 sec (  0.019%)
 single point calculation       ...        0 min,  2.972 sec ( 98.388%)
 optimization log               ...        0 min,  0.006 sec (  0.197%)
 hessian update                 ...        0 min,  0.001 sec (  0.018%)
 rational function              ...        0 min,  0.002 sec (  0.081%)

================
 final structure:
================
38
 xtb: 6.5.1 (579679a)
C           -6.09402580135752        2.08055321739086        0.60958968824836
O           -4.97814832855894        1.64799923256658       -0.15546783784143
C           -4.01727584631950        0.97633941938646        0.52831309526053
O           -4.13884373042701        0.76815636447568        1.73031749687621
C           -2.88050760287780        0.55313878408216       -0.27545858654574
N           -1.92285538409916       -0.11166625255650        0.46811311899336
C           -0.85482549152820       -0.55297370346314       -0.08064116135578
C            0.16143930208237       -1.32999330935840        0.73033733139632
C           -0.11802976213449       -1.13802375833103        2.22439454676427
C            0.08578155313208       -2.81348936740194        0.33800349963242
N            1.49747734416040       -0.80233659222146        0.40498488841065
C            2.63249807184533       -1.28282461627077        0.94235423857115
O            2.71347209291376       -2.21909045620389        1.72318225823375
C            3.84382656400402       -0.54978882027719        0.48553374684701
N            5.07270376510047       -0.75556512111140        0.84715046295183
N            5.83784758931587        0.15382440019682        0.17859127924181
C            5.02894742384325        0.85796860322958       -0.55010585124470
C            5.36824880416447        1.96703792164139       -1.46807614308582
O            3.75294230133800        0.46514449851521       -0.40129619862350
N           -0.61341108162029       -0.40243989518274       -1.43373343317982
C           -1.47375475667469        0.23813599402223       -2.29071261998642
O           -1.18424793207196        0.33904371071584       -3.47989182163885
C           -2.74606484938147        0.77589130822046       -1.67097154021054
O           -3.56441365564482        1.35595833694251       -2.40751010950865
H           -6.77897572909186        2.57759385828586       -0.07641947547360
H           -5.78057318525256        2.78066662825341        1.39060538681656
H           -6.59511202251375        1.22910954721831        1.08105380768573
H            0.56122210967519       -1.74374061221176        2.82049821752504
H            0.00645708067441       -0.08929574210390        2.49139341631543
H           -1.14454085526849       -1.43437677207085        2.43751694710428
H            0.78118461412566       -3.40304626824506        0.93214884132818
H            0.33100781032563       -2.93306663239821       -0.71593868214507
H           -0.92539538065103       -3.18005642192080        0.51035853371713
H            1.55726209440064        0.00928823536558       -0.18831749705635
H            6.42278452975543        2.21349206790861       -1.36988338465355
H            5.15945509725203        1.67367320099775       -2.49744465249140
H            4.76121003363963        2.84214950932514       -1.23693211890602
H            0.23523421372213       -0.76339349741239       -1.83531868796968
 
 Bond Distances (Angstroems)
 ---------------------------
C1-O2=1.4204         C1-H25=1.0894        C1-H26=1.0947        C1-H27=1.0947        O2-C1=1.4204         O2-C3=1.3572         
C3-O2=1.3572         C3-O4=1.2259         C3-C5=1.4551         O4-C3=1.2259         C5-C3=1.4551         C5-N6=1.3827         
C5-C23=1.4196        N6-C5=1.3827         N6-C7=1.2793         C7-N6=1.2793         C7-C8=1.5147         C7-N20=1.3827        
C8-C7=1.5147         C8-C9=1.5320         C8-C10=1.5364        C8-N11=1.4728        C9-C8=1.5320         C9-H28=1.0879        
C9-H29=1.0893        C9-H30=1.0895        C10-C8=1.5364        C10-H31=1.0882       C10-H32=1.0887       C10-H33=1.0893       
N11-C8=1.4728        N11-C12=1.3446       N11-H34=1.0071       C12-N11=1.3446       C12-O13=1.2218       C12-C14=1.4877       
O13-C12=1.2218       C14-C12=1.4877       C14-N15=1.2974       C14-O19=1.3509       N15-C14=1.2974       N15-N16=1.3636       
N16-N15=1.3636       N16-C17=1.2966       C17-N16=1.2966       C17-C18=1.4791       C17-O19=1.3434       C18-C17=1.4791       
C18-H35=1.0874       C18-H36=1.0905       C18-H37=1.0898       O19-C14=1.3509       O19-C17=1.3434       N20-C7=1.3827        
N20-C21=1.3729       N20-H38=1.0059       C21-N20=1.3729       C21-O22=1.2281       C21-C23=1.5139       O22-C21=1.2281       
C23-C5=1.4196        C23-C21=1.5139       C23-O24=1.2445       O24-C23=1.2445       H25-C1=1.0894        H26-C1=1.0947        
H27-C1=1.0947        H28-C9=1.0879        H29-C9=1.0893        H30-C9=1.0895        H31-C10=1.0882       H32-C10=1.0887       
H33-C10=1.0893       H34-N11=1.0071       H35-C18=1.0874       H36-C18=1.0905       H37-C18=1.0898       H38-N20=1.0059       
 C  H  Rav=1.0900 sigma=0.0023  Rmin=1.0874  Rmax=1.0947    12
 C  C  Rav=1.4923 sigma=0.0377  Rmin=1.4196  Rmax=1.5364     8
 N  H  Rav=1.0065 sigma=0.0006  Rmin=1.0059  Rmax=1.0071     2
 N  C  Rav=1.3536 sigma=0.0595  Rmin=1.2793  Rmax=1.4728     8
 N  N  Rav=1.3636 sigma=0.0000  Rmin=1.3636  Rmax=1.3636     1
 O  C  Rav=1.2990 sigma=0.0725  Rmin=1.2218  Rmax=1.4204     8
 
 selected bond angles (degree)
 --------------------
H25-C1-O2=107.08               H26-C1-O2=110.74               H26-C1-H25=109.72              H27-C1-O2=110.78               
H27-C1-H25=109.77              H27-C1-H26=108.74              C3-O2-C1=115.82                O4-C3-O2=120.52                
C5-C3-O2=114.75                C5-C3-O4=124.73                N6-C5-C3=112.57                C23-C5-C3=124.85               
C23-C5-N6=122.58               C7-N6-C5=120.89                C8-C7-N6=120.49                N20-C7-N6=121.87               
N20-C7-C8=117.56               C9-C8-C7=109.60                C10-C8-C7=109.00               C10-C8-C9=111.16               
N11-C8-C7=107.85               N11-C8-C9=109.63               N11-C8-C10=109.52              H28-C9-C8=110.53               
H29-C9-C8=109.80               H29-C9-H28=109.29              H30-C9-C8=109.18               H30-C9-H28=109.25              
H30-C9-H29=108.76              H31-C10-C8=110.62              H32-C10-C8=110.01              H32-C10-H31=108.97             
H33-C10-C8=109.28              H33-C10-H31=108.94             H33-C10-H32=108.98             
 
 selected dihedral angles (degree)
 ---------------------------------
C3-O2-C1-H25=181.24           C3-O2-C1-H26= 61.64           C3-O2-C1-H27=300.91           O4-C3-O2-C1=  0.28            
C5-C3-O2-C1=180.45            N6-C5-C3-O2=179.27            N6-C5-C3-O4=359.44            C23-C5-C3-O2=358.87           
C23-C5-C3-O4=179.04           C7-N6-C5-C3=180.05            C7-N6-C5-C23=  0.44           C8-C7-N6-C5=182.55            
N20-C7-N6-C5=359.26           C9-C8-C7-N6=344.99            C9-C8-C7-N20=168.14           C10-C8-C7-N6=106.86           
C10-C8-C7-N20=290.01          N11-C8-C7-N6=225.69           N11-C8-C7-N20= 48.84          H28-C9-C8-C7=176.15           
H28-C9-C8-C10= 55.59          H28-C9-C8-N11=294.35          H29-C9-C8-C7=296.80           H29-C9-C8-C10=176.24          
H29-C9-C8-N11= 55.00          H30-C9-C8-C7= 55.96           H30-C9-C8-C10=295.39          H30-C9-C8-N11=174.16          
H31-C10-C8-C7=182.07          H31-C10-C8-C9=302.99          H31-C10-C8-N11= 64.29         H32-C10-C8-C7= 61.62          
H32-C10-C8-C9=182.54          H32-C10-C8-N11=303.84         H33-C10-C8-C7=302.01          H33-C10-C8-C9= 62.92          
H33-C10-C8-N11=184.22         
           -------------------------------------------------
          |                Final Singlepoint                |
           -------------------------------------------------

          ...................................................
          :                      SETUP                      :
          :.................................................:
          :  # basis functions                 124          :
          :  # atomic orbitals                 124          :
          :  # shells                           76          :
          :  # electrons                       128          :
          :  # halogen bonds                     0          :
          :  max. iterations                   250          :
          :  Hamiltonian                  GFN1-xTB          :
          :  restarted?                      false          :
          :  GBSA solvation                   true          :
          :  PC potential                    false          :
          :  electronic temp.          300.0000000     K    :
          :  accuracy                    1.0000000          :
          :  -> integral cutoff          0.2500000E+02      :
          :  -> integral neglect         0.1000000E-07      :
          :  -> SCF convergence          0.1000000E-05 Eh   :
          :  -> wf. convergence          0.2000000E-04 e    :
          :  Broyden damping             0.4000000          :
          ...................................................

 iter      E             dE          RMSdq      gap      omega  full diag
   1    -80.3495450 -0.803495E+02  0.497E-06    1.66       0.0  T
   2    -80.3495450 -0.227374E-12  0.251E-06    1.66    6455.4  T
   3    -80.3495450 -0.852651E-13  0.112E-06    1.66   14487.8  T

   *** convergence criteria satisfied after 3 iterations ***

         #    Occupation            Energy/Eh            Energy/eV
      -------------------------------------------------------------
         1        2.0000           -0.8608243             -23.4242
       ...           ...                  ...                  ...
        58        2.0000           -0.4459714             -12.1355
        59        2.0000           -0.4394894             -11.9591
        60        2.0000           -0.4385366             -11.9332
        61        2.0000           -0.4349440             -11.8354
        62        2.0000           -0.4153359             -11.3019
        63        2.0000           -0.3776519             -10.2764
        64        2.0000           -0.3648465              -9.9280 (HOMO)
        65                         -0.3039090              -8.2698 (LUMO)
        66                         -0.2689028              -7.3172
        67                         -0.2526982              -6.8763
        68                         -0.2384873              -6.4896
        69                         -0.1958872              -5.3304
       ...                                ...                  ...
       124                          0.7572580              20.6060
      -------------------------------------------------------------
                  HL-Gap            0.0609375 Eh            1.6582 eV
             Fermi-level           -0.3343777 Eh           -9.0989 eV

 SCC (total)                   0 d,  0 h,  0 min,  0.084 sec
 SCC setup                      ...        0 min,  0.001 sec (  1.630%)
 Dispersion                     ...        0 min,  0.000 sec (  0.229%)
 classical contributions        ...        0 min,  0.000 sec (  0.077%)
 integral evaluation            ...        0 min,  0.021 sec ( 24.741%)
 iterations                     ...        0 min,  0.012 sec ( 14.582%)
 molecular gradient             ...        0 min,  0.048 sec ( 57.541%)
 printout                       ...        0 min,  0.001 sec (  1.176%)

         :::::::::::::::::::::::::::::::::::::::::::::::::::::
         ::                     SUMMARY                     ::
         :::::::::::::::::::::::::::::::::::::::::::::::::::::
         :: total energy             -79.622816188811 Eh    ::
         :: total w/o Gsasa/hb       -79.602967062719 Eh    ::
         :: gradient norm              0.000659444194 Eh/a0 ::
         :: HOMO-LUMO gap              1.658194085763 eV    ::
         ::.................................................::
         :: SCC energy               -80.349545033463 Eh    ::
         :: -> electrostatic           0.472218238921 Eh    ::
         :: -> Gsolv                  -0.121297428509 Eh    ::
         ::    -> Gelec               -0.101448302417 Eh    ::
         ::    -> Gsasa               -0.024023869706 Eh    ::
         ::    -> Ghb                 -0.003449535391 Eh    ::
         ::    -> Gshift               0.007624279005 Eh    ::
         :: repulsion energy           0.749489702668 Eh    ::
         :: dispersion energy         -0.022760858017 Eh    ::
         :: halogen bond corr.         0.000000000000 Eh    ::
         :: add. restraining           0.000000000000 Eh    ::
         :: total charge              -1.000000000000 e     ::
         :::::::::::::::::::::::::::::::::::::::::::::::::::::

           -------------------------------------------------
          |                Property Printout                |
           -------------------------------------------------

    * Orbital Energies and Occupations

         #    Occupation            Energy/Eh            Energy/eV
      -------------------------------------------------------------
         1        2.0000           -0.8608243             -23.4242
       ...           ...                  ...                  ...
        52        2.0000           -0.4836509             -13.1608
        53        2.0000           -0.4746435             -12.9157
        54        2.0000           -0.4636780             -12.6173
        55        2.0000           -0.4581457             -12.4668
        56        2.0000           -0.4544888             -12.3673
        57        2.0000           -0.4540418             -12.3551
        58        2.0000           -0.4459714             -12.1355
        59        2.0000           -0.4394894             -11.9591
        60        2.0000           -0.4385366             -11.9332
        61        2.0000           -0.4349440             -11.8354
        62        2.0000           -0.4153359             -11.3019
        63        2.0000           -0.3776519             -10.2764
        64        2.0000           -0.3648465              -9.9280 (HOMO)
        65                         -0.3039090              -8.2698 (LUMO)
        66                         -0.2689028              -7.3172
        67                         -0.2526982              -6.8763
        68                         -0.2384873              -6.4896
        69                         -0.1958872              -5.3304
        70                         -0.1920038              -5.2247
        71                         -0.1397425              -3.8026
        72                         -0.1205200              -3.2795
        73                         -0.1159184              -3.1543
        74                         -0.1116825              -3.0390
        75                         -0.1072684              -2.9189
       ...                                ...                  ...
       124                          0.7572580              20.6060
      -------------------------------------------------------------
                  HL-Gap            0.0609375 Eh            1.6582 eV
             Fermi-level           -0.3343777 Eh           -9.0989 eV

  Mulliken/CM5 charges         n(s)   n(p)   n(d)
     1C     0.17231  0.05292   0.971  2.857  0.000
     2O    -0.43095 -0.51357   1.688  4.743  0.000
     3C     0.54636  0.61111   0.976  2.478  0.000
     4O    -0.62501 -0.66839   1.735  4.890  0.000
     5C    -0.02058  0.05516   1.039  2.982  0.000
     6N    -0.37903 -0.56471   1.531  3.848  0.000
     7C     0.23470  0.38500   1.003  2.763  0.000
     8C     0.15158  0.19082   1.066  2.783  0.000
     9C    -0.09319 -0.23108   1.014  3.079  0.000
    10C    -0.10341 -0.24285   1.018  3.085  0.000
    11N    -0.34173 -0.69578   1.433  3.908  0.000
    12C     0.46732  0.57642   0.975  2.558  0.000
    13O    -0.58376 -0.62890   1.727  4.857  0.000
    14C     0.33067  0.45624   1.010  2.659  0.000
    15N    -0.22699 -0.33075   1.567  3.660  0.000
    16N    -0.27191 -0.37960   1.565  3.707  0.000
    17C     0.39044  0.49911   1.007  2.603  0.000
    18C    -0.11136 -0.24866   1.012  3.100  0.000
    19O    -0.35786 -0.41469   1.697  4.661  0.000
    20N    -0.32202 -0.66806   1.436  3.886  0.000
    21C     0.42761  0.53081   1.011  2.561  0.000
    22O    -0.60815 -0.64572   1.735  4.873  0.000
    23C     0.28791  0.33331   1.033  2.679  0.000
    24O    -0.63328 -0.67128   1.743  4.890  0.000
    25H     0.03458  0.09484   0.965  0.000  0.000
    26H     0.03275  0.09429   0.967  0.000  0.000
    27H     0.03319  0.09503   0.967  0.000  0.000
    28H     0.04589  0.10557   0.954  0.000  0.000
    29H     0.03738  0.09558   0.963  0.000  0.000
    30H     0.04062  0.09915   0.959  0.000  0.000
    31H     0.05503  0.11529   0.945  0.000  0.000
    32H     0.03958  0.09782   0.960  0.000  0.000
    33H     0.04090  0.09572   0.959  0.000  0.000
    34H     0.25887  0.46835   0.741  0.000  0.000
    35H     0.06797  0.12375   0.932  0.000  0.000
    36H     0.07959  0.13390   0.920  0.000  0.000
    37H     0.07764  0.13228   0.922  0.000  0.000
    38H     0.25633  0.46156   0.744  0.000  0.000

Wiberg/Mayer (AO) data.
largest (>0.10) Wiberg bond orders for each atom

 ---------------------------------------------------------------------------
     #   Z sym  total        # sym  WBO       # sym  WBO       # sym  WBO
 ---------------------------------------------------------------------------
     1   6 C    3.899 --    25 H    0.987    26 H    0.981    27 H    0.980
                             2 O    0.925
     2   8 O    2.160 --     3 C    1.048     1 C    0.925     4 O    0.110
     3   6 C    3.850 --     4 O    1.575     5 C    1.114     2 O    1.048
     4   8 O    1.850 --     3 C    1.575     2 O    0.110
     5   6 C    3.915 --    23 C    1.271     6 N    1.153     3 C    1.114
                            24 O    0.130
     6   7 N    3.033 --     7 C    1.638     5 C    1.153
     7   6 C    3.933 --     6 N    1.638    20 N    1.088     8 C    0.979
     8   6 C    3.929 --     9 C    0.993    10 C    0.982     7 C    0.979
                            11 N    0.911
     9   6 C    3.991 --     8 C    0.993    29 H    0.986    28 H    0.984
                            30 H    0.983
    10   6 C    3.989 --    33 H    0.986    32 H    0.985     8 C    0.982
                            31 H    0.980
    11   7 N    3.359 --    12 C    1.275     8 C    0.911    34 H    0.896
                            13 O    0.180
    12   6 C    3.919 --    13 O    1.575    11 N    1.275    14 C    0.988
    13   8 O    1.894 --    12 C    1.575    11 N    0.180
    14   6 C    3.870 --    15 N    1.624    19 O    1.048    12 C    0.988
    15   7 N    2.997 --    14 C    1.624    16 N    1.196
    16   7 N    2.981 --    17 C    1.613    15 N    1.196
    17   6 C    3.870 --    16 N    1.613    19 O    1.072    18 C    1.031
    18   6 C    3.987 --    17 C    1.031    35 H    0.982    37 H    0.966
                            36 H    0.961
    19   8 O    2.316 --    17 C    1.072    14 C    1.048
    20   7 N    3.421 --    21 C    1.157     7 C    1.088    38 H    0.897
                            22 O    0.135
    21   6 C    3.877 --    22 O    1.582    20 N    1.157    23 C    0.967
    22   8 O    1.862 --    21 C    1.582    20 N    0.135
    23   6 C    3.943 --    24 O    1.521     5 C    1.271    21 C    0.967
    24   8 O    1.827 --    23 C    1.521     5 C    0.130
    25   1 H    1.016 --     1 C    0.987
    26   1 H    1.014 --     1 C    0.981
    27   1 H    1.014 --     1 C    0.980
    28   1 H    1.011 --     9 C    0.984
    29   1 H    1.008 --     9 C    0.986
    30   1 H    1.016 --     9 C    0.983
    31   1 H    1.011 --    10 C    0.980
    32   1 H    1.003 --    10 C    0.985
    33   1 H    1.004 --    10 C    0.986
    34   1 H    0.942 --    11 N    0.896
    35   1 H    0.999 --    18 C    0.982
    36   1 H    0.997 --    18 C    0.961
    37   1 H    0.997 --    18 C    0.966
    38   1 H    0.944 --    20 N    0.897
 ---------------------------------------------------------------------------

Topologies differ in total number of bonds
Writing topology from bond orders to xtbtopo.mol

 dipole moment from electron density (au)
     X       Y       Z   
   4.7747   0.3967   0.3771  total (Debye):   12.216

           -------------------------------------------------
          |                Geometry Summary                 |
           -------------------------------------------------

      molecular mass/u    :      336.2806828
   center of mass at/Å    :        0.0169237       0.0238049      -0.1287485
  moments of inertia/u·Å² :        0.1137008E+04   0.4566077E+04   0.5064350E+04
rotational constants/cm⁻¹ :        0.1482631E-01   0.3691929E-02   0.3328686E-02

 * 32 selected distances

     #   Z          #   Z                                           value/Å
     1   6 C        2   8 O                                       1.4204221
     2   8 O        3   6 C                                       1.3571881
     3   6 C        4   8 O                                       1.2259420
     6   7 N        7   6 C                                       1.2792856
     8   6 C        9   6 C                                       1.5320453
     8   6 C       10   6 C                                       1.5363629 (max)
     8   6 C       11   7 N                                       1.4728455
    11   7 N       12   6 C                                       1.3445843
    12   6 C       13   8 O                                       1.2218196
    14   6 C       15   7 N                                       1.2974013
    16   7 N       17   6 C                                       1.2965872
    17   6 C       18   6 C                                       1.4791315
    14   6 C       19   8 O                                       1.3508580
    17   6 C       19   8 O                                       1.3433706
     7   6 C       20   7 N                                       1.3826787
    20   7 N       21   6 C                                       1.3729320
    21   6 C       22   8 O                                       1.2280652
     5   6 C       23   6 C                                       1.4195599
     1   6 C       25   1 H                                       1.0894102
     1   6 C       26   1 H                                       1.0947132
     1   6 C       27   1 H                                       1.0946791
     9   6 C       28   1 H                                       1.0879411
     9   6 C       29   1 H                                       1.0893191
     9   6 C       30   1 H                                       1.0894822
    10   6 C       31   1 H                                       1.0881965
    10   6 C       32   1 H                                       1.0886822
    10   6 C       33   1 H                                       1.0892918
    11   7 N       34   1 H                                       1.0071331
    18   6 C       35   1 H                                       1.0873947
    18   6 C       36   1 H                                       1.0905308
    18   6 C       37   1 H                                       1.0898367
    20   7 N       38   1 H                                       1.0058614 (min)

 * 5 distinct bonds (by element types)

   Z      Z             #   av. dist./Å        max./Å        min./Å
   1 H    6 C          12     1.0899565     1.0947132     1.0873947
   6 C    6 C           4     1.4917749     1.5363629     1.4195599
   1 H    7 N           2     1.0064972     1.0071331     1.0058614
   6 C    7 N           7     1.3494735     1.4728455     1.2792856
   6 C    8 O           7     1.3068094     1.4204221     1.2218196


optimized geometry written to: xtbopt.xyz


           -------------------------------------------------
          | TOTAL ENERGY              -79.622816188811 Eh   |
          | GRADIENT NORM               0.000659444194 Eh/α |
          | HOMO-LUMO GAP               1.658194085763 eV   |
           -------------------------------------------------

------------------------------------------------------------------------
 * finished run on 2023/06/21 at 17:00:47.888     
------------------------------------------------------------------------
 total:
 * wall-time:     0 d,  0 h,  0 min,  3.283 sec
 *  cpu-time:     0 d,  0 h,  0 min,  3.229 sec
 * ratio c/w:     0.983 speedup
 SCF:
 * wall-time:     0 d,  0 h,  0 min,  0.096 sec
 *  cpu-time:     0 d,  0 h,  0 min,  0.096 sec
 * ratio c/w:     0.998 speedup
 ANC optimizer:
 * wall-time:     0 d,  0 h,  0 min,  3.121 sec
 *  cpu-time:     0 d,  0 h,  0 min,  3.101 sec
 * ratio c/w:     0.994 speedup

