      -----------------------------------------------------------      
     |                   =====================                   |     
     |                           x T B                           |     
     |                   =====================                   |     
     |                         S. Grimme                         |     
     |          Mulliken Center for Theoretical Chemistry        |     
     |                    University of Bonn                     |     
      -----------------------------------------------------------      

   * xtb version 6.5.1 (579679a) compiled by 'ehlert@majestix' on 2022-07-11

   xtb is free software: you can redistribute it and/or modify it under
   the terms of the GNU Lesser General Public License as published by
   the Free Software Foundation, either version 3 of the License, or
   (at your option) any later version.
   
   xtb is distributed in the hope that it will be useful,
   but WITHOUT ANY WARRANTY; without even the implied warranty of
   MERCHANTABILITY or FITNESS FOR A PARTICULAR PURPOSE.  See the
   GNU Lesser General Public License for more details.
   
   Cite this work as:
   * C. Bannwarth, E. Caldeweyher, S. Ehlert, A. Hansen, P. Pracht,
     J. Seibert, S. Spicher, S. Grimme, WIREs Comput. Mol. Sci., 2020, 11,
     e01493. DOI: 10.1002/wcms.1493
   
   for GFN2-xTB:
   * C. Bannwarth, S. Ehlert and S. Grimme., J. Chem. Theory Comput., 2019,
     15, 1652-1671. DOI: 10.1021/acs.jctc.8b01176
   for GFN1-xTB:
   * S. Grimme, C. Bannwarth, P. Shushkov, J. Chem. Theory Comput., 2017,
     13, 1989-2009. DOI: 10.1021/acs.jctc.7b00118
   for GFN0-xTB:
   * P. Pracht, E. Caldeweyher, S. Ehlert, S. Grimme, ChemRxiv, 2019, preprint.
     DOI: 10.26434/chemrxiv.8326202.v1
   for GFN-FF:
   * S. Spicher and S. Grimme, Angew. Chem. Int. Ed., 2020, 59, 15665-15673.
     DOI: 10.1002/anie.202004239
   
   for ALPB and GBSA implicit solvation:
   * S. Ehlert, M. Stahn, S. Spicher, S. Grimme, J. Chem. Theory Comput.,
     2021, 17, 4250-4261. DOI: 10.1021/acs.jctc.1c00471
   
   for DFT-D4:
   * E. Caldeweyher, C. Bannwarth and S. Grimme, J. Chem. Phys., 2017,
     147, 034112. DOI: 10.1063/1.4993215
   * E. Caldeweyher, S. Ehlert, A. Hansen, H. Neugebauer, S. Spicher,
     C. Bannwarth and S. Grimme, J. Chem. Phys., 2019, 150, 154122.
     DOI: 10.1063/1.5090222
   * E. Caldeweyher, J.-M. Mewes, S. Ehlert and S. Grimme, Phys. Chem. Chem. Phys.
     2020, 22, 8499-8512. DOI: 10.1039/D0CP00502A
   
   for sTDA-xTB:
   * S. Grimme and C. Bannwarth, J. Chem. Phys., 2016, 145, 054103.
     DOI: 10.1063/1.4959605
   
   in the mass-spec context:
   * V. Asgeirsson, C. Bauer and S. Grimme, Chem. Sci., 2017, 8, 4879.
     DOI: 10.1039/c7sc00601b
   * J. Koopman and S. Grimme, ACS Omega 2019, 4, 12, 15120-15133.
     DOI: 10.1021/acsomega.9b02011
   
   for metadynamics refer to:
   * S. Grimme, J. Chem. Theory Comput., 2019, 155, 2847-2862
     DOI: 10.1021/acs.jctc.9b00143
   
   for SPH calculations refer to:
   * S. Spicher and S. Grimme, J. Chem. Theory Comput., 2021, 17, 1701-1714
     DOI: 10.1021/acs.jctc.0c01306
   
   with help from (in alphabetical order)
   P. Atkinson, C. Bannwarth, F. Bohle, G. Brandenburg, E. Caldeweyher
   M. Checinski, S. Dohm, S. Ehlert, S. Ehrlich, I. Gerasimov, C. Hölzer
   A. Katbashev, J. Koopman, C. Lavigne, S. Lehtola, F. März, M. Müller,
   F. Musil, H. Neugebauer, J. Pisarek, C. Plett, P. Pracht, F. Pultar,
   J. Seibert, P. Shushkov, S. Spicher, M. Stahn, M. Steiner, T. Strunk,
   J. Stückrath, T. Rose, and J. Unsleber
   
 * started run on 2023/06/20 at 15:54:12.416     

           -------------------------------------------------
          |                Calculation Setup                |
           -------------------------------------------------

          program call               : /lustre/hpc/kemi/ree/PhD/git/ReactivityQM/dep/xtb-6.5.1/bin/xtb --gfn 1 /lustre/hpc/kemi/ree/PhD/git/ReactivityQM/calculations/R03/reac02prodN17/conf03/R03_reac02prodN17_conf03_gfn1.xyz --opt --vfukui --chrg 1 --uhf 0 --alpb DMSO
          hostname                   : node068
          coordinate file            : /lustre/hpc/kemi/ree/PhD/git/ReactivityQM/calculations/R03/reac02prodN17/conf03/R03_reac02prodN17_conf03_gfn1.xyz
          omp threads                :                     1

   ID    Z sym.   atoms
    1    6 C      1, 3, 5, 7-10, 12, 13, 15, 18, 19, 22, 23, 25
    2    8 O      2, 4, 14, 20, 24, 26
    3    7 N      6, 11, 16, 17, 21
    4    1 H      27-46

           -------------------------------------------------
          |                 G F N 1 - x T B                 |
           -------------------------------------------------

        Reference                      10.1021/acs.jctc.7b00118
      * Hamiltonian:
        H0-scaling (s, p, d)           1.850000    2.250000    2.000000
        zeta-weighting                 0.000000
      * Dispersion:
        s8                             2.400000
        a1                             0.630000
        a2                             5.000000
        s9                             0.000000
      * Repulsion:
        kExp                           1.500000
        rExp                           1.000000
      * Coulomb:
        alpha                          2.000000
        third order                    atomic
        anisotropic                    false
      * Halogen bond correction:
        rad-scale                      1.300000
        damping                        0.440000

      * Solvation model:               ALPB
        Solvent                        DMSO
        Parameter file                 internal GFN1-xTB/ALPB
        Dielectric constant                4.6680E+01
        Reference state                gsolv [1 M gas/solution]
        Free energy shift                  7.6243E-03 Eh       4.7843E+00 kcal/mol
        Temperature                        2.9815E+02 K
        Density                            1.1000E+00 kg/L
        Solvent mass                       7.8130E+01 g/mol
        Interaction kernel             P16
        Born radius scaling (c1)           1.7672E+00
        Born radii integrator          GBOBC
        Born offset                        0.0000E+00 a0       0.0000E+00 AA
        H-bond correction              true
        Ion screening                  false
        Surface tension                    1.0000E-05 Eh       1.5569E+01 dyn/cm
        Grid points                               230 per atom

          ...................................................
          :                      SETUP                      :
          :.................................................:
          :  # basis functions                 144          :
          :  # atomic orbitals                 144          :
          :  # shells                           92          :
          :  # electrons                       140          :
          :  # halogen bonds                     0          :
          :  max. iterations                   250          :
          :  Hamiltonian                  GFN1-xTB          :
          :  restarted?                      false          :
          :  GBSA solvation                   true          :
          :  PC potential                    false          :
          :  electronic temp.          300.0000000     K    :
          :  accuracy                    1.0000000          :
          :  -> integral cutoff          0.2500000E+02      :
          :  -> integral neglect         0.1000000E-07      :
          :  -> SCF convergence          0.1000000E-05 Eh   :
          :  -> wf. convergence          0.2000000E-04 e    :
          :  Broyden damping             0.4000000          :
          ...................................................

 iter      E             dE          RMSdq      gap      omega  full diag
   1    -86.7059253 -0.867059E+02  0.830E+00    2.93       0.0  T
   2    -87.0937565 -0.387831E+00  0.498E+00    2.06       1.0  T
   3    -87.0752371  0.185194E-01  0.171E+00    2.10       1.0  T
   4    -87.1142893 -0.390522E-01  0.227E-01    1.64       1.0  T
   5    -87.1165960 -0.230674E-02  0.600E-02    1.73       1.0  T
   6    -87.1167177 -0.121670E-03  0.194E-02    1.75       1.0  T
   7    -87.1167253 -0.763733E-05  0.465E-03    1.76       3.2  T
   8    -87.1167256 -0.285174E-06  0.946E-04    1.76      15.6  T
   9    -87.1167256 -0.250770E-07  0.315E-04    1.76      46.8  T
  10    -87.1167256 -0.127544E-08  0.138E-04    1.76     107.0  T
  11    -87.1167256 -0.193310E-09  0.398E-05    1.76     370.8  T

   *** convergence criteria satisfied after 11 iterations ***

         #    Occupation            Energy/Eh            Energy/eV
      -------------------------------------------------------------
         1        2.0000           -0.9035124             -24.5858
       ...           ...                  ...                  ...
        64        2.0000           -0.5017864             -13.6543
        65        2.0000           -0.4928842             -13.4121
        66        2.0000           -0.4903015             -13.3418
        67        2.0000           -0.4865585             -13.2399
        68        2.0000           -0.4837193             -13.1627
        69        2.0000           -0.4668415             -12.7034
        70        2.0000           -0.4503561             -12.2548 (HOMO)
        71                         -0.3855767             -10.4921 (LUMO)
        72                         -0.3488179              -9.4918
        73                         -0.3154314              -8.5833
        74                         -0.2963533              -8.0642
        75                         -0.2660029              -7.2383
       ...                                ...                  ...
       144                          0.6895491              18.7636
      -------------------------------------------------------------
                  HL-Gap            0.0647794 Eh            1.7627 eV
             Fermi-level           -0.4179664 Eh          -11.3734 eV

 SCC (total)                   0 d,  0 h,  0 min,  0.176 sec
 SCC setup                      ...        0 min,  0.002 sec (  1.205%)
 Dispersion                     ...        0 min,  0.000 sec (  0.203%)
 classical contributions        ...        0 min,  0.000 sec (  0.066%)
 integral evaluation            ...        0 min,  0.031 sec ( 17.684%)
 iterations                     ...        0 min,  0.070 sec ( 39.493%)
 molecular gradient             ...        0 min,  0.071 sec ( 40.503%)
 printout                       ...        0 min,  0.001 sec (  0.835%)

         :::::::::::::::::::::::::::::::::::::::::::::::::::::
         ::                     SUMMARY                     ::
         :::::::::::::::::::::::::::::::::::::::::::::::::::::
         :: total energy             -86.307193087401 Eh    ::
         :: total w/o Gsasa/hb       -86.284668318155 Eh    ::
         :: gradient norm              0.126111258062 Eh/a0 ::
         :: HOMO-LUMO gap              1.762736970326 eV    ::
         ::.................................................::
         :: SCC energy               -87.116725643414 Eh    ::
         :: -> electrostatic           0.413098691008 Eh    ::
         :: -> Gsolv                  -0.110707796317 Eh    ::
         ::    -> Gelec               -0.088183027071 Eh    ::
         ::    -> Gsasa               -0.023859368731 Eh    ::
         ::    -> Ghb                 -0.006289679521 Eh    ::
         ::    -> Gshift               0.007624279005 Eh    ::
         :: repulsion energy           0.840460062186 Eh    ::
         :: dispersion energy         -0.030927506173 Eh    ::
         :: halogen bond corr.         0.000000000000 Eh    ::
         :: add. restraining           0.000000000000 Eh    ::
         :: total charge               1.000000000000 e     ::
         :::::::::::::::::::::::::::::::::::::::::::::::::::::

      ----------------------------------------------------------- 
     |                   =====================                   |
     |                        A N C O P T                        |
     |                   =====================                   |
     |               Approximate Normal Coordinate               |
     |                Rational Function Optimizer                |
      ----------------------------------------------------------- 

          ...................................................
          :                      SETUP                      :
          :.................................................:
          :   optimization level            normal          :
          :   max. optcycles                   200          :
          :   ANC micro-cycles                  20          :
          :   degrees of freedom               132          :
          :.................................................:
          :   RF solver                   davidson          :
          :   write xtbopt.log                true          :
          :   linear?                        false          :
          :   energy convergence         0.5000000E-05 Eh   :
          :   grad. convergence          0.1000000E-02 Eh/α :
          :   maximium RF displ.         1.0000000          :
          :   Hlow (freq-cutoff)         0.1000000E-01      :
          :   Hmax (freq-cutoff)         5.0000000          :
          :   S6 in model hess.         20.0000000          :
          ...................................................

generating ANC from model Hessian ...
Using Lindh-Hessian (1995)
 Shifting diagonal of input Hessian by   9.792039810497779E-003
 Lowest  eigenvalues of input Hessian
    0.000000    0.000000    0.000000    0.000000    0.000000    0.000000
    0.010000    0.010149    0.010353    0.010793    0.011476    0.012568
    0.012789    0.013971    0.014632    0.015263    0.015567    0.016339
 Highest eigenvalues
    2.046161    2.094431    2.156324    2.339680    2.344819    2.380919
 

........................................................................
.............................. CYCLE    1 ..............................
........................................................................
   1    -87.1167256 -0.871167E+02  0.127E-05    1.76       0.0  T
   2    -87.1167256 -0.284217E-11  0.613E-06    1.76    2405.0  T
   3    -87.1167256 -0.781597E-12  0.354E-06    1.76    4167.0  T
     SCC iter.                  ...        0 min,  0.018 sec
     gradient                   ...        0 min,  0.067 sec
 * total energy  :   -86.3071931 Eh     change       -0.2549427E-10 Eh
   gradient norm :     0.1261116 Eh/α   predicted     0.0000000E+00 (-100.00%)
   displ. norm   :     0.3591400 α      lambda       -0.1866107E-01
   maximum displ.:     0.1381738 α      in ANC's #25, #24, #23, ...

........................................................................
.............................. CYCLE    2 ..............................
........................................................................
   1    -87.1354923 -0.871355E+02  0.814E-02    1.71       0.0  T
   2    -87.1358110 -0.318682E-03  0.383E-02    1.70       1.0  T
   3    -87.1358558 -0.448812E-04  0.158E-02    1.70       1.0  T
   4    -87.1358561 -0.207582E-06  0.702E-03    1.70       2.1  T
   5    -87.1358565 -0.427636E-06  0.142E-03    1.70      10.3  T
   6    -87.1358565 -0.487680E-07  0.289E-04    1.70      50.9  T
   7    -87.1358565 -0.136613E-08  0.106E-04    1.70     139.7  T
   8    -87.1358565 -0.107775E-09  0.290E-05    1.70     508.7  T
     SCC iter.                  ...        0 min,  0.049 sec
     gradient                   ...        0 min,  0.066 sec
 * total energy  :   -86.3208853 Eh     change       -0.1369222E-01 Eh
   gradient norm :     0.0632583 Eh/α   predicted    -0.1054689E-01 ( -22.97%)
   displ. norm   :     0.3938019 α      lambda       -0.8862228E-02
   maximum displ.:     0.1450516 α      in ANC's #25, #16, #23, ...

........................................................................
.............................. CYCLE    3 ..............................
........................................................................
   1    -87.1489375 -0.871489E+02  0.779E-02    1.66       0.0  T
   2    -87.1492583 -0.320821E-03  0.338E-02    1.63       1.0  T
   3    -87.1492918 -0.335399E-04  0.142E-02    1.63       1.0  T
   4    -87.1492921 -0.282757E-06  0.681E-03    1.62       2.2  T
   5    -87.1492925 -0.395312E-06  0.125E-03    1.62      11.8  T
   6    -87.1492926 -0.364334E-07  0.264E-04    1.62      55.7  T
   7    -87.1492926 -0.130156E-08  0.115E-04    1.62     128.7  T
   8    -87.1492926 -0.144439E-09  0.244E-05    1.62     603.7  T
     SCC iter.                  ...        0 min,  0.047 sec
     gradient                   ...        0 min,  0.066 sec
 * total energy  :   -86.3263782 Eh     change       -0.5492902E-02 Eh
   gradient norm :     0.0204718 Eh/α   predicted    -0.5120236E-02 (  -6.78%)
   displ. norm   :     0.2914563 α      lambda       -0.1820024E-02
   maximum displ.:     0.1272816 α      in ANC's #2, #16, #23, ...

........................................................................
.............................. CYCLE    4 ..............................
........................................................................
   1    -87.1514519 -0.871515E+02  0.235E-02    1.62       0.0  T
   2    -87.1514811 -0.291613E-04  0.870E-03    1.61       1.7  T
   3    -87.1514820 -0.905348E-06  0.420E-03    1.60       3.5  T
   4    -87.1514820 -0.319575E-07  0.175E-03    1.60       8.4  T
   5    -87.1514820 -0.211125E-07  0.273E-04    1.60      54.1  T
   6    -87.1514820 -0.115247E-08  0.111E-04    1.60     132.5  T
   7    -87.1514820 -0.188351E-09  0.402E-05    1.60     366.3  T
     SCC iter.                  ...        0 min,  0.044 sec
     gradient                   ...        0 min,  0.068 sec
 * total energy  :   -86.3277029 Eh     change       -0.1324698E-02 Eh
   gradient norm :     0.0139364 Eh/α   predicted    -0.9873263E-03 ( -25.47%)
   displ. norm   :     0.3374825 α      lambda       -0.1163306E-02
   maximum displ.:     0.1904487 α      in ANC's #2, #18, #5, ...

........................................................................
.............................. CYCLE    5 ..............................
........................................................................
   1    -87.1520672 -0.871521E+02  0.182E-02    1.61       0.0  T
   2    -87.1520820 -0.148443E-04  0.705E-03    1.60       2.1  T
   3    -87.1520832 -0.113519E-05  0.345E-03    1.60       4.3  T
   4    -87.1520833 -0.892595E-07  0.160E-03    1.60       9.2  T
   5    -87.1520833 -0.135628E-07  0.275E-04    1.59      53.7  T
   6    -87.1520833 -0.256276E-08  0.863E-05    1.59     170.9  T
   7    -87.1520833 -0.117410E-09  0.296E-05    1.59     498.9  T
     SCC iter.                  ...        0 min,  0.042 sec
     gradient                   ...        0 min,  0.069 sec
 * total energy  :   -86.3285133 Eh     change       -0.8104133E-03 Eh
   gradient norm :     0.0091580 Eh/α   predicted    -0.6479023E-03 ( -20.05%)
   displ. norm   :     0.2973538 α      lambda       -0.5652765E-03
   maximum displ.:     0.2006022 α      in ANC's #2, #5, #18, ...

........................................................................
.............................. CYCLE    6 ..............................
........................................................................
   1    -87.1527439 -0.871527E+02  0.118E-02    1.60       0.0  T
   2    -87.1527499 -0.600213E-05  0.535E-03    1.60       2.8  T
   3    -87.1527508 -0.882559E-06  0.243E-03    1.60       6.1  T
   4    -87.1527508 -0.239015E-07  0.971E-04    1.60      15.2  T
   5    -87.1527508 -0.489850E-08  0.213E-04    1.60      69.1  T
   6    -87.1527508 -0.110447E-08  0.501E-05    1.60     294.5  T
   7    -87.1527508 -0.384404E-10  0.170E-05    1.60     867.6  T
     SCC iter.                  ...        0 min,  0.041 sec
     gradient                   ...        0 min,  0.066 sec
 * total energy  :   -86.3289427 Eh     change       -0.4293301E-03 Eh
   gradient norm :     0.0079856 Eh/α   predicted    -0.3076845E-03 ( -28.33%)
   displ. norm   :     0.3052631 α      lambda       -0.4564575E-03
   maximum displ.:     0.2201438 α      in ANC's #2, #5, #8, ...

........................................................................
.............................. CYCLE    7 ..............................
........................................................................
   1    -87.1537819 -0.871538E+02  0.100E-02    1.60       0.0  T
   2    -87.1537867 -0.483370E-05  0.474E-03    1.60       3.1  T
   3    -87.1537872 -0.525821E-06  0.223E-03    1.61       6.6  T
   4    -87.1537872 -0.643630E-08  0.867E-04    1.61      17.0  T
   5    -87.1537873 -0.101954E-07  0.207E-04    1.61      71.1  T
   6    -87.1537873 -0.661558E-09  0.541E-05    1.61     272.6  T
   7    -87.1537873 -0.539302E-10  0.155E-05    1.61     954.0  T
     SCC iter.                  ...        0 min,  0.043 sec
     gradient                   ...        0 min,  0.072 sec
 * total energy  :   -86.3293103 Eh     change       -0.3676932E-03 Eh
   gradient norm :     0.0079108 Eh/α   predicted    -0.2494969E-03 ( -32.15%)
   displ. norm   :     0.3232846 α      lambda       -0.4237632E-03
   maximum displ.:     0.2418628 α      in ANC's #2, #8, #5, ...

........................................................................
.............................. CYCLE    8 ..............................
........................................................................
   1    -87.1547831 -0.871548E+02  0.890E-03    1.61       0.0  T
   2    -87.1547871 -0.404776E-05  0.376E-03    1.61       3.9  T
   3    -87.1547873 -0.182334E-06  0.180E-03    1.61       8.2  T
   4    -87.1547873 -0.753815E-08  0.726E-04    1.62      20.3  T
   5    -87.1547873 -0.565772E-08  0.187E-04    1.62      78.7  T
   6    -87.1547873 -0.410623E-09  0.596E-05    1.62     247.6  T
     SCC iter.                  ...        0 min,  0.037 sec
     gradient                   ...        0 min,  0.070 sec
 * total energy  :   -86.3296548 Eh     change       -0.3444065E-03 Eh
   gradient norm :     0.0073595 Eh/α   predicted    -0.2340273E-03 ( -32.05%)
   displ. norm   :     0.3217895 α      lambda       -0.3570308E-03
   maximum displ.:     0.2501442 α      in ANC's #2, #3, #8, ...

........................................................................
.............................. CYCLE    9 ..............................
........................................................................
   1    -87.1554207 -0.871554E+02  0.744E-03    1.61       0.0  T
   2    -87.1554232 -0.257704E-05  0.273E-03    1.62       5.4  T
   3    -87.1554233 -0.888198E-07  0.137E-03    1.62      10.8  T
   4    -87.1554233 -0.104677E-07  0.624E-04    1.62      23.6  T
   5    -87.1554233 -0.436560E-08  0.158E-04    1.62      93.5  T
   6    -87.1554233 -0.330161E-09  0.537E-05    1.62     274.6  T
     SCC iter.                  ...        0 min,  0.036 sec
     gradient                   ...        0 min,  0.067 sec
 * total energy  :   -86.3299474 Eh     change       -0.2926799E-03 Eh
   gradient norm :     0.0060775 Eh/α   predicted    -0.1970007E-03 ( -32.69%)
   displ. norm   :     0.2979088 α      lambda       -0.2856604E-03
   maximum displ.:     0.2402012 α      in ANC's #2, #3, #20, ...

........................................................................
.............................. CYCLE   10 ..............................
........................................................................
   1    -87.1558789 -0.871559E+02  0.609E-03    1.62       0.0  T
   2    -87.1558804 -0.154584E-05  0.240E-03    1.63       6.2  T
   3    -87.1558806 -0.105227E-06  0.124E-03    1.63      11.9  T
   4    -87.1558806 -0.137407E-07  0.561E-04    1.63      26.3  T
   5    -87.1558806 -0.208941E-08  0.143E-04    1.63     102.9  T
   6    -87.1558806 -0.284558E-09  0.423E-05    1.63     348.4  T
     SCC iter.                  ...        0 min,  0.035 sec
     gradient                   ...        0 min,  0.057 sec
 * total energy  :   -86.3301892 Eh     change       -0.2417604E-03 Eh
   gradient norm :     0.0050423 Eh/α   predicted    -0.1555093E-03 ( -35.68%)
   displ. norm   :     0.2774703 α      lambda       -0.2447918E-03
   maximum displ.:     0.2286573 α      in ANC's #2, #3, #12, ...

........................................................................
.............................. CYCLE   11 ..............................
........................................................................
   1    -87.1562475 -0.871562E+02  0.509E-03    1.63       0.0  T
   2    -87.1562486 -0.111150E-05  0.226E-03    1.63       6.5  T
   3    -87.1562487 -0.896193E-07  0.109E-03    1.63      13.6  T
   4    -87.1562487 -0.280352E-08  0.452E-04    1.63      32.6  T
   5    -87.1562487 -0.189631E-08  0.120E-04    1.63     123.2  T
   6    -87.1562487 -0.202618E-09  0.309E-05    1.63     476.5  T
     SCC iter.                  ...        0 min,  0.035 sec
     gradient                   ...        0 min,  0.067 sec
 * total energy  :   -86.3304023 Eh     change       -0.2130600E-03 Eh
   gradient norm :     0.0047166 Eh/α   predicted    -0.1318225E-03 ( -38.13%)
   displ. norm   :     0.2702138 α      lambda       -0.2233851E-03
   maximum displ.:     0.2244177 α      in ANC's #2, #3, #12, ...

........................................................................
.............................. CYCLE   12 ..............................
........................................................................
   1    -87.1565411 -0.871565E+02  0.467E-03    1.63       0.0  T
   2    -87.1565422 -0.104936E-05  0.198E-03    1.63       7.4  T
   3    -87.1565422 -0.616374E-07  0.913E-04    1.63      16.2  T
   4    -87.1565422 -0.100925E-08  0.336E-04    1.63      43.9  T
   5    -87.1565422 -0.788702E-09  0.724E-05    1.63     203.7  T
   6    -87.1565422 -0.529212E-10  0.216E-05    1.63     682.5  T
     SCC iter.                  ...        0 min,  0.035 sec
     gradient                   ...        0 min,  0.066 sec
 * total energy  :   -86.3305950 Eh     change       -0.1927908E-03 Eh
   gradient norm :     0.0044993 Eh/α   predicted    -0.1198496E-03 ( -37.83%)
   displ. norm   :     0.2457361 α      lambda       -0.1823685E-03
   maximum displ.:     0.2068401 α      in ANC's #2, #3, #12, ...

........................................................................
.............................. CYCLE   13 ..............................
........................................................................
   1    -87.1570004 -0.871570E+02  0.446E-03    1.63       0.0  T
   2    -87.1570014 -0.103424E-05  0.159E-03    1.63       9.3  T
   3    -87.1570014 -0.538137E-07  0.739E-04    1.63      19.9  T
   4    -87.1570014 -0.197781E-08  0.323E-04    1.63      45.7  T
   5    -87.1570014 -0.102926E-08  0.840E-05    1.63     175.4  T
   6    -87.1570014 -0.154131E-09  0.279E-05    1.63     527.8  T
     SCC iter.                  ...        0 min,  0.031 sec
     gradient                   ...        0 min,  0.064 sec
 * total energy  :   -86.3307520 Eh     change       -0.1569935E-03 Eh
   gradient norm :     0.0038786 Eh/α   predicted    -0.9670810E-04 ( -38.40%)
   displ. norm   :     0.2119472 α      lambda       -0.1392708E-03
   maximum displ.:     0.1811526 α      in ANC's #2, #3, #12, ...

........................................................................
.............................. CYCLE   14 ..............................
........................................................................
   1    -87.1573001 -0.871573E+02  0.408E-03    1.63       0.0  T
   2    -87.1573009 -0.822360E-06  0.134E-03    1.62      11.0  T
   3    -87.1573010 -0.485517E-07  0.677E-04    1.62      21.8  T
   4    -87.1573010 -0.375424E-08  0.314E-04    1.62      46.9  T
   5    -87.1573010 -0.693333E-09  0.796E-05    1.62     185.2  T
   6    -87.1573010 -0.119044E-09  0.267E-05    1.62     551.4  T
     SCC iter.                  ...        0 min,  0.032 sec
     gradient                   ...        0 min,  0.058 sec
 * total energy  :   -86.3308745 Eh     change       -0.1224395E-03 Eh
   gradient norm :     0.0030813 Eh/α   predicted    -0.7276729E-04 ( -40.57%)
   displ. norm   :     0.1802245 α      lambda       -0.1112648E-03
   maximum displ.:     0.1569747 α      in ANC's #2, #3, #12, ...

........................................................................
.............................. CYCLE   15 ..............................
........................................................................
   1    -87.1578467 -0.871578E+02  0.343E-03    1.62       0.0  T
   2    -87.1578473 -0.521103E-06  0.129E-03    1.62      11.5  T
   3    -87.1578473 -0.339605E-07  0.706E-04    1.62      20.9  T
   4    -87.1578473 -0.254967E-08  0.307E-04    1.62      48.0  T
   5    -87.1578473 -0.886203E-09  0.661E-05    1.62     223.2  T
   6    -87.1578473 -0.882210E-10  0.223E-05    1.62     661.6  T
     SCC iter.                  ...        0 min,  0.028 sec
     gradient                   ...        0 min,  0.058 sec
 * total energy  :   -86.3309739 Eh     change       -0.9944935E-04 Eh
   gradient norm :     0.0026100 Eh/α   predicted    -0.5744080E-04 ( -42.24%)
   displ. norm   :     0.1638000 α      lambda       -0.9681666E-04
   maximum displ.:     0.1432824 α      in ANC's #2, #3, #19, ...

........................................................................
.............................. CYCLE   16 ..............................
........................................................................
   1    -87.1578376 -0.871578E+02  0.277E-03    1.62       0.0  T
   2    -87.1578379 -0.312486E-06  0.115E-03    1.62      12.8  T
   3    -87.1578380 -0.184530E-07  0.621E-04    1.62      23.7  T
   4    -87.1578380 -0.941895E-09  0.245E-04    1.62      60.1  T
   5    -87.1578380 -0.767642E-09  0.538E-05    1.62     274.2  T
   6    -87.1578380 -0.515854E-10  0.188E-05    1.62     785.2  T
     SCC iter.                  ...        0 min,  0.026 sec
     gradient                   ...        0 min,  0.069 sec
 * total energy  :   -86.3310619 Eh     change       -0.8795359E-04 Eh
   gradient norm :     0.0023206 Eh/α   predicted    -0.4970808E-04 ( -43.48%)
   displ. norm   :     0.1604023 α      lambda       -0.9425420E-04
   maximum displ.:     0.1400882 α      in ANC's #2, #19, #3, ...

........................................................................
.............................. CYCLE   17 ..............................
........................................................................
   1    -87.1583364 -0.871583E+02  0.268E-03    1.62       0.0  T
   2    -87.1583366 -0.216258E-06  0.122E-03    1.62      12.1  T
   3    -87.1583367 -0.103385E-07  0.670E-04    1.62      22.0  T
   4    -87.1583367 -0.655206E-09  0.191E-04    1.62      77.2  T
   5    -87.1583367 -0.534115E-09  0.394E-05    1.62     373.9  T
     SCC iter.                  ...        0 min,  0.024 sec
     gradient                   ...        0 min,  0.042 sec
 * total energy  :   -86.3311474 Eh     change       -0.8554762E-04 Eh
   gradient norm :     0.0025639 Eh/α   predicted    -0.4834189E-04 ( -43.49%)
   displ. norm   :     0.1730023 α      lambda       -0.9732215E-04
   maximum displ.:     0.1484645 α      in ANC's #2, #19, #4, ...

........................................................................
.............................. CYCLE   18 ..............................
........................................................................
   1    -87.1579112 -0.871579E+02  0.242E-03    1.62       0.0  T
   2    -87.1579114 -0.191629E-06  0.102E-03    1.62      14.5  T
   3    -87.1579114 -0.942734E-08  0.577E-04    1.62      25.6  T
   4    -87.1579114 -0.812051E-09  0.197E-04    1.62      75.0  T
   5    -87.1579114 -0.666233E-09  0.429E-05    1.62     343.9  T
     SCC iter.                  ...        0 min,  0.034 sec
     gradient                   ...        0 min,  0.044 sec
 * total energy  :   -86.3312365 Eh     change       -0.8908988E-04 Eh
   gradient norm :     0.0024089 Eh/α   predicted    -0.5011874E-04 ( -43.74%)
   displ. norm   :     0.1868276 α      lambda       -0.1001395E-03
   maximum displ.:     0.1572559 α      in ANC's #2, #19, #4, ...

........................................................................
.............................. CYCLE   19 ..............................
........................................................................
   1    -87.1579625 -0.871580E+02  0.247E-03    1.62       0.0  T
   2    -87.1579627 -0.194393E-06  0.913E-04    1.62      16.2  T
   3    -87.1579627 -0.122783E-07  0.535E-04    1.62      27.6  T
   4    -87.1579627 -0.289840E-08  0.198E-04    1.62      74.7  T
   5    -87.1579627 -0.298115E-09  0.408E-05    1.62     361.6  T
     SCC iter.                  ...        0 min,  0.019 sec
     gradient                   ...        0 min,  0.042 sec
 * total energy  :   -86.3313291 Eh     change       -0.9261887E-04 Eh
   gradient norm :     0.0025909 Eh/α   predicted    -0.5181847E-04 ( -44.05%)
   displ. norm   :     0.2092955 α      lambda       -0.1066400E-03
   maximum displ.:     0.1733671 α      in ANC's #2, #4, #19, ...

........................................................................
.............................. CYCLE   20 ..............................
........................................................................
   1    -87.1575579 -0.871576E+02  0.256E-03    1.62       0.0  T
   2    -87.1575581 -0.195610E-06  0.918E-04    1.62      16.1  T
   3    -87.1575582 -0.148013E-07  0.546E-04    1.63      27.0  T
   4    -87.1575582 -0.428257E-08  0.202E-04    1.63      72.9  T
   5    -87.1575582 -0.203997E-09  0.487E-05    1.63     303.0  T
   6    -87.1575582 -0.225526E-10  0.173E-05    1.63     849.8  T
     SCC iter.                  ...        0 min,  0.023 sec
     gradient                   ...        0 min,  0.042 sec
 * total energy  :   -86.3314260 Eh     change       -0.9684730E-04 Eh
   gradient norm :     0.0024556 Eh/α   predicted    -0.5565624E-04 ( -42.53%)
   displ. norm   :     0.2175450 α      lambda       -0.1022811E-03
   maximum displ.:     0.1791448 α      in ANC's #2, #4, #19, ...
 * RMSD in coord.:     0.6140044 α      energy gain  -0.2423290E-01 Eh

generating ANC from model Hessian ...
Using Lindh-Hessian (1995)
 Shifting diagonal of input Hessian by   9.834105411601993E-003
 Lowest  eigenvalues of input Hessian
    0.000000    0.000000    0.000000    0.000000    0.000000    0.000000
    0.010000    0.010180    0.010460    0.010801    0.011256    0.012468
    0.012670    0.014071    0.014581    0.014980    0.015700    0.015943
 Highest eigenvalues
    2.081740    2.093065    2.186446    2.376844    2.403477    2.426868
 

........................................................................
.............................. CYCLE   21 ..............................
........................................................................
   1    -87.1574849 -0.871575E+02  0.272E-03    1.63       0.0  T
   2    -87.1574851 -0.204582E-06  0.102E-03    1.63      14.5  T
   3    -87.1574851 -0.153230E-07  0.569E-04    1.63      25.9  T
   4    -87.1574851 -0.448749E-08  0.222E-04    1.63      66.3  T
   5    -87.1574851 -0.334481E-09  0.584E-05    1.63     252.4  T
   6    -87.1574852 -0.316902E-10  0.194E-05    1.63     759.3  T
     SCC iter.                  ...        0 min,  0.022 sec
     gradient                   ...        0 min,  0.041 sec
 * total energy  :   -86.3315176 Eh     change       -0.9161793E-04 Eh
   gradient norm :     0.0024132 Eh/α   predicted     0.0000000E+00 (-100.00%)
   displ. norm   :     0.0474033 α      lambda       -0.3437313E-04
   maximum displ.:     0.0394358 α      in ANC's #2, #10, #9, ...

........................................................................
.............................. CYCLE   22 ..............................
........................................................................
   1    -87.1577227 -0.871577E+02  0.148E-03    1.63       0.0  T
   2    -87.1577227 -0.400456E-07  0.715E-04    1.63      20.6  T
   3    -87.1577227 -0.199424E-08  0.393E-04    1.63      37.5  T
   4    -87.1577227 -0.683585E-09  0.969E-05    1.63     152.1  T
   5    -87.1577227 -0.223423E-09  0.245E-05    1.63     601.1  T
     SCC iter.                  ...        0 min,  0.019 sec
     gradient                   ...        0 min,  0.042 sec
 * total energy  :   -86.3315491 Eh     change       -0.3151824E-04 Eh
   gradient norm :     0.0013624 Eh/α   predicted    -0.1745979E-04 ( -44.60%)
   displ. norm   :     0.1887410 α      lambda       -0.7563517E-04
   maximum displ.:     0.1398963 α      in ANC's #2, #5, #10, ...

........................................................................
.............................. CYCLE   23 ..............................
........................................................................
   1    -87.1579673 -0.871580E+02  0.431E-03    1.63       0.0  T
   2    -87.1579678 -0.473073E-06  0.184E-03    1.63       8.0  T
   3    -87.1579678 -0.275690E-07  0.107E-03    1.63      13.8  T
   4    -87.1579678 -0.368895E-08  0.328E-04    1.63      44.9  T
   5    -87.1579678 -0.192651E-08  0.790E-05    1.63     186.6  T
   6    -87.1579678 -0.117012E-09  0.263E-05    1.63     560.1  T
     SCC iter.                  ...        0 min,  0.023 sec
     gradient                   ...        0 min,  0.041 sec
 * total energy  :   -86.3316355 Eh     change       -0.8637872E-04 Eh
   gradient norm :     0.0023338 Eh/α   predicted    -0.3841758E-04 ( -55.52%)
   displ. norm   :     0.1421653 α      lambda       -0.5986007E-04
   maximum displ.:     0.1031146 α      in ANC's #2, #5, #10, ...

........................................................................
.............................. CYCLE   24 ..............................
........................................................................
   1    -87.1579252 -0.871579E+02  0.189E-03    1.64       0.0  T
   2    -87.1579253 -0.956606E-07  0.722E-04    1.64      20.4  T
   3    -87.1579253 -0.456637E-08  0.384E-04    1.64      38.4  T
   4    -87.1579253 -0.598988E-09  0.133E-04    1.64     111.2  T
   5    -87.1579253 -0.165301E-09  0.342E-05    1.64     431.2  T
     SCC iter.                  ...        0 min,  0.019 sec
     gradient                   ...        0 min,  0.042 sec
 * total energy  :   -86.3316889 Eh     change       -0.5336469E-04 Eh
   gradient norm :     0.0026883 Eh/α   predicted    -0.3057959E-04 ( -42.70%)
   displ. norm   :     0.2071891 α      lambda       -0.8101403E-04
   maximum displ.:     0.1456829 α      in ANC's #2, #5, #3, ...

........................................................................
.............................. CYCLE   25 ..............................
........................................................................
   1    -87.1577506 -0.871578E+02  0.219E-03    1.64       0.0  T
   2    -87.1577507 -0.132656E-06  0.906E-04    1.64      16.3  T
   3    -87.1577507 -0.614646E-08  0.421E-04    1.64      35.0  T
   4    -87.1577507 -0.116815E-08  0.190E-04    1.64      77.6  T
   5    -87.1577507 -0.506247E-09  0.480E-05    1.64     307.2  T
     SCC iter.                  ...        0 min,  0.019 sec
     gradient                   ...        0 min,  0.041 sec
 * total energy  :   -86.3317597 Eh     change       -0.7083417E-04 Eh
   gradient norm :     0.0026827 Eh/α   predicted    -0.4224729E-04 ( -40.36%)
   displ. norm   :     0.2623117 α      lambda       -0.9437389E-04
   maximum displ.:     0.1828784 α      in ANC's #2, #5, #3, ...

........................................................................
.............................. CYCLE   26 ..............................
........................................................................
   1    -87.1574758 -0.871575E+02  0.269E-03    1.64       0.0  T
   2    -87.1574760 -0.274912E-06  0.109E-03    1.64      13.6  T
   3    -87.1574761 -0.119584E-07  0.522E-04    1.64      28.2  T
   4    -87.1574761 -0.319197E-08  0.247E-04    1.64      59.8  T
   5    -87.1574761 -0.821942E-09  0.589E-05    1.64     250.3  T
   6    -87.1574761 -0.201936E-10  0.224E-05    1.64     659.1  T
     SCC iter.                  ...        0 min,  0.023 sec
     gradient                   ...        0 min,  0.043 sec
 * total energy  :   -86.3318425 Eh     change       -0.8281873E-04 Eh
   gradient norm :     0.0026143 Eh/α   predicted    -0.5043449E-04 ( -39.10%)
   displ. norm   :     0.3149869 α      lambda       -0.1103528E-03
   maximum displ.:     0.2200616 α      in ANC's #2, #5, #3, ...

........................................................................
.............................. CYCLE   27 ..............................
........................................................................
   1    -87.1572111 -0.871572E+02  0.329E-03    1.64       0.0  T
   2    -87.1572116 -0.496367E-06  0.128E-03    1.64      11.5  T
   3    -87.1572116 -0.245325E-07  0.641E-04    1.65      23.0  T
   4    -87.1572116 -0.495146E-08  0.287E-04    1.65      51.3  T
   5    -87.1572116 -0.844764E-09  0.717E-05    1.65     205.6  T
   6    -87.1572116 -0.351719E-10  0.281E-05    1.65     525.1  T
     SCC iter.                  ...        0 min,  0.022 sec
     gradient                   ...        0 min,  0.041 sec
 * total energy  :   -86.3319411 Eh     change       -0.9859131E-04 Eh
   gradient norm :     0.0026780 Eh/α   predicted    -0.6065477E-04 ( -38.48%)
   displ. norm   :     0.3838610 α      lambda       -0.1369521E-03
   maximum displ.:     0.2691018 α      in ANC's #2, #5, #3, ...

........................................................................
.............................. CYCLE   28 ..............................
........................................................................
   1    -87.1570793 -0.871571E+02  0.416E-03    1.64       0.0  T
   2    -87.1570802 -0.810106E-06  0.158E-03    1.65       9.3  T
   3    -87.1570802 -0.380809E-07  0.799E-04    1.65      18.5  T
   4    -87.1570802 -0.577842E-08  0.343E-04    1.65      43.0  T
   5    -87.1570802 -0.119954E-08  0.899E-05    1.65     163.9  T
   6    -87.1570802 -0.621441E-10  0.332E-05    1.65     443.9  T
     SCC iter.                  ...        0 min,  0.022 sec
     gradient                   ...        0 min,  0.042 sec
 * total energy  :   -86.3320632 Eh     change       -0.1221315E-03 Eh
   gradient norm :     0.0030135 Eh/α   predicted    -0.7857109E-04 ( -35.67%)
   displ. norm   :     0.4649486 α      lambda       -0.1640102E-03
   maximum displ.:     0.3277740 α      in ANC's #2, #5, #3, ...

........................................................................
.............................. CYCLE   29 ..............................
........................................................................
   1    -87.1568727 -0.871569E+02  0.496E-03    1.64       0.0  T
   2    -87.1568737 -0.106896E-05  0.187E-03    1.65       7.9  T
   3    -87.1568738 -0.466349E-07  0.936E-04    1.65      15.8  T
   4    -87.1568738 -0.643007E-08  0.380E-04    1.65      38.8  T
   5    -87.1568738 -0.146264E-08  0.101E-04    1.65     145.7  T
   6    -87.1568738 -0.755165E-10  0.366E-05    1.65     403.0  T
     SCC iter.                  ...        0 min,  0.023 sec
     gradient                   ...        0 min,  0.041 sec
 * total energy  :   -86.3322047 Eh     change       -0.1414449E-03 Eh
   gradient norm :     0.0036044 Eh/α   predicted    -0.9973383E-04 ( -29.49%)
   displ. norm   :     0.4820590 α      lambda       -0.1623484E-03
   maximum displ.:     0.3433852 α      in ANC's #2, #5, #3, ...

........................................................................
.............................. CYCLE   30 ..............................
........................................................................
   1    -87.1569966 -0.871570E+02  0.488E-03    1.65       0.0  T
   2    -87.1569975 -0.907666E-06  0.179E-03    1.65       8.2  T
   3    -87.1569975 -0.319679E-07  0.870E-04    1.65      16.9  T
   4    -87.1569975 -0.438563E-08  0.335E-04    1.65      44.1  T
   5    -87.1569975 -0.112944E-08  0.884E-05    1.65     166.8  T
   6    -87.1569975 -0.470806E-10  0.321E-05    1.65     459.3  T
     SCC iter.                  ...        0 min,  0.023 sec
     gradient                   ...        0 min,  0.043 sec
 * total energy  :   -86.3323462 Eh     change       -0.1415145E-03 Eh
   gradient norm :     0.0038997 Eh/α   predicted    -0.1000382E-03 ( -29.31%)
   displ. norm   :     0.4955034 α      lambda       -0.1639882E-03
   maximum displ.:     0.3553351 α      in ANC's #2, #3, #5, ...

........................................................................
.............................. CYCLE   31 ..............................
........................................................................
   1    -87.1572871 -0.871573E+02  0.484E-03    1.65       0.0  T
   2    -87.1572880 -0.832105E-06  0.165E-03    1.65       8.9  T
   3    -87.1572880 -0.226966E-07  0.798E-04    1.65      18.5  T
   4    -87.1572880 -0.312312E-08  0.295E-04    1.65      49.9  T
   5    -87.1572880 -0.774023E-09  0.807E-05    1.65     182.8  T
   6    -87.1572880 -0.584492E-10  0.317E-05    1.65     464.5  T
     SCC iter.                  ...        0 min,  0.022 sec
     gradient                   ...        0 min,  0.041 sec
 * total energy  :   -86.3324824 Eh     change       -0.1362328E-03 Eh
   gradient norm :     0.0038192 Eh/α   predicted    -0.1021263E-03 ( -25.04%)
   displ. norm   :     0.4587819 α      lambda       -0.1471849E-03
   maximum displ.:     0.3303055 α      in ANC's #2, #3, #5, ...

........................................................................
.............................. CYCLE   32 ..............................
........................................................................
   1    -87.1580506 -0.871581E+02  0.463E-03    1.65       0.0  T
   2    -87.1580514 -0.719476E-06  0.149E-03    1.66       9.9  T
   3    -87.1580514 -0.173243E-07  0.781E-04    1.66      18.9  T
   4    -87.1580514 -0.231007E-08  0.273E-04    1.66      53.9  T
   5    -87.1580514 -0.710870E-09  0.826E-05    1.66     178.5  T
   6    -87.1580514 -0.986233E-10  0.289E-05    1.66     510.4  T
     SCC iter.                  ...        0 min,  0.022 sec
     gradient                   ...        0 min,  0.041 sec
 * total energy  :   -86.3326019 Eh     change       -0.1195092E-03 Eh
   gradient norm :     0.0032240 Eh/α   predicted    -0.8908280E-04 ( -25.46%)
   displ. norm   :     0.4659899 α      lambda       -0.1279625E-03
   maximum displ.:     0.3324109 α      in ANC's #2, #3, #7, ...

........................................................................
.............................. CYCLE   33 ..............................
........................................................................
   1    -87.1571781 -0.871572E+02  0.456E-03    1.66       0.0  T
   2    -87.1571788 -0.647132E-06  0.166E-03    1.66       8.9  T
   3    -87.1571788 -0.152512E-07  0.868E-04    1.66      17.0  T
   4    -87.1571788 -0.190425E-08  0.262E-04    1.66      56.4  T
   5    -87.1571788 -0.620219E-09  0.770E-05    1.66     191.4  T
   6    -87.1571788 -0.969607E-10  0.273E-05    1.66     540.6  T
     SCC iter.                  ...        0 min,  0.022 sec
     gradient                   ...        0 min,  0.042 sec
 * total energy  :   -86.3326972 Eh     change       -0.9527416E-04 Eh
   gradient norm :     0.0034438 Eh/α   predicted    -0.7787529E-04 ( -18.26%)
   displ. norm   :     0.3957834 α      lambda       -0.1450887E-03
   maximum displ.:     0.2767316 α      in ANC's #2, #3, #1, ...

........................................................................
.............................. CYCLE   34 ..............................
........................................................................
   1    -87.1618857 -0.871619E+02  0.978E-03    1.67       0.0  T
   2    -87.1618874 -0.164946E-05  0.441E-03    1.67       3.3  T
   3    -87.1618874 -0.549935E-07  0.220E-03    1.67       6.7  T
   4    -87.1618875 -0.207885E-07  0.546E-04    1.67      27.0  T
   5    -87.1618875 -0.439080E-08  0.131E-04    1.67     112.2  T
   6    -87.1618875 -0.246288E-09  0.353E-05    1.67     418.1  T
     SCC iter.                  ...        0 min,  0.022 sec
     gradient                   ...        0 min,  0.042 sec
 * total energy  :   -86.3327355 Eh     change       -0.3827389E-04 Eh
   gradient norm :     0.0066035 Eh/α   predicted    -0.8391122E-04 ( 119.24%)
   displ. norm   :     0.2943371 α      lambda       -0.1231039E-03
   maximum displ.:     0.2014673 α      in ANC's #2, #3, #7, ...

........................................................................
.............................. CYCLE   35 ..............................
........................................................................
   1    -87.1578586 -0.871579E+02  0.703E-03    1.67       0.0  T
   2    -87.1578592 -0.620795E-06  0.365E-03    1.67       4.0  T
   3    -87.1578592 -0.139262E-07  0.165E-03    1.67       8.9  T
   4    -87.1578592 -0.405166E-07  0.395E-04    1.67      37.3  T
   5    -87.1578592 -0.125269E-08  0.810E-05    1.67     182.0  T
   6    -87.1578592 -0.159872E-09  0.237E-05    1.67     621.8  T
     SCC iter.                  ...        0 min,  0.022 sec
     gradient                   ...        0 min,  0.042 sec
 * total energy  :   -86.3328061 Eh     change       -0.7058560E-04 Eh
   gradient norm :     0.0030554 Eh/α   predicted    -0.6688588E-04 (  -5.24%)
   displ. norm   :     0.0785177 α      lambda       -0.4212955E-04
   maximum displ.:     0.0375923 α      in ANC's #3, #1, #2, ...

........................................................................
.............................. CYCLE   36 ..............................
........................................................................
   1    -87.1577241 -0.871577E+02  0.171E-03    1.67       0.0  T
   2    -87.1577243 -0.121672E-06  0.756E-04    1.67      19.5  T
   3    -87.1577243 -0.164059E-07  0.343E-04    1.67      43.0  T
   4    -87.1577243 -0.550074E-09  0.137E-04    1.67     107.6  T
   5    -87.1577243 -0.759144E-10  0.279E-05    1.67     528.5  T
     SCC iter.                  ...        0 min,  0.019 sec
     gradient                   ...        0 min,  0.042 sec
 * total energy  :   -86.3328435 Eh     change       -0.3742247E-04 Eh
   gradient norm :     0.0028174 Eh/α   predicted    -0.2119937E-04 ( -43.35%)
   displ. norm   :     0.2915409 α      lambda       -0.1604330E-03
   maximum displ.:     0.1413442 α      in ANC's #1, #3, #2, ...

........................................................................
.............................. CYCLE   37 ..............................
........................................................................
   1    -87.1576114 -0.871576E+02  0.636E-03    1.67       0.0  T
   2    -87.1576134 -0.192425E-05  0.260E-03    1.67       5.7  T
   3    -87.1576136 -0.230262E-06  0.118E-03    1.67      12.5  T
   4    -87.1576136 -0.649420E-08  0.489E-04    1.67      30.2  T
   5    -87.1576136 -0.538023E-09  0.945E-05    1.67     156.1  T
   6    -87.1576136 -0.185878E-09  0.344E-05    1.67     428.6  T
     SCC iter.                  ...        0 min,  0.022 sec
     gradient                   ...        0 min,  0.041 sec
 * total energy  :   -86.3329471 Eh     change       -0.1036062E-03 Eh
   gradient norm :     0.0038146 Eh/α   predicted    -0.8703847E-04 ( -15.99%)
   displ. norm   :     0.3067825 α      lambda       -0.6112356E-04
   maximum displ.:     0.1746002 α      in ANC's #2, #3, #1, ...

........................................................................
.............................. CYCLE   38 ..............................
........................................................................
   1    -87.1566850 -0.871567E+02  0.253E-03    1.67       0.0  T
   2    -87.1566852 -0.204248E-06  0.103E-03    1.68      14.3  T
   3    -87.1566852 -0.183316E-07  0.535E-04    1.68      27.6  T
   4    -87.1566852 -0.171316E-08  0.185E-04    1.68      79.7  T
   5    -87.1566852 -0.175390E-09  0.467E-05    1.68     316.0  T
     SCC iter.                  ...        0 min,  0.019 sec
     gradient                   ...        0 min,  0.041 sec
 * total energy  :   -86.3329930 Eh     change       -0.4592028E-04 Eh
   gradient norm :     0.0041622 Eh/α   predicted    -0.3344242E-04 ( -27.17%)
   displ. norm   :     0.2723539 α      lambda       -0.6049581E-04
   maximum displ.:     0.1489170 α      in ANC's #2, #3, #1, ...

........................................................................
.............................. CYCLE   39 ..............................
........................................................................
   1    -87.1572715 -0.871573E+02  0.202E-03    1.68       0.0  T
   2    -87.1572716 -0.105790E-06  0.105E-03    1.68      14.1  T
   3    -87.1572716 -0.710557E-08  0.526E-04    1.68      28.0  T
   4    -87.1572716 -0.123846E-08  0.169E-04    1.68      87.0  T
   5    -87.1572716 -0.223423E-09  0.413E-05    1.68     357.0  T
     SCC iter.                  ...        0 min,  0.019 sec
     gradient                   ...        0 min,  0.041 sec
 * total energy  :   -86.3330380 Eh     change       -0.4496820E-04 Eh
   gradient norm :     0.0027579 Eh/α   predicted    -0.3249275E-04 ( -27.74%)
   displ. norm   :     0.2486855 α      lambda       -0.4728674E-04
   maximum displ.:     0.1417954 α      in ANC's #2, #1, #3, ...

........................................................................
.............................. CYCLE   40 ..............................
........................................................................
   1    -87.1579031 -0.871579E+02  0.287E-03    1.68       0.0  T
   2    -87.1579034 -0.316479E-06  0.124E-03    1.68      11.9  T
   3    -87.1579034 -0.308109E-07  0.583E-04    1.68      25.3  T
   4    -87.1579034 -0.119260E-08  0.231E-04    1.68      63.7  T
   5    -87.1579034 -0.338460E-09  0.527E-05    1.68     280.0  T
   6    -87.1579034 -0.444658E-10  0.176E-05    1.68     840.0  T
     SCC iter.                  ...        0 min,  0.022 sec
     gradient                   ...        0 min,  0.042 sec
 * total energy  :   -86.3330715 Eh     change       -0.3349319E-04 Eh
   gradient norm :     0.0015861 Eh/α   predicted    -0.2510676E-04 ( -25.04%)
   displ. norm   :     0.1953914 α      lambda       -0.2556174E-04
   maximum displ.:     0.1222629 α      in ANC's #1, #3, #2, ...

........................................................................
.............................. CYCLE   41 ..............................
........................................................................
   1    -87.1589792 -0.871590E+02  0.339E-03    1.67       0.0  T
   2    -87.1589795 -0.322746E-06  0.158E-03    1.67       9.3  T
   3    -87.1589796 -0.338102E-07  0.821E-04    1.67      18.0  T
   4    -87.1589796 -0.141692E-08  0.230E-04    1.67      64.0  T
   5    -87.1589796 -0.477272E-09  0.523E-05    1.67     281.8  T
   6    -87.1589796 -0.910916E-10  0.180E-05    1.67     819.0  T
     SCC iter.                  ...        0 min,  0.022 sec
     gradient                   ...        0 min,  0.041 sec
 * total energy  :   -86.3330915 Eh     change       -0.1998338E-04 Eh
   gradient norm :     0.0021121 Eh/α   predicted    -0.1299905E-04 ( -34.95%)
   displ. norm   :     0.0722924 α      lambda       -0.1394730E-04
   maximum displ.:     0.0415554 α      in ANC's #1, #2, #3, ...

........................................................................
.............................. CYCLE   42 ..............................
........................................................................
   1    -87.1585138 -0.871585E+02  0.173E-03    1.67       0.0  T
   2    -87.1585139 -0.701002E-07  0.798E-04    1.67      18.5  T
   3    -87.1585139 -0.458438E-08  0.434E-04    1.67      33.9  T
   4    -87.1585139 -0.725763E-09  0.123E-04    1.67     119.4  T
   5    -87.1585139 -0.215252E-09  0.212E-05    1.67     696.3  T
     SCC iter.                  ...        0 min,  0.019 sec
     gradient                   ...        0 min,  0.042 sec
 * total energy  :   -86.3331020 Eh     change       -0.1052542E-04 Eh
   gradient norm :     0.0016100 Eh/α   predicted    -0.7013038E-05 ( -33.37%)
   displ. norm   :     0.0843548 α      lambda       -0.1926331E-04
   maximum displ.:     0.0584778 α      in ANC's #1, #5, #2, ...
 * RMSD in coord.:     0.8191224 α      energy gain  -0.1676009E-02 Eh

generating ANC from model Hessian ...
Using Lindh-Hessian (1995)
 Shifting diagonal of input Hessian by   9.813378220209088E-003
 Lowest  eigenvalues of input Hessian
    0.000000    0.000000    0.000000    0.000000    0.000000    0.000000
    0.010000    0.010259    0.010464    0.010928    0.011452    0.012399
    0.012934    0.014135    0.015007    0.015186    0.015571    0.016521
 Highest eigenvalues
    2.082296    2.094318    2.191916    2.378975    2.409724    2.428426
 

........................................................................
.............................. CYCLE   43 ..............................
........................................................................
   1    -87.1582355 -0.871582E+02  0.202E-03    1.67       0.0  T
   2    -87.1582357 -0.191888E-06  0.970E-04    1.67      15.2  T
   3    -87.1582357 -0.145528E-07  0.477E-04    1.67      30.9  T
   4    -87.1582357 -0.389818E-09  0.188E-04    1.67      78.3  T
   5    -87.1582357 -0.321748E-09  0.400E-05    1.67     368.3  T
     SCC iter.                  ...        0 min,  0.018 sec
     gradient                   ...        0 min,  0.041 sec
 * total energy  :   -86.3331233 Eh     change       -0.2135399E-04 Eh
   gradient norm :     0.0021552 Eh/α   predicted     0.0000000E+00 (-100.00%)
   displ. norm   :     0.0270530 α      lambda       -0.1351913E-04
   maximum displ.:     0.0173900 α      in ANC's #1, #2, #5, ...

........................................................................
.............................. CYCLE   44 ..............................
........................................................................
   1    -87.1583370 -0.871583E+02  0.109E-03    1.67       0.0  T
   2    -87.1583370 -0.372533E-07  0.538E-04    1.68      27.4  T
   3    -87.1583370 -0.314719E-08  0.288E-04    1.68      51.1  T
   4    -87.1583370 -0.217895E-09  0.795E-05    1.68     185.5  T
   5    -87.1583370 -0.797939E-10  0.144E-05    1.68    1023.0  T
     SCC iter.                  ...        0 min,  0.018 sec
     gradient                   ...        0 min,  0.041 sec
 * total energy  :   -86.3331352 Eh     change       -0.1186067E-04 Eh
   gradient norm :     0.0008469 Eh/α   predicted    -0.7011916E-05 ( -40.88%)
   displ. norm   :     0.1269632 α      lambda       -0.2897140E-04
   maximum displ.:     0.0768467 α      in ANC's #1, #2, #5, ...

........................................................................
.............................. CYCLE   45 ..............................
........................................................................
   1    -87.1584654 -0.871585E+02  0.306E-03    1.67       0.0  T
   2    -87.1584658 -0.412759E-06  0.139E-03    1.68      10.6  T
   3    -87.1584658 -0.412481E-07  0.634E-04    1.68      23.2  T
   4    -87.1584658 -0.473960E-09  0.254E-04    1.68      58.1  T
   5    -87.1584658 -0.459863E-09  0.389E-05    1.68     379.0  T
   6    -87.1584658 -0.319034E-10  0.130E-05    1.68    1135.6  T
     SCC iter.                  ...        0 min,  0.022 sec
     gradient                   ...        0 min,  0.041 sec
 * total energy  :   -86.3331641 Eh     change       -0.2887390E-04 Eh
   gradient norm :     0.0028829 Eh/α   predicted    -0.1459010E-04 ( -49.47%)
   displ. norm   :     0.0896020 α      lambda       -0.2218031E-04
   maximum displ.:     0.0544890 α      in ANC's #1, #2, #5, ...

........................................................................
.............................. CYCLE   46 ..............................
........................................................................
   1    -87.1583902 -0.871584E+02  0.108E-03    1.68       0.0  T
   2    -87.1583903 -0.518298E-07  0.460E-04    1.68      32.1  T
   3    -87.1583903 -0.527199E-08  0.177E-04    1.68      83.3  T
   4    -87.1583903 -0.164363E-09  0.839E-05    1.68     175.7  T
     SCC iter.                  ...        0 min,  0.015 sec
     gradient                   ...        0 min,  0.042 sec
 * total energy  :   -86.3331849 Eh     change       -0.2083280E-04 Eh
   gradient norm :     0.0030047 Eh/α   predicted    -0.1118126E-04 ( -46.33%)
   displ. norm   :     0.2183688 α      lambda       -0.5634979E-04
   maximum displ.:     0.1296568 α      in ANC's #1, #2, #7, ...

........................................................................
.............................. CYCLE   47 ..............................
........................................................................
   1    -87.1579002 -0.871579E+02  0.242E-03    1.68       0.0  T
   2    -87.1579004 -0.144847E-06  0.114E-03    1.68      12.9  T
   3    -87.1579004 -0.104608E-07  0.575E-04    1.68      25.7  T
   4    -87.1579004 -0.282161E-08  0.185E-04    1.68      79.8  T
   5    -87.1579004 -0.290740E-09  0.452E-05    1.68     325.9  T
     SCC iter.                  ...        0 min,  0.019 sec
     gradient                   ...        0 min,  0.043 sec
 * total energy  :   -86.3332317 Eh     change       -0.4675269E-04 Eh
   gradient norm :     0.0022813 Eh/α   predicted    -0.2951938E-04 ( -36.86%)
   displ. norm   :     0.2441114 α      lambda       -0.4941888E-04
   maximum displ.:     0.1489567 α      in ANC's #1, #2, #7, ...

........................................................................
.............................. CYCLE   48 ..............................
........................................................................
   1    -87.1573295 -0.871573E+02  0.253E-03    1.68       0.0  T
   2    -87.1573296 -0.931168E-07  0.122E-03    1.68      12.1  T
   3    -87.1573296 -0.353873E-08  0.499E-04    1.68      29.6  T
   4    -87.1573296 -0.163111E-08  0.154E-04    1.68      96.0  T
   5    -87.1573296 -0.542045E-09  0.491E-05    1.68     300.0  T
     SCC iter.                  ...        0 min,  0.019 sec
     gradient                   ...        0 min,  0.043 sec
 * total energy  :   -86.3332654 Eh     change       -0.3372425E-04 Eh
   gradient norm :     0.0029986 Eh/α   predicted    -0.2618124E-04 ( -22.37%)
   displ. norm   :     0.2450650 α      lambda        0.2105696E-04
   maximum displ.:     0.1495696 α      in ANC's #1, #2, #7, ...

........................................................................
.............................. CYCLE   49 ..............................
........................................................................
   1    -87.1557706 -0.871558E+02  0.394E-03    1.67       0.0  T
   2    -87.1557707 -0.153843E-06  0.192E-03    1.67       7.7  T
   3    -87.1557707 -0.451989E-08  0.853E-04    1.67      17.3  T
   4    -87.1557707 -0.715860E-08  0.204E-04    1.67      72.4  T
   5    -87.1557707 -0.523158E-09  0.579E-05    1.67     254.7  T
   6    -87.1557707 -0.486011E-10  0.171E-05    1.67     863.4  T
     SCC iter.                  ...        0 min,  0.023 sec
     gradient                   ...        0 min,  0.043 sec
 * total energy  :   -86.3332516 Eh     change        0.1374518E-04 Eh
   gradient norm :     0.0064748 Eh/α   predicted     0.1115972E-04 ( -18.81%)
   displ. norm   :     0.0948432 α      lambda       -0.6312451E-04
   maximum displ.:     0.0453179 α      in ANC's #1, #2, #7, ...

........................................................................
.............................. CYCLE   50 ..............................
........................................................................
   1    -87.1580129 -0.871580E+02  0.481E-03    1.68       0.0  T
   2    -87.1580133 -0.444508E-06  0.229E-03    1.68       6.4  T
   3    -87.1580134 -0.444234E-07  0.127E-03    1.68      11.6  T
   4    -87.1580134 -0.109500E-07  0.267E-04    1.68      55.2  T
   5    -87.1580134 -0.432379E-09  0.607E-05    1.68     242.9  T
   6    -87.1580134 -0.941327E-10  0.134E-05    1.68    1098.0  T
     SCC iter.                  ...        0 min,  0.023 sec
     gradient                   ...        0 min,  0.043 sec
 * total energy  :   -86.3332924 Eh     change       -0.4074288E-04 Eh
   gradient norm :     0.0029870 Eh/α   predicted    -0.3185402E-04 ( -21.82%)
   displ. norm   :     0.0584889 α      lambda       -0.3011822E-04
   maximum displ.:     0.0413746 α      in ANC's #1, #2, #11, ...

........................................................................
.............................. CYCLE   51 ..............................
........................................................................
   1    -87.1591455 -0.871591E+02  0.296E-03    1.68       0.0  T
   2    -87.1591458 -0.239840E-06  0.136E-03    1.68      10.9  T
   3    -87.1591458 -0.328665E-07  0.696E-04    1.68      21.2  T
   4    -87.1591458 -0.158433E-08  0.170E-04    1.68      86.6  T
   5    -87.1591458 -0.215209E-09  0.389E-05    1.68     379.0  T
     SCC iter.                  ...        0 min,  0.019 sec
     gradient                   ...        0 min,  0.043 sec
 * total energy  :   -86.3333159 Eh     change       -0.2350752E-04 Eh
   gradient norm :     0.0016790 Eh/α   predicted    -0.1511638E-04 ( -35.70%)
   displ. norm   :     0.1913862 α      lambda       -0.3342664E-04
   maximum displ.:     0.1370025 α      in ANC's #1, #2, #8, ...

........................................................................
.............................. CYCLE   52 ..............................
........................................................................
   1    -87.1601652 -0.871602E+02  0.459E-03    1.67       0.0  T
   2    -87.1601659 -0.752681E-06  0.201E-03    1.67       7.3  T
   3    -87.1601660 -0.107839E-06  0.857E-04    1.67      17.2  T
   4    -87.1601660 -0.187876E-08  0.318E-04    1.67      46.3  T
   5    -87.1601660 -0.634344E-09  0.645E-05    1.67     228.6  T
   6    -87.1601660 -0.115008E-09  0.200E-05    1.67     739.0  T
     SCC iter.                  ...        0 min,  0.023 sec
     gradient                   ...        0 min,  0.043 sec
 * total energy  :   -86.3333490 Eh     change       -0.3309493E-04 Eh
   gradient norm :     0.0022246 Eh/α   predicted    -0.1698888E-04 ( -48.67%)
   displ. norm   :     0.1252166 α      lambda       -0.2205209E-04
   maximum displ.:     0.0876156 α      in ANC's #1, #2, #7, ...

........................................................................
.............................. CYCLE   53 ..............................
........................................................................
   1    -87.1598031 -0.871598E+02  0.155E-03    1.67       0.0  T
   2    -87.1598031 -0.599693E-07  0.669E-04    1.67      22.1  T
   3    -87.1598031 -0.579998E-08  0.352E-04    1.67      41.9  T
   4    -87.1598031 -0.513239E-09  0.129E-04    1.67     114.5  T
   5    -87.1598031 -0.176485E-09  0.235E-05    1.67     626.7  T
     SCC iter.                  ...        0 min,  0.019 sec
     gradient                   ...        0 min,  0.043 sec
 * total energy  :   -86.3333698 Eh     change       -0.2082567E-04 Eh
   gradient norm :     0.0017165 Eh/α   predicted    -0.1119729E-04 ( -46.23%)
   displ. norm   :     0.2529410 α      lambda       -0.3168749E-04
   maximum displ.:     0.1742300 α      in ANC's #1, #2, #7, ...

........................................................................
.............................. CYCLE   54 ..............................
........................................................................
   1    -87.1584813 -0.871585E+02  0.380E-03    1.67       0.0  T
   2    -87.1584816 -0.204828E-06  0.169E-03    1.67       8.7  T
   3    -87.1584816 -0.789984E-08  0.886E-04    1.66      16.6  T
   4    -87.1584816 -0.345312E-08  0.231E-04    1.66      63.9  T
   5    -87.1584816 -0.104988E-08  0.526E-05    1.66     280.5  T
   6    -87.1584816 -0.570282E-10  0.200E-05    1.66     738.0  T
     SCC iter.                  ...        0 min,  0.023 sec
     gradient                   ...        0 min,  0.043 sec
 * total energy  :   -86.3334077 Eh     change       -0.3785983E-04 Eh
   gradient norm :     0.0017616 Eh/α   predicted    -0.1628953E-04 ( -56.97%)
   displ. norm   :     0.2297434 α      lambda       -0.2372433E-04
   maximum displ.:     0.1620288 α      in ANC's #1, #2, #7, ...

........................................................................
.............................. CYCLE   55 ..............................
........................................................................
   1    -87.1578214 -0.871578E+02  0.231E-03    1.66       0.0  T
   2    -87.1578215 -0.112566E-06  0.901E-04    1.66      16.4  T
   3    -87.1578215 -0.316061E-08  0.485E-04    1.66      30.4  T
   4    -87.1578215 -0.465249E-09  0.142E-04    1.66     104.0  T
   5    -87.1578215 -0.361311E-09  0.340E-05    1.66     433.6  T
     SCC iter.                  ...        0 min,  0.019 sec
     gradient                   ...        0 min,  0.043 sec
 * total energy  :   -86.3334378 Eh     change       -0.3012839E-04 Eh
   gradient norm :     0.0028066 Eh/α   predicted    -0.1214002E-04 ( -59.71%)
   displ. norm   :     0.1927124 α      lambda       -0.3365081E-04
   maximum displ.:     0.1373604 α      in ANC's #1, #2, #3, ...

........................................................................
.............................. CYCLE   56 ..............................
........................................................................
   1    -87.1578192 -0.871578E+02  0.150E-03    1.66       0.0  T
   2    -87.1578193 -0.647059E-07  0.416E-04    1.66      35.4  T
   3    -87.1578193 -0.136767E-08  0.239E-04    1.66      61.8  T
   4    -87.1578193 -0.150237E-09  0.719E-05    1.66     205.0  T
   5    -87.1578193 -0.501643E-10  0.254E-05    1.66     580.0  T
     SCC iter.                  ...        0 min,  0.019 sec
     gradient                   ...        0 min,  0.043 sec
 * total energy  :   -86.3334687 Eh     change       -0.3087457E-04 Eh
   gradient norm :     0.0027706 Eh/α   predicted    -0.1744680E-04 ( -43.49%)
   displ. norm   :     0.3746598 α      lambda       -0.6384827E-04
   maximum displ.:     0.2682378 α      in ANC's #1, #2, #3, ...

........................................................................
.............................. CYCLE   57 ..............................
........................................................................
   1    -87.1577991 -0.871578E+02  0.276E-03    1.66       0.0  T
   2    -87.1577993 -0.225723E-06  0.732E-04    1.66      20.1  T
   3    -87.1577993 -0.708098E-08  0.413E-04    1.66      35.7  T
   4    -87.1577993 -0.127385E-08  0.173E-04    1.66      85.1  T
   5    -87.1577993 -0.252797E-09  0.505E-05    1.66     291.8  T
     SCC iter.                  ...        0 min,  0.019 sec
     gradient                   ...        0 min,  0.043 sec
 * total energy  :   -86.3335221 Eh     change       -0.5337777E-04 Eh
   gradient norm :     0.0024578 Eh/α   predicted    -0.3637859E-04 ( -31.85%)
   displ. norm   :     0.4289729 α      lambda       -0.5774323E-04
   maximum displ.:     0.3104889 α      in ANC's #1, #2, #3, ...

........................................................................
.............................. CYCLE   58 ..............................
........................................................................
   1    -87.1575835 -0.871576E+02  0.307E-03    1.65       0.0  T
   2    -87.1575838 -0.281067E-06  0.881E-04    1.65      16.7  T
   3    -87.1575838 -0.112307E-07  0.486E-04    1.65      30.4  T
   4    -87.1575838 -0.217916E-08  0.213E-04    1.65      69.1  T
   5    -87.1575838 -0.363457E-09  0.536E-05    1.65     275.2  T
   6    -87.1575838 -0.486438E-10  0.197E-05    1.65     749.8  T
     SCC iter.                  ...        0 min,  0.023 sec
     gradient                   ...        0 min,  0.043 sec
 * total energy  :   -86.3335658 Eh     change       -0.4377339E-04 Eh
   gradient norm :     0.0023885 Eh/α   predicted    -0.3414817E-04 ( -21.99%)
   displ. norm   :     0.3367848 α      lambda       -0.3774937E-04
   maximum displ.:     0.2486698 α      in ANC's #1, #2, #3, ...

........................................................................
.............................. CYCLE   59 ..............................
........................................................................
   1    -87.1580145 -0.871580E+02  0.236E-03    1.65       0.0  T
   2    -87.1580146 -0.148787E-06  0.785E-04    1.65      18.8  T
   3    -87.1580146 -0.667211E-08  0.427E-04    1.65      34.5  T
   4    -87.1580146 -0.153842E-08  0.178E-04    1.65      82.7  T
   5    -87.1580146 -0.304595E-09  0.384E-05    1.65     384.4  T
     SCC iter.                  ...        0 min,  0.019 sec
     gradient                   ...        0 min,  0.043 sec
 * total energy  :   -86.3335977 Eh     change       -0.3183998E-04 Eh
   gradient norm :     0.0018209 Eh/α   predicted    -0.2100110E-04 ( -34.04%)
   displ. norm   :     0.7388859 α      lambda       -0.4863149E-04
   maximum displ.:     0.5513332 α      in ANC's #1, #2, #3, ...

........................................................................
.............................. CYCLE   60 ..............................
........................................................................
   1    -87.1573946 -0.871574E+02  0.517E-03    1.64       0.0  T
   2    -87.1573953 -0.741619E-06  0.172E-03    1.64       8.6  T
   3    -87.1573953 -0.288060E-07  0.933E-04    1.64      15.8  T
   4    -87.1573953 -0.515701E-08  0.381E-04    1.64      38.7  T
   5    -87.1573953 -0.148842E-08  0.885E-05    1.64     166.5  T
   6    -87.1573953 -0.171582E-09  0.318E-05    1.64     464.2  T
     SCC iter.                  ...        0 min,  0.023 sec
     gradient                   ...        0 min,  0.042 sec
 * total energy  :   -86.3336384 Eh     change       -0.4075007E-04 Eh
   gradient norm :     0.0032070 Eh/α   predicted    -0.3017926E-04 ( -25.94%)
   displ. norm   :     0.1526295 α      lambda       -0.4462921E-04
   maximum displ.:     0.1206866 α      in ANC's #1, #2, #5, ...

........................................................................
.............................. CYCLE   61 ..............................
........................................................................
   1    -87.1599664 -0.871600E+02  0.445E-03    1.65       0.0  T
   2    -87.1599665 -0.116710E-06  0.228E-03    1.65       6.5  T
   3    -87.1599665 -0.627296E-09  0.838E-04    1.65      17.6  T
   4    -87.1599665 -0.726763E-08  0.178E-04    1.65      82.9  T
   5    -87.1599665 -0.386180E-09  0.405E-05    1.65     364.3  T
     SCC iter.                  ...        0 min,  0.019 sec
     gradient                   ...        0 min,  0.042 sec
 * total energy  :   -86.3336589 Eh     change       -0.2043375E-04 Eh
   gradient norm :     0.0016830 Eh/α   predicted    -0.2284385E-04 (  11.79%)
   displ. norm   :     0.1475719 α      lambda       -0.1646188E-04
   maximum displ.:     0.1128941 α      in ANC's #1, #2, #7, ...

........................................................................
.............................. CYCLE   62 ..............................
........................................................................
   1    -87.1598905 -0.871599E+02  0.203E-03    1.65       0.0  T
   2    -87.1598906 -0.736724E-07  0.938E-04    1.65      15.7  T
   3    -87.1598906 -0.697639E-08  0.518E-04    1.65      28.5  T
   4    -87.1598906 -0.903327E-09  0.112E-04    1.65     132.1  T
   5    -87.1598906 -0.212964E-09  0.282E-05    1.65     523.3  T
     SCC iter.                  ...        0 min,  0.019 sec
     gradient                   ...        0 min,  0.043 sec
 * total energy  :   -86.3336775 Eh     change       -0.1859360E-04 Eh
   gradient norm :     0.0011239 Eh/α   predicted    -0.8314318E-05 ( -55.28%)
   displ. norm   :     0.1256107 α      lambda       -0.2150373E-04
   maximum displ.:     0.0616156 α      in ANC's #1, #16, #6, ...

........................................................................
.............................. CYCLE   63 ..............................
........................................................................
   1    -87.1597234 -0.871597E+02  0.230E-03    1.64       0.0  T
   2    -87.1597235 -0.171021E-06  0.105E-03    1.64      14.0  T
   3    -87.1597236 -0.250011E-07  0.492E-04    1.64      30.0  T
   4    -87.1597236 -0.105447E-08  0.194E-04    1.64      75.9  T
   5    -87.1597236 -0.442725E-09  0.437E-05    1.64     337.0  T
     SCC iter.                  ...        0 min,  0.019 sec
     gradient                   ...        0 min,  0.043 sec
 * total energy  :   -86.3336975 Eh     change       -0.2006872E-04 Eh
   gradient norm :     0.0015689 Eh/α   predicted    -0.1082820E-04 ( -46.04%)
   displ. norm   :     0.0704041 α      lambda       -0.8003194E-05
   maximum displ.:     0.0439412 α      in ANC's #1, #5, #6, ...

........................................................................
.............................. CYCLE   64 ..............................
........................................................................
   1    -87.1595818 -0.871596E+02  0.138E-03    1.65       0.0  T
   2    -87.1595819 -0.982229E-07  0.693E-04    1.65      21.3  T
   3    -87.1595819 -0.728942E-08  0.350E-04    1.65      42.1  T
   4    -87.1595819 -0.434497E-09  0.142E-04    1.65     104.2  T
   5    -87.1595819 -0.118135E-09  0.210E-05    1.65     700.8  T
     SCC iter.                  ...        0 min,  0.019 sec
     gradient                   ...        0 min,  0.042 sec
 * total energy  :   -86.3337054 Eh     change       -0.7895023E-05 Eh
   gradient norm :     0.0010677 Eh/α   predicted    -0.4011583E-05 ( -49.19%)
   displ. norm   :     0.0667911 α      lambda       -0.6115456E-05
   maximum displ.:     0.0401250 α      in ANC's #1, #5, #3, ...

........................................................................
.............................. CYCLE   65 ..............................
........................................................................
   1    -87.1594309 -0.871594E+02  0.150E-03    1.64       0.0  T
   2    -87.1594310 -0.751776E-07  0.632E-04    1.64      23.3  T
   3    -87.1594310 -0.217022E-08  0.357E-04    1.64      41.3  T
   4    -87.1594310 -0.202348E-09  0.101E-04    1.64     145.3  T
   5    -87.1594310 -0.258268E-09  0.232E-05    1.64     635.0  T
     SCC iter.                  ...        0 min,  0.019 sec
     gradient                   ...        0 min,  0.042 sec
 * total energy  :   -86.3337117 Eh     change       -0.6292177E-05 Eh
[...]
C5-C3-O2-C1=178.62            N6-C5-C3-O2=  1.19            N6-C5-C3-O4=180.68            C25-C5-C3-O2=182.46           
C25-C5-C3-O4=  1.96           C7-N6-C5-C3=180.86            C7-N6-C5-C25=359.60           C8-C7-N6-C5=182.43            
N21-C7-N6-C5=358.03           C9-C8-C7-N6=220.21            C9-C8-C7-N21= 44.71           C10-C8-C7-N6= 92.31           
C10-C8-C7-N21=276.81          N11-C8-C7-N6=339.49           N11-C8-C7-N21=163.99          H30-C9-C8-C7= 36.47           
H30-C9-C8-C10=162.57          H30-C9-C8-N11=280.24          H31-C9-C8-C7=157.19           H31-C9-C8-C10=283.28          
H31-C9-C8-N11= 40.95          H32-C9-C8-C7=274.96           H32-C9-C8-C10= 41.05          H32-C9-C8-N11=158.73          
H33-C10-C8-C7=180.52          H33-C10-C8-C9= 49.51          H33-C10-C8-N11=290.75         H34-C10-C8-C7= 60.99          
H34-C10-C8-C9=289.97          H34-C10-C8-N11=171.21         H35-C10-C8-C7=301.54          H35-C10-C8-C9=170.53          
H35-C10-C8-N11= 51.77         
           -------------------------------------------------
          |                Final Singlepoint                |
           -------------------------------------------------

          ...................................................
          :                      SETUP                      :
          :.................................................:
          :  # basis functions                 144          :
          :  # atomic orbitals                 144          :
          :  # shells                           92          :
          :  # electrons                       140          :
          :  # halogen bonds                     0          :
          :  max. iterations                   250          :
          :  Hamiltonian                  GFN1-xTB          :
          :  restarted?                      false          :
          :  GBSA solvation                   true          :
          :  PC potential                    false          :
          :  electronic temp.          300.0000000     K    :
          :  accuracy                    1.0000000          :
          :  -> integral cutoff          0.2500000E+02      :
          :  -> integral neglect         0.1000000E-07      :
          :  -> SCF convergence          0.1000000E-05 Eh   :
          :  -> wf. convergence          0.2000000E-04 e    :
          :  Broyden damping             0.4000000          :
          ...................................................

 iter      E             dE          RMSdq      gap      omega  full diag
   1    -87.1597935 -0.871598E+02  0.125E-05    1.65       0.0  T
   2    -87.1597935 -0.203215E-11  0.737E-06    1.65    1999.4  T
   3    -87.1597935 -0.383693E-12  0.353E-06    1.65    4179.7  T

   *** convergence criteria satisfied after 3 iterations ***

         #    Occupation            Energy/Eh            Energy/eV
      -------------------------------------------------------------
         1        2.0000           -0.9052782             -24.6339
       ...           ...                  ...                  ...
        64        2.0000           -0.5035541             -13.7024
        65        2.0000           -0.4946392             -13.4598
        66        2.0000           -0.4939839             -13.4420
        67        2.0000           -0.4924068             -13.3991
        68        2.0000           -0.4834051             -13.1541
        69        2.0000           -0.4655705             -12.6688
        70        2.0000           -0.4465597             -12.1515 (HOMO)
        71                         -0.3858418             -10.4993 (LUMO)
        72                         -0.3411070              -9.2820
        73                         -0.3098544              -8.4316
        74                         -0.2939954              -8.0000
        75                         -0.2609274              -7.1002
       ...                                ...                  ...
       144                          0.7218439              19.6424
      -------------------------------------------------------------
                  HL-Gap            0.0607179 Eh            1.6522 eV
             Fermi-level           -0.4162008 Eh          -11.3254 eV

 SCC (total)                   0 d,  0 h,  0 min,  0.071 sec
 SCC setup                      ...        0 min,  0.001 sec (  1.818%)
 Dispersion                     ...        0 min,  0.000 sec (  0.244%)
 classical contributions        ...        0 min,  0.000 sec (  0.113%)
 integral evaluation            ...        0 min,  0.019 sec ( 27.011%)
 iterations                     ...        0 min,  0.011 sec ( 15.572%)
 molecular gradient             ...        0 min,  0.039 sec ( 54.234%)
 printout                       ...        0 min,  0.001 sec (  0.989%)

         :::::::::::::::::::::::::::::::::::::::::::::::::::::
         ::                     SUMMARY                     ::
         :::::::::::::::::::::::::::::::::::::::::::::::::::::
         :: total energy             -86.333788774679 Eh    ::
         :: total w/o Gsasa/hb       -86.311771379211 Eh    ::
         :: gradient norm              0.000419201660 Eh/a0 ::
         :: HOMO-LUMO gap              1.652218488037 eV    ::
         ::.................................................::
         :: SCC energy               -87.159793478116 Eh    ::
         :: -> electrostatic           0.408362883761 Eh    ::
         :: -> Gsolv                  -0.110545275271 Eh    ::
         ::    -> Gelec               -0.088527879803 Eh    ::
         ::    -> Gsasa               -0.023401939673 Eh    ::
         ::    -> Ghb                 -0.006239734799 Eh    ::
         ::    -> Gshift               0.007624279005 Eh    ::
         :: repulsion energy           0.857902904718 Eh    ::
         :: dispersion energy         -0.031898201280 Eh    ::
         :: halogen bond corr.         0.000000000000 Eh    ::
         :: add. restraining           0.000000000000 Eh    ::
         :: total charge               1.000000000000 e     ::
         :::::::::::::::::::::::::::::::::::::::::::::::::::::

           -------------------------------------------------
          |                Property Printout                |
           -------------------------------------------------

    * Orbital Energies and Occupations

         #    Occupation            Energy/Eh            Energy/eV
      -------------------------------------------------------------
         1        2.0000           -0.9052782             -24.6339
       ...           ...                  ...                  ...
        58        2.0000           -0.5379037             -14.6371
        59        2.0000           -0.5314182             -14.4606
        60        2.0000           -0.5258044             -14.3079
        61        2.0000           -0.5242876             -14.2666
        62        2.0000           -0.5194529             -14.1350
        63        2.0000           -0.5098039             -13.8725
        64        2.0000           -0.5035541             -13.7024
        65        2.0000           -0.4946392             -13.4598
        66        2.0000           -0.4939839             -13.4420
        67        2.0000           -0.4924068             -13.3991
        68        2.0000           -0.4834051             -13.1541
        69        2.0000           -0.4655705             -12.6688
        70        2.0000           -0.4465597             -12.1515 (HOMO)
        71                         -0.3858418             -10.4993 (LUMO)
        72                         -0.3411070              -9.2820
        73                         -0.3098544              -8.4316
        74                         -0.2939954              -8.0000
        75                         -0.2609274              -7.1002
        76                         -0.2574583              -7.0058
        77                         -0.1766297              -4.8063
        78                         -0.1727013              -4.6994
        79                         -0.1661447              -4.5210
        80                         -0.1574375              -4.2841
        81                         -0.1500957              -4.0843
       ...                                ...                  ...
       144                          0.7218439              19.6424
      -------------------------------------------------------------
                  HL-Gap            0.0607179 Eh            1.6522 eV
             Fermi-level           -0.4162008 Eh          -11.3254 eV

  Mulliken/CM5 charges         n(s)   n(p)   n(d)
     1C     0.16088  0.03984   0.984  2.855  0.000
     2O    -0.40522 -0.48863   1.684  4.721  0.000
     3C     0.57801  0.64300   0.966  2.456  0.000
     4O    -0.56168 -0.62464   1.724  4.838  0.000
     5C     0.07065  0.14750   1.038  2.891  0.000
     6N    -0.38335 -0.58906   1.521  3.862  0.000
     7C     0.26884  0.42076   1.013  2.718  0.000
     8C     0.12391  0.15385   1.100  2.776  0.000
     9C    -0.12004 -0.26309   1.025  3.095  0.000
    10C    -0.12050 -0.26076   1.029  3.092  0.000
    11N    -0.18497 -0.57689   1.491  3.694  0.000
    12C     0.03424 -0.06221   1.012  2.954  0.000
    13C     0.48505  0.57142   1.018  2.497  0.000
    14O    -0.43797 -0.48926   1.715  4.723  0.000
    15C     0.32511  0.44616   0.984  2.691  0.000
    16N    -0.18399 -0.29999   1.563  3.621  0.000
    17N    -0.21564 -0.32070   1.555  3.660  0.000
    18C     0.41377  0.51964   1.021  2.565  0.000
    19C    -0.11119 -0.24843   1.015  3.096  0.000
    20O    -0.31149 -0.36444   1.684  4.627  0.000
    21N    -0.20899 -0.45663   1.454  3.755  0.000
    22C     0.03940 -0.05062   0.997  2.963  0.000
    23C     0.45425  0.55509   0.988  2.558  0.000
    24O    -0.54969 -0.59506   1.723  4.827  0.000
    25C     0.24706  0.28166   1.026  2.726  0.000
    26O    -0.49361 -0.68249   1.693  4.801  0.000
    27H     0.06149  0.12300   0.939  0.000  0.000
    28H     0.06100  0.12290   0.939  0.000  0.000
    29H     0.05699  0.11753   0.943  0.000  0.000
    30H     0.06558  0.12219   0.934  0.000  0.000
    31H     0.08280  0.14588   0.917  0.000  0.000
    32H     0.07454  0.13006   0.925  0.000  0.000
    33H     0.07482  0.13375   0.925  0.000  0.000
    34H     0.07818  0.13373   0.922  0.000  0.000
    35H     0.06309  0.12545   0.937  0.000  0.000
    36H     0.27491  0.49779   0.725  0.000  0.000
    37H     0.09276  0.15944   0.907  0.000  0.000
    38H     0.08569  0.15339   0.914  0.000  0.000
    39H     0.09002  0.15398   0.910  0.000  0.000
    40H     0.08571  0.14150   0.914  0.000  0.000
    41H     0.09831  0.15291   0.902  0.000  0.000
    42H     0.09969  0.15410   0.900  0.000  0.000
    43H     0.06085  0.12535   0.939  0.000  0.000
    44H     0.07193  0.13502   0.928  0.000  0.000
    45H     0.09448  0.16587   0.906  0.000  0.000
    46H     0.41430  0.60012   0.586  0.000  0.000

Wiberg/Mayer (AO) data.
largest (>0.10) Wiberg bond orders for each atom

 ---------------------------------------------------------------------------
     #   Z sym  total        # sym  WBO       # sym  WBO       # sym  WBO
 ---------------------------------------------------------------------------
     1   6 C    3.860 --    29 H    0.986    28 H    0.979    27 H    0.978
                             2 O    0.885
     2   8 O    2.215 --     3 C    1.137     1 C    0.885     4 O    0.132
     3   6 C    3.852 --     4 O    1.618     2 O    1.137     5 C    1.015
     4   8 O    1.950 --     3 C    1.618     2 O    0.132
     5   6 C    3.957 --    25 C    1.479     6 N    1.173     3 C    1.015
     6   7 N    3.081 --     7 C    1.551     5 C    1.173
     7   6 C    3.942 --     6 N    1.551    21 N    1.205     8 C    0.973
     8   6 C    3.890 --     9 C    1.000    10 C    0.986     7 C    0.973
                            11 N    0.854
     9   6 C    3.980 --     8 C    1.000    30 H    0.981    32 H    0.974
                            31 H    0.972
    10   6 C    3.982 --     8 C    0.986    35 H    0.981    33 H    0.976
                            34 H    0.974
    11   7 N    3.590 --    12 C    0.899    13 C    0.864     8 C    0.854
                            36 H    0.832
    12   6 C    3.886 --    39 H    0.981    37 H    0.981    38 H    0.980
                            11 N    0.899
    13   6 C    3.881 --    14 O    1.789    15 C    1.084    11 N    0.864
    14   8 O    2.067 --    13 C    1.789
    15   6 C    3.889 --    16 N    1.512    13 C    1.084    20 O    1.059
    16   7 N    3.048 --    15 C    1.512    17 N    1.289
    17   7 N    2.991 --    18 C    1.508    16 N    1.289
    18   6 C    3.851 --    17 N    1.508    20 O    1.116    19 C    1.042
    19   6 C    3.976 --    18 C    1.042    40 H    0.979    41 H    0.954
                            42 H    0.950
    20   8 O    2.359 --    18 C    1.116    15 C    1.059
    21   7 N    3.506 --     7 C    1.205    23 C    1.084    22 C    0.924
                            24 O    0.134
    22   6 C    3.913 --    43 H    0.977    44 H    0.975    45 H    0.970
                            21 N    0.924
    23   6 C    3.908 --    24 O    1.617    21 N    1.084    25 C    1.059
    24   8 O    1.934 --    23 C    1.617    21 N    0.134
    25   6 C    3.924 --     5 C    1.479    26 O    1.139    23 C    1.059
    26   8 O    2.107 --    25 C    1.139    46 H    0.776
    27   1 H    1.004 --     1 C    0.978
    28   1 H    1.005 --     1 C    0.979
    29   1 H    1.010 --     1 C    0.986
    30   1 H    0.996 --     9 C    0.981
    31   1 H    0.999 --     9 C    0.972
    32   1 H    0.998 --     9 C    0.974
    33   1 H    0.993 --    10 C    0.976
    34   1 H    0.996 --    10 C    0.974
    35   1 H    1.002 --    10 C    0.981
    36   1 H    0.973 --    11 N    0.832
    37   1 H    0.995 --    12 C    0.981
    38   1 H    0.997 --    12 C    0.980
    39   1 H    0.990 --    12 C    0.981
    40   1 H    0.994 --    19 C    0.979
    41   1 H    0.990 --    19 C    0.954
    42   1 H    0.990 --    19 C    0.950
    43   1 H    1.002 --    22 C    0.977
    44   1 H    0.998 --    22 C    0.975
    45   1 H    1.003 --    22 C    0.970
    46   1 H    0.846 --    26 O    0.776
 ---------------------------------------------------------------------------

Topologies differ in total number of bonds
Writing topology from bond orders to xtbtopo.mol

 dipole moment from electron density (au)
     X       Y       Z   
   4.7648   0.7336   1.0640  total (Debye):   12.549

           -------------------------------------------------
          |                Geometry Summary                 |
           -------------------------------------------------

      molecular mass/u    :      366.3497991
   center of mass at/Å    :       -0.3065393      -0.0044063       0.1194904
  moments of inertia/u·Å² :        0.1711658E+04   0.3359414E+04   0.4464503E+04
rotational constants/cm⁻¹ :        0.9848718E-02   0.5018028E-02   0.3775926E-02

 * 42 selected distances

     #   Z          #   Z                                           value/Å
     1   6 C        2   8 O                                       1.4351785
     2   8 O        3   6 C                                       1.3241204
     3   6 C        4   8 O                                       1.2160930
     5   6 C        6   7 N                                       1.3662078
     6   7 N        7   6 C                                       1.2962363
     8   6 C        9   6 C                                       1.5249269
     8   6 C       10   6 C                                       1.5327910 (max)
     8   6 C       11   7 N                                       1.5256269
    11   7 N       12   6 C                                       1.4859905
    13   6 C       14   8 O                                       1.1899835
    13   6 C       15   6 C                                       1.4408081
    15   6 C       16   7 N                                       1.3115462
    17   7 N       18   6 C                                       1.3142378
    18   6 C       19   6 C                                       1.4739017
    15   6 C       20   8 O                                       1.3446898
    18   6 C       20   8 O                                       1.3310726
     7   6 C       21   7 N                                       1.3619284
    21   7 N       22   6 C                                       1.4652338
    21   7 N       23   6 C                                       1.4068655
    23   6 C       24   8 O                                       1.2156758
     5   6 C       25   6 C                                       1.3698292
    25   6 C       26   8 O                                       1.3286199
     1   6 C       27   1 H                                       1.0921016
     1   6 C       28   1 H                                       1.0923436
     1   6 C       29   1 H                                       1.0875884
     9   6 C       30   1 H                                       1.0877674
     9   6 C       31   1 H                                       1.0887687
     9   6 C       32   1 H                                       1.0867785
    10   6 C       33   1 H                                       1.0885052
    10   6 C       34   1 H                                       1.0881944
    10   6 C       35   1 H                                       1.0891859
    11   7 N       36   1 H                                       1.0440829
    12   6 C       37   1 H                                       1.0856127
    12   6 C       38   1 H                                       1.0859739
    12   6 C       39   1 H                                       1.0873393
    19   6 C       40   1 H                                       1.0872854
    19   6 C       41   1 H                                       1.0903770
    19   6 C       42   1 H                                       1.0909762
    22   6 C       43   1 H                                       1.0846428
    22   6 C       44   1 H                                       1.0884080
    22   6 C       45   1 H                                       1.0899561
    26   8 O       46   1 H                                       0.9846977 (min)

 * 6 distinct bonds (by element types)

   Z      Z             #   av. dist./Å        max./Å        min./Å
   1 H    6 C          18     1.0884336     1.0923436     1.0846428
   6 C    6 C           5     1.4684514     1.5327910     1.3698292
   1 H    7 N           1     1.0440829     1.0440829     1.0440829
   6 C    7 N           9     1.3926526     1.5256269     1.2962363
   1 H    8 O           1     0.9846977     0.9846977     0.9846977
   6 C    8 O           8     1.2981792     1.4351785     1.1899835


optimized geometry written to: xtbopt.xyz


           -------------------------------------------------
          | TOTAL ENERGY              -86.333788774679 Eh   |
          | GRADIENT NORM               0.000419201660 Eh/α |
          | HOMO-LUMO GAP               1.652218488037 eV   |
           -------------------------------------------------

------------------------------------------------------------------------
 * finished run on 2023/06/20 at 15:54:20.271     
------------------------------------------------------------------------
 total:
 * wall-time:     0 d,  0 h,  0 min,  7.854 sec
 *  cpu-time:     0 d,  0 h,  0 min,  7.757 sec
 * ratio c/w:     0.988 speedup
 SCF:
 * wall-time:     0 d,  0 h,  0 min,  0.177 sec
 *  cpu-time:     0 d,  0 h,  0 min,  0.176 sec
 * ratio c/w:     0.999 speedup
 ANC optimizer:
 * wall-time:     0 d,  0 h,  0 min,  7.601 sec
 *  cpu-time:     0 d,  0 h,  0 min,  7.548 sec
 * ratio c/w:     0.993 speedup

