42
 energy: -82.934459921285 gnorm: 0.000556004030 xtb: 6.5.1 (579679a)
C           -6.48024190286479        1.18905339116325       -0.66927967184529
C           -5.77407580391112       -0.03346141175958       -0.22623788919233
N           -6.29770293308866       -1.15382823817803        0.16239588126490
N           -5.26020810022463       -1.98310287161896        0.47595237247696
C           -4.16880119036402       -1.31713014504847        0.25765231042339
C           -2.76788526685546       -1.78597251036596        0.44806698970225
O           -2.52381683002746       -2.90675150512090        0.87612437983038
N           -1.85929352344677       -0.86271049703289        0.11084987417053
C           -0.41637260713353       -1.06694334561993        0.17680974034439
C           -0.00574851692073       -2.21076809723405       -0.76206953649521
C            0.01439549550222       -1.36385174907217        1.61899101448911
C            0.25249107715033        0.21665935464141       -0.29446039130905
N            1.56388084838058        0.24931775777015       -0.15765833026735
C            2.19442660683082        1.39442291920543       -0.56623199210748
C            3.59552493132963        1.52363841724103       -0.39317904469308
O            4.34256467708397        2.42440313888848       -0.63088785738227
O            4.24378588740787        0.31214367679977        0.28950293926960
C            5.55575994118058        0.63410939092352        0.81789723486020
C            4.21363893916052       -0.91420172559687       -0.49098602483703
C            1.47668510882462        2.45647215249171       -1.11153359229654
O            2.02222865194179        3.59783674739361       -1.51680197715847
C            0.00214921467228        2.33359366770337       -1.25058052318869
O           -0.67590310436157        3.23674434951978       -1.73818259612363
N           -0.52397172182389        1.16348213877828       -0.79976069467524
O           -4.43196101729931       -0.07016646617305       -0.19048198120685
H           -6.19397288957138        1.43616485665147       -1.69173207470476
H           -6.20842703702463        2.02871686187964       -0.02938669845326
H           -7.55392066643604        1.02686070543794       -0.62137118594898
H           -2.15280045875242        0.03490262828763       -0.26522907712441
H            1.07967354639656       -2.29004893751442       -0.76970544290443
H           -0.42893478535739       -3.15455394794198       -0.42152879790136
H           -0.35200496936673       -2.00545688647487       -1.77421249326382
H           -0.32733471862799       -0.56956951348720        2.28179494052916
H            1.10109812601246       -1.41129663779131        1.65840436842582
H           -0.39747440670800       -2.31439570743916        1.95442909370407
H            5.43800879042772        1.52087006614598        1.43644722340197
H            6.24968190676921        0.82071624229791       -0.00157021416188
H            5.87079303952035       -0.21730259543276        1.41502805822757
H            4.62236377316906       -1.69873648667259        0.14152825984750
H            3.16639569456450       -1.11039577076791       -0.71711830743402
H            4.80765816785213       -0.79039229085319       -1.39609158852144
H            2.98765102596679        3.63092887396566       -1.39812069777685
