42
 energy: -82.973202057715 gnorm: 0.000187530604 xtb: 6.5.1 (579679a)
C           -5.18727199457687        1.13635988853654        2.75242657083921
O           -3.97430954123432        0.75833042201901        2.08541063400270
C           -4.03074980249462        0.28263407885875        0.88522860417351
O           -5.20797488382996        0.16676295165777        0.34789025011636
C           -2.80811612005573       -0.07152947394066        0.23055964495159
N           -1.67538661882475        0.12755290461736        0.96673329629564
C           -0.53317624162351       -0.15137004065460        0.37482420281819
C            0.71709797148666        0.05390061969693        1.21714907395765
C            0.64807875945826        1.40880213739734        1.93148229230990
C            0.81231853983532       -1.09599390669217        2.23197738538054
N            1.86262143321612        0.01828038650562        0.31368170816191
C            3.13513285084555        0.18983692518819        0.69621648928235
O            3.51905726549065        0.38516185893417        1.83991758179738
C            4.05969618280506        0.12782175149039       -0.47067996093213
N            3.72509948079870       -0.07438130986465       -1.70890275986378
N            4.87628984203943       -0.03536198093584       -2.43955867863464
C            5.83900987384974        0.18958559630835       -1.59920689818691
C            7.28252787857220        0.32397541084565       -1.89537703140925
O            5.38882273421619        0.30144256744525       -0.34039151093660
N           -0.37038400362164       -0.61361872408082       -0.85747735242293
C           -1.43289070019755       -0.86595207286368       -1.66307972588122
O           -1.29975590763701       -1.30697372017154       -2.80935175413866
C           -2.75501363989283       -0.57092470018270       -1.06947168541673
O           -3.91988824670527       -0.74623286707732       -1.71931278629366
C           -3.97694947780831       -1.25964109041840       -3.06004166192888
H           -5.84396022886190        0.27005786186359        2.84183143446656
H           -5.68938766962356        1.92068063191875        2.18450081766336
H           -4.89190718386935        1.49975540295044        3.73404424349701
H            1.49309194032448        1.52919908156942        2.60718934373930
H           -0.27727716939458        1.46108522473983        2.50292649677237
H            0.65729893713224        2.21528562261917        1.19943672428518
H            0.90512636523166       -2.04695285501324        1.70873569459185
H            1.67650863386466       -0.95795543143473        2.88004701162357
H           -0.09155228858622       -1.11102152126211        2.83887158120429
H            1.64908636170878       -0.18109111248127       -0.66029167781038
H            7.44427737607840        0.24336739505320       -2.96738018686548
H            7.64708662940781        1.28792980522858       -1.54143378020571
H            7.84336915431580       -0.45729188839796       -1.38248729873416
H           -5.17950482647190       -0.19818033918405       -0.56661202374431
H           -3.54980378119698       -2.26301274025324       -3.10544532848487
H           -5.03545993768659       -1.29413025014861       -3.31351256102758
H           -3.45087894649056       -0.59619250039343       -3.74875041901067
