42
 energy: -82.982358848086 gnorm: 0.000892286117 xtb: 6.5.1 (579679a)
C           -5.66838149639691        2.24599060607694        0.32120340181652
O           -4.44123454962537        1.50513348440487        0.27483024086955
C           -4.51675801215828        0.21113939743037        0.54056114544268
O           -5.53002156872033       -0.37392369537559        0.82184175487854
C           -3.15728269745949       -0.45295569593846        0.43303619721380
C           -2.86303122105774       -1.64656444092046        1.27785272502020
O           -3.46901612039159       -1.92156001451995        2.28105692336195
C           -1.69400723389750       -2.49089111039449        0.76727713038259
O           -1.53531879891802       -3.65435642939253        1.07605680341373
N           -0.85934208495979       -1.83054585758583       -0.06250187539960
C           -1.00997119982819       -0.47932178743344       -0.57211599305037
C           -0.75856508477192       -0.51970594508423       -2.08490168737829
C           -0.02983090489214        0.49237446722229        0.17968205943751
C           -0.31397074691030        0.47274426125439        1.68449913543150
C           -0.16359750516913        1.91151217822097       -0.37975167674713
N            1.32299107105105       -0.01392692820213       -0.05455097085410
C            2.43604962419910        0.61263319294217        0.39294870665388
O            2.46410839309988        1.67791304916244        0.98040395463696
C            3.64700374220297       -0.17987001123601        0.06435413294880
N            3.66544585946015       -1.33831962790593       -0.52469628250415
N            4.97148180846130       -1.71096374088865       -0.61747430814117
C            5.66830293274949       -0.75539510093557       -0.07897615115465
C            7.13861380929355       -0.68115195596618        0.06439196776378
O            4.88810850793299        0.23876082218951        0.37038298690242
N           -2.31854067882397        0.05208356694287       -0.38274881711658
H           -6.12064461263757        2.15544927329917        1.31117150446645
H           -5.41086611110367        3.28168409287790        0.11262217577408
H           -6.35966262116882        1.86435282938828       -0.43271971488791
H           -0.10245906908999       -2.37367438555185       -0.44512458705119
H           -1.38242987623031       -1.29486494002105       -2.52549736734153
H            0.28477818197941       -0.74055112664224       -2.29552581623975
H           -1.02337583452800        0.43748361688519       -2.52748523413786
H           -0.22507789816298       -0.53965731903554        2.07554094843549
H            0.40767637051749        1.10956712595575        2.19347681903257
H           -1.31452022073527        0.85194893148406        1.88481725181358
H            0.24108060394646        1.96574619797023       -1.38844047756174
H            0.38377270217407        2.61046179271200        0.25073879933386
H           -1.21372486115864        2.19889092778879       -0.39833581867399
H            1.44348238873455       -0.92860999709451       -0.46065263559906
H            7.58160335026151       -1.63333482987559       -0.21632760114394
H            7.53614803138023        0.10449009733168       -0.57849074636099
H            7.40097963135598       -0.44021697153901        1.09386099631402
