
                                 *****************
                                 * O   R   C   A *
                                 *****************

                                            #,                                       
                                            ###                                      
                                            ####                                     
                                            #####                                    
                                            ######                                   
                                           ########,                                 
                                     ,,################,,,,,                         
                               ,,#################################,,                 
                          ,,##########################################,,             
                       ,#########################################, ''#####,          
                    ,#############################################,,   '####,        
                  ,##################################################,,,,####,       
                ,###########''''           ''''###############################       
              ,#####''   ,,,,##########,,,,          '''####'''          '####       
            ,##' ,,,,###########################,,,                        '##       
           ' ,,###''''                  '''############,,,                           
         ,,##''                                '''############,,,,        ,,,,,,###''
      ,#''                                            '''#######################'''  
     '                                                          ''''####''''         
             ,#######,   #######,   ,#######,      ##                                
            ,#'     '#,  ##    ##  ,#'     '#,    #''#        ######   ,####,        
            ##       ##  ##   ,#'  ##            #'  '#       #        #'  '#        
            ##       ##  #######   ##           ,######,      #####,   #    #        
            '#,     ,#'  ##    ##  '#,     ,#' ,#      #,         ##   #,  ,#        
             '#######'   ##     ##  '#######'  #'      '#     #####' # '####'        



                  #######################################################
                  #                        -***-                        #
                  #          Department of theory and spectroscopy      #
                  #    Directorship and core code : Frank Neese         #
                  #        Max Planck Institute fuer Kohlenforschung    #
                  #                Kaiser Wilhelm Platz 1               #
                  #                 D-45470 Muelheim/Ruhr               #
                  #                      Germany                        #
                  #                                                     #
                  #                  All rights reserved                #
                  #                        -***-                        #
                  #######################################################


                         Program Version 5.0.1 -  RELEASE  -


 With contributions from (in alphabetic order):
   Daniel Aravena         : Magnetic Suceptibility
   Michael Atanasov       : Ab Initio Ligand Field Theory (pilot matlab implementation)
   Alexander A. Auer      : GIAO ZORA, VPT2 properties, NMR spectrum
   Ute Becker             : Parallelization
   Giovanni Bistoni       : ED, misc. LED, open-shell LED, HFLD
   Martin Brehm           : Molecular dynamics
   Dmytro Bykov           : SCF Hessian
   Vijay G. Chilkuri      : MRCI spin determinant printing, contributions to CSF-ICE
   Dipayan Datta          : RHF DLPNO-CCSD density
   Achintya Kumar Dutta   : EOM-CC, STEOM-CC
   Dmitry Ganyushin       : Spin-Orbit,Spin-Spin,Magnetic field MRCI
   Miquel Garcia          : C-PCM and meta-GGA Hessian, CC/C-PCM, Gaussian charge scheme
   Yang Guo               : DLPNO-NEVPT2, F12-NEVPT2, CIM, IAO-localization
   Andreas Hansen         : Spin unrestricted coupled pair/coupled cluster methods
   Benjamin Helmich-Paris : MC-RPA, TRAH-SCF, COSX integrals
   Lee Huntington         : MR-EOM, pCC
   Robert Izsak           : Overlap fitted RIJCOSX, COSX-SCS-MP3, EOM
   Marcus Kettner         : VPT2
   Christian Kollmar      : KDIIS, OOCD, Brueckner-CCSD(T), CCSD density, CASPT2, CASPT2-K
   Simone Kossmann        : Meta GGA functionals, TD-DFT gradient, OOMP2, MP2 Hessian
   Martin Krupicka        : Initial AUTO-CI
   Lucas Lang             : DCDCAS
   Marvin Lechner         : AUTO-CI (C++ implementation), FIC-MRCC
   Dagmar Lenk            : GEPOL surface, SMD
   Dimitrios Liakos       : Extrapolation schemes; Compound Job, initial MDCI parallelization
   Dimitrios Manganas     : Further ROCIS development; embedding schemes
   Dimitrios Pantazis     : SARC Basis sets
   Anastasios Papadopoulos: AUTO-CI, single reference methods and gradients
   Taras Petrenko         : DFT Hessian,TD-DFT gradient, ASA, ECA, R-Raman, ABS, FL, XAS/XES, NRVS
   Peter Pinski           : DLPNO-MP2, DLPNO-MP2 Gradient
   Christoph Reimann      : Effective Core Potentials
   Marius Retegan         : Local ZFS, SOC
   Christoph Riplinger    : Optimizer, TS searches, QM/MM, DLPNO-CCSD(T), (RO)-DLPNO pert. Triples
   Tobias Risthaus        : Range-separated hybrids, TD-DFT gradient, RPA, STAB
   Michael Roemelt        : Original ROCIS implementation
   Masaaki Saitow         : Open-shell DLPNO-CCSD energy and density
   Barbara Sandhoefer     : DKH picture change effects
   Avijit Sen             : IP-ROCIS
   Kantharuban Sivalingam : CASSCF convergence, NEVPT2, FIC-MRCI
   Bernardo de Souza      : ESD, SOC TD-DFT
   Georgi Stoychev        : AutoAux, RI-MP2 NMR, DLPNO-MP2 response
   Willem Van den Heuvel  : Paramagnetic NMR
   Boris Wezisla          : Elementary symmetry handling
   Frank Wennmohs         : Technical directorship


 We gratefully acknowledge several colleagues who have allowed us to
 interface, adapt or use parts of their codes:
   Stefan Grimme, W. Hujo, H. Kruse, P. Pracht,  : VdW corrections, initial TS optimization,
                  C. Bannwarth, S. Ehlert          DFT functionals, gCP, sTDA/sTD-DF
   Ed Valeev, F. Pavosevic, A. Kumar             : LibInt (2-el integral package), F12 methods
   Garnet Chan, S. Sharma, J. Yang, R. Olivares  : DMRG
   Ulf Ekstrom                                   : XCFun DFT Library
   Mihaly Kallay                                 : mrcc  (arbitrary order and MRCC methods)
   Jiri Pittner, Ondrej Demel                    : Mk-CCSD
   Frank Weinhold                                : gennbo (NPA and NBO analysis)
   Christopher J. Cramer and Donald G. Truhlar   : smd solvation model
   Lars Goerigk                                  : TD-DFT with DH, B97 family of functionals
   V. Asgeirsson, H. Jonsson                     : NEB implementation
   FAccTs GmbH                                   : IRC, NEB, NEB-TS, DLPNO-Multilevel, CI-OPT
                                                   MM, QMMM, 2- and 3-layer-ONIOM, Crystal-QMMM,
                                                   LR-CPCM, SF, NACMEs, symmetry and pop. for TD-DFT,
                                                   nearIR, NL-DFT gradient (VV10), updates on ESD,
                                                   ML-optimized integration grids
   S Lehtola, MJT Oliveira, MAL Marques          : LibXC Library
   Liviu Ungur et al                             : ANISO software


 Your calculation uses the libint2 library for the computation of 2-el integrals
 For citations please refer to: http://libint.valeyev.net

 Your ORCA version has been built with support for libXC version: 5.1.0
 For citations please refer to: https://tddft.org/programs/libxc/

 This ORCA versions uses:
   CBLAS   interface :  Fast vector & matrix operations
   LAPACKE interface :  Fast linear algebra routines
   SCALAPACK package :  Parallel linear algebra routines
   Shared memory     :  Shared parallel matrices
   BLAS/LAPACK       :  OpenBLAS 0.3.15  USE64BITINT DYNAMIC_ARCH NO_AFFINITY Zen SINGLE_THREADED
        Core in use  :  Zen
   Copyright (c) 2011-2014, The OpenBLAS Project


Your calculation utilizes the geometrical counterpoise correction gCP
Please cite in your paper:
H.Kruse, S. Grimme J.Chem.Phys., 136, (2012), 154101 
   

Your calculation utilizes the atom-pairwise dispersion correction
based on tight binding partial charges (D4)
Cite in your paper:
E.Caldeweyher, C.Bannwarth, S.Grimme, J.Chem.Phys., (2017), 147, 034112.
E.Caldeweyher, S.Ehlert, A.Hansen, H.Neugebauer, S.Grimme, J.Chem.Phys., (2018), in progress.
   

Your calculation utilizes the SMD solvation module
Please cite in your paper:
A.V. Marenich, C.J. Cramer, D.G. Truhlar J. Phys. Chem. B, 113, (2009), 6378 

================================================================================

----- Orbital basis set information -----
Your calculation utilizes the basis: def2-mTZVPP
   Stefan Grimme, Andreas Hansen, Sebastian Ehlert, and Jan-Michael Mewes 
   J. Chem. Phys. 154, 000000 (2021). DOI: 10.1063/5.0040021

----- AuxJ basis set information -----
Your calculation utilizes the basis: def2-mTZVPP/J
   Stefan Grimme, Andreas Hansen, Sebastian Ehlert, and Jan-Michael Mewes 
   J. Chem. Phys. 154, 000000 (2021). DOI: 10.1063/5.0040021

================================================================================
                                        WARNINGS
                       Please study these warnings very carefully!
================================================================================

Using LibXC functional ID 497 : Re-regularized SCAN exchange by Furness et al
[ 1]  J. W. Furness, A. D. Kaplan, J. Ning, J. P. Perdew, and J. Sun, J. Phys. Chem. Lett. 11, 8208 (2020)
[ 2]  J. W. Furness, A. D. Kaplan, J. Ning, J. P. Perdew, and J. Sun, J. Phys. Chem. Lett. 11, 9248 (2020)
Using LibXC functional ID 498 : Re-regularized SCAN correlation by Furness et al
[ 1]  J. W. Furness, A. D. Kaplan, J. Ning, J. P. Perdew, and J. Sun, J. Phys. Chem. Lett. 11, 8208 (2020)
[ 2]  J. W. Furness, A. D. Kaplan, J. Ning, J. P. Perdew, and J. Sun, J. Phys. Chem. Lett. 11, 9248 (2020)
Using LibXC functional ID 497 : Re-regularized SCAN exchange by Furness et al
[ 1]  J. W. Furness, A. D. Kaplan, J. Ning, J. P. Perdew, and J. Sun, J. Phys. Chem. Lett. 11, 8208 (2020)
[ 2]  J. W. Furness, A. D. Kaplan, J. Ning, J. P. Perdew, and J. Sun, J. Phys. Chem. Lett. 11, 9248 (2020)
Using LibXC functional ID 498 : Re-regularized SCAN correlation by Furness et al
[ 1]  J. W. Furness, A. D. Kaplan, J. Ning, J. P. Perdew, and J. Sun, J. Phys. Chem. Lett. 11, 8208 (2020)
[ 2]  J. W. Furness, A. D. Kaplan, J. Ning, J. P. Perdew, and J. Sun, J. Phys. Chem. Lett. 11, 9248 (2020)

INFO   : the flag for use of the SHARK integral package has been found!

================================================================================
                                       INPUT FILE
================================================================================
NAME = /lustre/hpc/kemi/ree/PhD/git/ReactivityQM/calculations/R03/reac02prodN03/conf09/gfn1/orca_calc.inp
|  1> # ORCA input file 
|  2> ! SP r2SCAN-3c CPCM 
|  3> 
|  4> %maxcore 1875.0 
|  5> %pal nprocs 4 end 
|  6> %cpcm smd true SMDsolvent "DMSO" end 
|  7> 
|  8> *xyz 1 1
|  9> C      -5.613430    2.430500    1.603952
| 10> O      -4.460670    2.172646    0.782411
| 11> C      -3.661217    1.205641    1.072905
| 12> O      -3.957582    0.525059    2.126696
| 13> C      -3.255246   -0.613542    2.644341
| 14> C      -2.538983    0.986672    0.186866
| 15> N      -1.621041    0.025894    0.530145
| 16> C      -0.596684   -0.234841   -0.222396
| 17> C       0.336430   -1.329643    0.272680
| 18> C       0.029437   -2.645635   -0.451259
| 19> C       0.163748   -1.531850    1.784330
| 20> N       1.725259   -0.952496    0.028819
| 21> C       2.181088    0.259032    0.430799
| 22> O       1.459978    1.157950    0.831291
| 23> C       3.645642    0.398986    0.287112
| 24> N       4.384549    1.426049    0.570325
| 25> N       5.667488    1.080254    0.275437
| 26> C       5.634852   -0.137767   -0.170430
| 27> C       6.768324   -0.971270   -0.624802
| 28> O       4.384271   -0.627135   -0.188376
| 29> N      -0.396087    0.393820   -1.425355
| 30> C       0.694250    0.102414   -2.361254
| 31> C      -1.222045    1.412496   -1.843789
| 32> O      -1.052541    2.030965   -2.883216
| 33> C      -2.358987    1.712801   -0.972278
| 34> O      -3.159414    2.671468   -1.394672
| 35> H      -6.237382    1.537551    1.644841
| 36> H      -6.139629    3.254039    1.126968
| 37> H      -5.290311    2.702343    2.609320
| 38> H      -3.866590   -0.981940    3.466858
| 39> H      -3.149629   -1.372323    1.870559
| 40> H      -2.273355   -0.306426    3.002731
| 41> H       0.663093   -3.434712   -0.050639
| 42> H       0.202840   -2.566424   -1.521612
| 43> H      -1.012860   -2.911911   -0.283966
| 44> H       0.942562   -2.201354    2.144025
| 45> H      -0.805312   -1.978446    1.990813
| 46> H       0.239755   -0.578445    2.304971
| 47> H       2.381981   -1.688329   -0.172381
| 48> H       6.600766   -1.294633   -1.651772
| 49> H       6.844687   -1.862262   -0.001646
| 50> H       7.692736   -0.401520   -0.564166
| 51> H       1.501894    0.817405   -2.204084
| 52> H       0.301513    0.217534   -3.371107
| 53> H       1.059986   -0.905860   -2.221934
| 54> H      -2.838134    3.007241   -2.258330
| 55> **                         ****END OF INPUT****
================================================================================

                       ****************************
                       * Single Point Calculation *
                       ****************************

---------------------------------
CARTESIAN COORDINATES (ANGSTROEM)
---------------------------------
  C     -5.613430    2.430500    1.603952
  O     -4.460670    2.172646    0.782411
  C     -3.661217    1.205641    1.072905
  O     -3.957582    0.525059    2.126696
  C     -3.255246   -0.613542    2.644341
  C     -2.538983    0.986672    0.186866
  N     -1.621041    0.025894    0.530145
  C     -0.596684   -0.234841   -0.222396
  C      0.336430   -1.329643    0.272680
  C      0.029437   -2.645635   -0.451259
  C      0.163748   -1.531850    1.784330
  N      1.725259   -0.952496    0.028819
  C      2.181088    0.259032    0.430799
  O      1.459978    1.157950    0.831291
  C      3.645642    0.398986    0.287112
  N      4.384549    1.426049    0.570325
  N      5.667488    1.080254    0.275437
  C      5.634852   -0.137767   -0.170430
  C      6.768324   -0.971270   -0.624802
  O      4.384271   -0.627135   -0.188376
  N     -0.396087    0.393820   -1.425355
  C      0.694250    0.102414   -2.361254
  C     -1.222045    1.412496   -1.843789
  O     -1.052541    2.030965   -2.883216
  C     -2.358987    1.712801   -0.972278
  O     -3.159414    2.671468   -1.394672
  H     -6.237382    1.537551    1.644841
  H     -6.139629    3.254039    1.126968
  H     -5.290311    2.702343    2.609320
  H     -3.866590   -0.981940    3.466858
  H     -3.149629   -1.372323    1.870559
  H     -2.273355   -0.306426    3.002731
  H      0.663093   -3.434712   -0.050639
  H      0.202840   -2.566424   -1.521612
  H     -1.012860   -2.911911   -0.283966
  H      0.942562   -2.201354    2.144025
  H     -0.805312   -1.978446    1.990813
  H      0.239755   -0.578445    2.304971
  H      2.381981   -1.688329   -0.172381
  H      6.600766   -1.294633   -1.651772
  H      6.844687   -1.862262   -0.001646
  H      7.692736   -0.401520   -0.564166
  H      1.501894    0.817405   -2.204084
  H      0.301513    0.217534   -3.371107
  H      1.059986   -0.905860   -2.221934
  H     -2.838134    3.007241   -2.258330

----------------------------
CARTESIAN COORDINATES (A.U.)
----------------------------
  NO LB      ZA    FRAG     MASS         X           Y           Z
   0 C     6.0000    0    12.011  -10.607845    4.592979    3.031030
   1 O     8.0000    0    15.999   -8.429445    4.105706    1.478543
   2 C     6.0000    0    12.011   -6.918697    2.278331    2.027497
   3 O     8.0000    0    15.999   -7.478746    0.992218    4.018873
   4 C     6.0000    0    12.011   -6.151523   -1.159426    4.997080
   5 C     6.0000    0    12.011   -4.797983    1.864540    0.353126
   6 N     7.0000    0    14.007   -3.063324    0.048933    1.001829
   7 C     6.0000    0    12.011   -1.127569   -0.443785   -0.420268
   8 C     6.0000    0    12.011    0.635761   -2.512661    0.515291
   9 C     6.0000    0    12.011    0.055628   -4.999526   -0.852756
  10 C     6.0000    0    12.011    0.309439   -2.894777    3.371895
  11 N     7.0000    0    14.007    3.260267   -1.799957    0.054460
  12 C     6.0000    0    12.011    4.121659    0.489500    0.814092
  13 O     8.0000    0    15.999    2.758959    2.188208    1.570912
  14 C     6.0000    0    12.011    6.889265    0.753974    0.542563
  15 N     7.0000    0    14.007    8.285597    2.694842    1.077758
  16 N     7.0000    0    14.007   10.710000    2.041384    0.520500
  17 C     6.0000    0    12.011   10.648327   -0.260342   -0.322066
  18 C     6.0000    0    12.011   12.790279   -1.835434   -1.180705
  19 O     8.0000    0    15.999    8.285071   -1.185113   -0.355979
  20 N     7.0000    0    14.007   -0.748496    0.744212   -2.693531
  21 C     6.0000    0    12.011    1.311942    0.193534   -4.462123
  22 C     6.0000    0    12.011   -2.309330    2.669231   -3.484256
  23 O     8.0000    0    15.999   -1.989014    3.837968   -5.448489
  24 C     6.0000    0    12.011   -4.457839    3.236725   -1.837339
  25 O     8.0000    0    15.999   -5.970427    5.048343   -2.635548
  26 H     1.0000    0     1.008  -11.786944    2.905550    3.108299
  27 H     1.0000    0     1.008  -11.602217    6.149243    2.129661
  28 H     1.0000    0     1.008   -9.997239    5.106688    4.930900
  29 H     1.0000    0     1.008   -7.306796   -1.855598    6.551412
  30 H     1.0000    0     1.008   -5.951936   -2.593315    3.534844
  31 H     1.0000    0     1.008   -4.296018   -0.579061    5.674339
  32 H     1.0000    0     1.008    1.253064   -6.490665   -0.095694
  33 H     1.0000    0     1.008    0.383312   -4.849839   -2.875430
  34 H     1.0000    0     1.008   -1.914028   -5.502714   -0.536618
  35 H     1.0000    0     1.008    1.781184   -4.159956    4.051620
  36 H     1.0000    0     1.008   -1.521819   -3.738721    3.762091
  37 H     1.0000    0     1.008    0.453071   -1.093103    4.355764
  38 H     1.0000    0     1.008    4.501292   -3.190479   -0.325753
  39 H     1.0000    0     1.008   12.473640   -2.446502   -3.121397
  40 H     1.0000    0     1.008   12.934584   -3.519165   -0.003110
  41 H     1.0000    0     1.008   14.537164   -0.758763   -1.066119
  42 H     1.0000    0     1.008    2.838168    1.544672   -4.165115
  43 H     1.0000    0     1.008    0.569777    0.411080   -6.370469
  44 H     1.0000    0     1.008    2.003083   -1.711827   -4.198847
  45 H     1.0000    0     1.008   -5.363296    5.682862   -4.267625

--------------------------------
INTERNAL COORDINATES (ANGSTROEM)
--------------------------------
 C      0   0   0     0.000000000000     0.00000000     0.00000000
 O      1   0   0     1.438844646790     0.00000000     0.00000000
 C      2   1   0     1.287870542124   120.20543443     0.00000000
 O      3   2   1     1.288991677099   115.98449923   359.23072825
 C      4   3   2     1.434449176556   126.98065586   178.31068041
 C      3   2   1     1.446520543663   117.19953159   178.70460534
 N      6   3   2     1.372425718387   118.14238294   175.32175746
 C      7   6   3     1.297539194150   121.57641707   179.30028780
 C      8   7   6     1.521313051931   116.10990018   180.39584749
 C      9   8   7     1.533025545069   109.95354875    99.41693076
 C      9   8   7     1.534859103134   110.26157459   338.90967120
 N      9   8   7     1.459641749941   110.07757195   220.10687788
 C     12   9   8     1.355421739690   120.09201580    50.89374831
 O     13  12   9     1.220019280539   123.85998760   349.39618093
 C     13  12   9     1.478225792970   112.89158111   171.51462693
 N     15  13  12     1.296553725839   128.19907716   179.47378375
 N     16  15  13     1.361053118835   106.77473611   179.78828718
 C     17  16  15     1.297473562978   106.81309462     0.00000000
 C     18  17  16     1.478492455232   127.99223930   180.05860241
 O     18  17  16     1.343039811733   111.72019322     0.00000000
 N      8   7   6     1.372065656232   122.13006835   357.47412941
 C     21   8   7     1.466171602714   125.26176453   183.45982426
 C     21   8   7     1.376587964169   121.18733049     5.18108958
 O     23  21   8     1.221328783869   123.37727042   177.30708657
 C      6   3   2     1.379592946268   122.42528986   355.89106972
 O     25   6   3     1.318386320641   124.93910762     0.47780036
 H      1   2   3     1.090112803900   109.46246849   302.33510371
 H      1   2   3     1.087481314036   105.83922464   182.53692233
 H      1   2   3     1.090444551655   109.49348371    62.78324746
 H      5   4   3     1.089032960029   105.43878684   186.54024229
 H      5   4   3     1.088871957658   110.13164894   306.14251381
 H      5   4   3     1.089437270079   109.64784651    67.37760361
 H     10   9   8     1.088420333633   109.38654777   183.17475626
 H     10   9   8     1.087197556812   111.74211848    62.62958778
 H     10   9   8     1.088702389193   109.21467886   302.24018408
 H     11   9   8     1.088194534831   109.03091483   188.81201551
 H     11   9   8     1.086812081321   109.97255582    69.57834606
 H     11   9   8     1.088956017916   110.34571582   308.87612803
 H     12   9   8     1.006586026713   117.72866283   212.46162332
 H     19  18  17     1.089636037415   109.81946919   237.56703628
 H     19  18  17     1.089963968289   109.80672056   119.09820285
 H     19  18  17     1.087579575360   109.82546253   358.40831182
 H     22  21   8     1.090047416270   109.18339925   263.09280259
 H     22  21   8     1.089632069635   107.61112551   144.50155473
 H     22  21   8     1.081568002103   110.76472398    24.39694046
 H     26  25   6     0.980749451640   109.40238231   182.30449988

---------------------------
INTERNAL COORDINATES (A.U.)
---------------------------
 C      0   0   0     0.000000000000     0.00000000     0.00000000
 O      1   0   0     2.719022331692     0.00000000     0.00000000
 C      2   1   0     2.433722620558   120.20543443     0.00000000
 O      3   2   1     2.435841258621   115.98449923   359.23072825
 C      4   3   2     2.710716096720   126.98065586   178.31068041
 C      3   2   1     2.733527674613   117.19953159   178.70460534
 N      6   3   2     2.593508746901   118.14238294   175.32175746
 C      7   6   3     2.451993724972   121.57641707   179.30028780
 C      8   7   6     2.874865032110   116.10990018   180.39584749
 C      9   8   7     2.896998436486   109.95354875    99.41693076
 C      9   8   7     2.900463359079   110.26157459   338.90967120
 N      9   8   7     2.758323161026   110.07757195   220.10687788
 C     12   9   8     2.561375883978   120.09201580    50.89374831
 O     13  12   9     2.305502318323   123.85998760   349.39618093
 C     13  12   9     2.793441912811   112.89158111   171.51462693
 N     15  13  12     2.450131459751   128.19907716   179.47378375
 N     16  15  13     2.572017648317   106.77473611   179.78828718
 C     17  16  15     2.451869700031   106.81309462     0.00000000
 C     18  17  16     2.793945831457   127.99223930   180.05860241
 O     18  17  16     2.537977431129   111.72019322     0.00000000
 N      8   7   6     2.592828328037   122.13006835   357.47412941
 C     21   8   7     2.770662794463   125.26176453   183.45982426
 C     21   8   7     2.601374251532   121.18733049     5.18108958
 O     23  21   8     2.307976920987   123.37727042   177.30708657
 C      6   3   2     2.607052844736   122.42528986   355.89106972
 O     25   6   3     2.491389084720   124.93910762     0.47780036
 H      1   2   3     2.060014654451   109.46246849   302.33510371
 H      1   2   3     2.055041859285   105.83922464   182.53692233
 H      1   2   3     2.060641566854   109.49348371    62.78324746
 H      5   4   3     2.057974045268   105.43878684   186.54024229
 H      5   4   3     2.057669794880   110.13164894   306.14251381
 H      5   4   3     2.058738080536   109.64784651    67.37760361
 H     10   9   8     2.056816349157   109.38654777   183.17475626
 H     10   9   8     2.054505635844   111.74211848    62.62958778
 H     10   9   8     2.057349356920   109.21467886   302.24018408
 H     11   9   8     2.056389651261   109.03091483   188.81201551
 H     11   9   8     2.053777192733   109.97255582    69.57834606
 H     11   9   8     2.057828645746   110.34571582   308.87612803
 H     12   9   8     1.902171920719   117.72866283   212.46162332
 H     19  18  17     2.059113696365   109.81946919   237.56703628
 H     19  18  17     2.059733395909   109.80672056   119.09820285
 H     19  18  17     2.055227546277   109.82546253   358.40831182
 H     22  21   8     2.059891089739   109.18339925   263.09280259
 H     22  21   8     2.059106198349   107.61112551   144.50155473
 H     22  21   8     2.043867319186   110.76472398    24.39694046
 H     26  25   6     1.853347869594   109.40238231   182.30449988

---------------------
BASIS SET INFORMATION
---------------------
There are 4 groups of distinct atoms

 Group   1 Type C   : 11s6p1d contracted to 5s3p1d pattern {62111/411/1}
 Group   2 Type O   : 11s6p2d contracted to 5s3p2d pattern {62111/411/11}
 Group   3 Type N   : 11s6p2d contracted to 5s3p2d pattern {62111/411/11}
 Group   4 Type H   : 4s1p contracted to 2s1p pattern {31/1}

Atom   0C    basis set group =>   1
Atom   1O    basis set group =>   2
Atom   2C    basis set group =>   1
Atom   3O    basis set group =>   2
Atom   4C    basis set group =>   1
Atom   5C    basis set group =>   1
Atom   6N    basis set group =>   3
Atom   7C    basis set group =>   1
Atom   8C    basis set group =>   1
Atom   9C    basis set group =>   1
Atom  10C    basis set group =>   1
Atom  11N    basis set group =>   3
Atom  12C    basis set group =>   1
Atom  13O    basis set group =>   2
Atom  14C    basis set group =>   1
Atom  15N    basis set group =>   3
Atom  16N    basis set group =>   3
Atom  17C    basis set group =>   1
Atom  18C    basis set group =>   1
Atom  19O    basis set group =>   2
Atom  20N    basis set group =>   3
Atom  21C    basis set group =>   1
Atom  22C    basis set group =>   1
Atom  23O    basis set group =>   2
Atom  24C    basis set group =>   1
Atom  25O    basis set group =>   2
Atom  26H    basis set group =>   4
Atom  27H    basis set group =>   4
Atom  28H    basis set group =>   4
Atom  29H    basis set group =>   4
Atom  30H    basis set group =>   4
Atom  31H    basis set group =>   4
Atom  32H    basis set group =>   4
Atom  33H    basis set group =>   4
Atom  34H    basis set group =>   4
Atom  35H    basis set group =>   4
Atom  36H    basis set group =>   4
Atom  37H    basis set group =>   4
Atom  38H    basis set group =>   4
Atom  39H    basis set group =>   4
Atom  40H    basis set group =>   4
Atom  41H    basis set group =>   4
Atom  42H    basis set group =>   4
Atom  43H    basis set group =>   4
Atom  44H    basis set group =>   4
Atom  45H    basis set group =>   4
---------------------------------
AUXILIARY/J BASIS SET INFORMATION
---------------------------------
There are 4 groups of distinct atoms

 Group   1 Type C   : 8s3p3d contracted to 6s3p3d pattern {311111/111/111}
 Group   2 Type O   : 8s3p3d contracted to 6s3p3d pattern {311111/111/111}
 Group   3 Type N   : 8s3p3d contracted to 6s3p3d pattern {311111/111/111}
 Group   4 Type H   : 5s2p1d contracted to 3s1p1d pattern {311/2/1}

Atom   0C    basis set group =>   1
Atom   1O    basis set group =>   2
Atom   2C    basis set group =>   1
Atom   3O    basis set group =>   2
Atom   4C    basis set group =>   1
Atom   5C    basis set group =>   1
Atom   6N    basis set group =>   3
Atom   7C    basis set group =>   1
Atom   8C    basis set group =>   1
Atom   9C    basis set group =>   1
Atom  10C    basis set group =>   1
Atom  11N    basis set group =>   3
Atom  12C    basis set group =>   1
Atom  13O    basis set group =>   2
Atom  14C    basis set group =>   1
Atom  15N    basis set group =>   3
Atom  16N    basis set group =>   3
Atom  17C    basis set group =>   1
Atom  18C    basis set group =>   1
Atom  19O    basis set group =>   2
Atom  20N    basis set group =>   3
Atom  21C    basis set group =>   1
Atom  22C    basis set group =>   1
Atom  23O    basis set group =>   2
Atom  24C    basis set group =>   1
Atom  25O    basis set group =>   2
Atom  26H    basis set group =>   4
Atom  27H    basis set group =>   4
Atom  28H    basis set group =>   4
Atom  29H    basis set group =>   4
Atom  30H    basis set group =>   4
Atom  31H    basis set group =>   4
Atom  32H    basis set group =>   4
Atom  33H    basis set group =>   4
Atom  34H    basis set group =>   4
Atom  35H    basis set group =>   4
Atom  36H    basis set group =>   4
Atom  37H    basis set group =>   4
Atom  38H    basis set group =>   4
Atom  39H    basis set group =>   4
Atom  40H    basis set group =>   4
Atom  41H    basis set group =>   4
Atom  42H    basis set group =>   4
Atom  43H    basis set group =>   4
Atom  44H    basis set group =>   4
Atom  45H    basis set group =>   4


           ************************************************************
           *        Program running with 4 parallel MPI-processes     *
           *              working on a common directory               *
           ************************************************************
------------------------------------------------------------------------------
                           ORCA GTO INTEGRAL CALCULATION
                           -- RI-GTO INTEGRALS CHOSEN --
------------------------------------------------------------------------------
------------------------------------------------------------------------------
                   ___                                                        
                  /   \      - P O W E R E D   B Y -                         
                 /     \                                                     
                 |  |  |   _    _      __       _____    __    __             
                 |  |  |  | |  | |    /  \     |  _  \  |  |  /  |          
                  \  \/   | |  | |   /    \    | | | |  |  | /  /          
                 / \  \   | |__| |  /  /\  \   | |_| |  |  |/  /          
                |  |  |   |  __  | /  /__\  \  |    /   |      \           
                |  |  |   | |  | | |   __   |  |    \   |  |\   \          
                \     /   | |  | | |  |  |  |  | |\  \  |  | \   \       
                 \___/    |_|  |_| |__|  |__|  |_| \__\ |__|  \__/        
                                                                              
                      - O R C A' S   B I G   F R I E N D -                    
                                      &                                       
                       - I N T E G R A L  F E E D E R -                       
                                                                              
 v1 FN, 2020, v2 2021                                                         
------------------------------------------------------------------------------


Reading SHARK input file /lustre/hpc/kemi/ree/PhD/git/ReactivityQM/calculations/R03/reac02prodN03/conf09/gfn1/orca_calc.SHARKINP.tmp ... ok
----------------------
SHARK INTEGRAL PACKAGE
----------------------

Number of atoms                             ...     46
Number of basis functions                   ...    649
Number of shells                            ...    305
Maximum angular momentum                    ...      2
Integral batch strategy                     ... SHARK/LIBINT Hybrid
RI-J (if used) integral strategy            ... SPLIT-RIJ (Revised 2003 algorithm where possible)
Printlevel                                  ...      1
Contraction scheme used                     ... SEGMENTED contraction
Coulomb Range Separation                    ... NOT USED
Exchange Range Separation                   ... NOT USED
Finite Nucleus Model                        ... NOT USED
Auxiliary Coulomb fitting basis             ... AVAILABLE
   # of basis functions in Aux-J            ...   1000
   # of shells in Aux-J                     ...    412
   Maximum angular momentum in Aux-J        ...      2
Auxiliary J/K fitting basis                 ... NOT available
Auxiliary Correlation fitting basis         ... NOT available
Auxiliary 'external' fitting basis          ... NOT available
Integral threshold                          ...     1.000000e-10
Primitive cut-off                           ...     1.000000e-11
Primitive pair pre-selection threshold      ...     1.000000e-11

Calculating pre-screening integrals         ... done (  0.2 sec) Dimension = 305
Organizing shell pair data                  ... done (  0.2 sec)
Shell pair information
Total number of shell pairs                 ...     46665
Shell pairs after pre-screening             ...     29893
Total number of primitive shell pairs       ...    168542
Primitive shell pairs kept                  ...     66577
          la=0 lb=0:   8657 shell pairs
          la=1 lb=0:  10868 shell pairs
          la=1 lb=1:   3410 shell pairs
          la=2 lb=0:   3986 shell pairs
          la=2 lb=1:   2491 shell pairs
          la=2 lb=2:    481 shell pairs

Calculating one electron integrals          ... done (  0.1 sec)
Calculating RI/J V-Matrix + Cholesky decomp.... done (  0.1 sec)
Calculating Nuclear repulsion               ... done (  0.0 sec) ENN=   2511.907424316339 Eh

SHARK setup successfully completed in   0.7 seconds

Maximum memory used throughout the entire GTOINT-calculation: 43.7 MB


           ************************************************************
           *        Program running with 4 parallel MPI-processes     *
           *              working on a common directory               *
           ************************************************************
-------------------------------------------------------------------------------
                                 ORCA SCF
-------------------------------------------------------------------------------

------------
SCF SETTINGS
------------
Hamiltonian:
 Density Functional     Method          .... DFT(GTOs)
  Functional kind                       .... Exchange
  Functional name                       .... Re-regularized SCAN exchange by Furness et al
  Functional family                     .... MGGA
  Functional refs                              
    [ 0] J. W. Furness, A. D. Kaplan, J. Ning, J. P. Perdew, and J. Sun, J. Phys. Chem. Lett. 11, 8208 (2020)
    [ 1] J. W. Furness, A. D. Kaplan, J. Ning, J. P. Perdew, and J. Sun, J. Phys. Chem. Lett. 11, 9248 (2020)
  Functional external parameters         .... 8
 Parameter  0 :         c1 parameter
 Parameter  1 :         c2 parameter
 Parameter  2 :          d parameter
 Parameter  3 :         k1 parameter
 Parameter  4 :       taur parameter
 Parameter  5 :     alphar parameter
 Parameter  6 :        eta parameter
 Parameter  7 :        dp2 parameter
  Functional kind                       .... Correlation
  Functional name                       .... Re-regularized SCAN correlation by Furness et al
  Functional family                     .... MGGA
  Functional refs                              
    [ 0] J. W. Furness, A. D. Kaplan, J. Ning, J. P. Perdew, and J. Sun, J. Phys. Chem. Lett. 11, 8208 (2020)
    [ 1] J. W. Furness, A. D. Kaplan, J. Ning, J. P. Perdew, and J. Sun, J. Phys. Chem. Lett. 11, 9248 (2020)
  Functional external parameters         .... 0
 Gradients option       PostSCFGGA      .... off
   Density functional embedding theory  .... OFF
 RI-approximation to the Coulomb term is turned on
   Number of AuxJ basis functions       .... 1000


General Settings:
 Integral files         IntName         .... /lustre/hpc/kemi/ree/PhD/git/ReactivityQM/calculations/R03/reac02prodN03/conf09/gfn1/orca_calc
 Hartree-Fock type      HFTyp           .... RHF
 Total Charge           Charge          ....    1
 Multiplicity           Mult            ....    1
 Number of Electrons    NEL             ....  192
 Basis Dimension        Dim             ....  649
 Nuclear Repulsion      ENuc            ....   2511.9074243163 Eh

Convergence Acceleration:
 DIIS                   CNVDIIS         .... on
   Start iteration      DIISMaxIt       ....    12
   Startup error        DIISStart       ....  0.200000
   # of expansion vecs  DIISMaxEq       ....     5
   Bias factor          DIISBfac        ....   1.050
   Max. coefficient     DIISMaxC        ....  10.000
 Trust-Rad. Augm. Hess. CNVTRAH         .... auto
   Auto Start mean grad. ratio tolernc. ....  1.125000
   Auto Start start iteration           ....    20
   Auto Start num. interpolation iter.  ....    10
   Max. Number of Micro iterations      ....    16
   Max. Number of Macro iterations      .... Maxiter - #DIIS iter
   Number of Davidson start vectors     ....     2
   Converg. threshold I  (grad. norm)   ....   5.000e-05
   Converg. threshold II (energy diff.) ....   1.000e-06
   Grad. Scal. Fac. for Micro threshold ....   0.100
   Minimum threshold for Micro iter.    ....   0.010
   NR start threshold (gradient norm)   ....   0.001
   Initial trust radius                 ....   0.400
   Minimum AH scaling param. (alpha)    ....   1.000
   Maximum AH scaling param. (alpha)    .... 1000.000
   Orbital update algorithm             .... Taylor
   White noise on init. David. guess    .... on
   Maximum white noise                  ....   0.010
   Quad. conv. algorithm                .... NR
   COSX micro iterations for RIJONX calc.... off
 SOSCF                  CNVSOSCF        .... on
   Start iteration      SOSCFMaxIt      ....   150
   Startup grad/error   SOSCFStart      ....  0.003300
 Level Shifting         CNVShift        .... on
   Level shift para.    LevelShift      ....    0.2500
   Turn off err/grad.   ShiftErr        ....    0.0010
 Zerner damping         CNVZerner       .... off
 Static damping         CNVDamp         .... on
   Fraction old density DampFac         ....    0.7000
   Max. Damping (<1)    DampMax         ....    0.9800
   Min. Damping (>=0)   DampMin         ....    0.0000
   Turn off err/grad.   DampErr         ....    0.1000
 Fernandez-Rico         CNVRico         .... off

SCF Procedure:
 Maximum # iterations   MaxIter         ....   125
 SCF integral mode      SCFMode         .... Direct
   Integral package                     .... SHARK and LIBINT hybrid scheme
 Reset frequency        DirectResetFreq ....    20
 Integral Threshold     Thresh          ....  1.000e-10 Eh
 Primitive CutOff       TCut            ....  1.000e-11 Eh

Convergence Tolerance:
 Convergence Check Mode ConvCheckMode   .... Total+1el-Energy
 Convergence forced     ConvForced      .... 0
 Energy Change          TolE            ....  1.000e-06 Eh
 1-El. energy change                    ....  1.000e-03 Eh
 Orbital Gradient       TolG            ....  5.000e-05
 Orbital Rotation angle TolX            ....  5.000e-05
 DIIS Error             TolErr          ....  1.000e-06


Diagonalization of the overlap matrix:
Smallest eigenvalue                        ... 1.450e-05
Time for diagonalization                   ...    0.076 sec
Threshold for overlap eigenvalues          ... 1.000e-08
Number of eigenvalues below threshold      ... 0
Time for construction of square roots      ...    0.063 sec
Total time needed                          ...    0.141 sec

Time for model grid setup =    0.714 sec

------------------------------
INITIAL GUESS: MODEL POTENTIAL
------------------------------
Loading Hartree-Fock densities                     ... done
Calculating cut-offs                               ... done
Initializing the effective Hamiltonian             ... done
Setting up the integral package (SHARK)            ... done
Starting the Coulomb interaction                   ... done (   0.9 sec)
Reading the grid                                   ... done
Mapping shells                                     ... done
Starting the XC term evaluation                    ... done (   0.5 sec)
  promolecular density results
     # of electrons  =    192.986234405
     EX              =   -164.443116493
     EC              =     -6.569945402
     EX+EC           =   -171.013061895
Transforming the Hamiltonian                       ... done (   0.0 sec)
Diagonalizing the Hamiltonian                      ... done (   0.1 sec)
Back transforming the eigenvectors                 ... done (   0.0 sec)
Now organizing SCF variables                       ... done
                      ------------------
                      INITIAL GUESS DONE (   2.3 sec)
                      ------------------
-------------------
DFT GRID GENERATION
-------------------

General Integration Accuracy     IntAcc      ... 4.388
Radial Grid Type                 RadialGrid  ... OptM3 with GC (2021)
Angular Grid (max. ang.)         AngularGrid ... 4 (Lebedev-302)
Angular grid pruning method      GridPruning ... 4 (adaptive)
Weight generation scheme         WeightScheme... Becke
Basis function cutoff            BFCut       ... 1.0000e-10
Integration weight cutoff        WCut        ... 1.0000e-14
Angular grids for H and He will be reduced by one unit
Partially contracted basis set               ... off
Rotationally invariant grid construction     ... off

Total number of grid points                  ...   220885
Total number of batches                      ...     3478
Average number of points per batch           ...       63
Average number of grid points per atom       ...     4802
Time for grid setup =    2.682 sec


--------------------
CPCM SOLVATION MODEL
--------------------
CPCM parameters:
  Epsilon                                         ...      46.8260
  Refrac                                          ...       1.4170
  Rsolv                                           ...       1.3000
  Surface type                                    ... GAUSSIAN VDW
  Epsilon function type                           ...         CPCM
Solvent:                                     ... DMSO
SMD-CDS solvent descriptors:
  Soln                                       ...    1.4170
  Soln25                                     ...    1.4773
  Sola                                       ...    0.0000
  Solb                                       ...    0.8800
  Solg                                       ...   61.7800
  Solc                                       ...    0.0000
  Solh                                       ...    0.0000
Radii:
 Radius for C  used is    3.4960 Bohr (=   1.8500 Ang.)
 Radius for O  used is    4.3350 Bohr (=   2.2940 Ang.)
 Radius for N  used is    3.5716 Bohr (=   1.8900 Ang.)
 Radius for H  used is    2.2677 Bohr (=   1.2000 Ang.)
Calculating surface                               ...        done! (  0.0s)
GEPOL surface points                              ...         2257
GEPOL Volume                                      ...    2853.3304
GEPOL Surface-area                                ...    1407.1440
Calculating surface distance matrix               ...        done! (  0.0s)
Performing Cholesky decomposition & store         ...        done! (  0.2s)
Overall time for CPCM initialization              ...                 0.2s
--------------
SCF ITERATIONS
--------------
ITER       Energy         Delta-E        Max-DP      RMS-DP      [F,P]     Damp
               ***  Starting incremental Fock matrix formation  ***
  0  -1307.7588329016   0.000000000000 0.15136992  0.00143025  0.2709544 0.7000
  1  -1308.0621641499  -0.303331248296 0.12141777  0.00107950  0.0933390 0.7000
                               ***Turning on DIIS***
  2  -1308.1595080687  -0.097343918736 0.16763797  0.00169769  0.0332111 0.0000
  3  -1308.3399801707  -0.180472102047 0.09665218  0.00084689  0.0495828 0.0000
  4  -1308.3706016306  -0.030621459921 0.02576569  0.00029036  0.0217030 0.0000
  5  -1308.3747655239  -0.004163893315 0.01729102  0.00014040  0.0047074 0.0000
                      *** Initiating the SOSCF procedure ***
                           *** Shutting down DIIS ***
                      *** Re-Reading the Fockian *** 
                      *** Removing any level shift *** 
ITER      Energy       Delta-E        Grad      Rot      Max-DP    RMS-DP
  6  -1308.37491854  -0.0001530165  0.000374  0.000374  0.004950  0.000038
               *** Restarting incremental Fock matrix formation ***
  7  -1308.37495272  -0.0000341833  0.000212  0.002304  0.002737  0.000022
  8  -1308.37494616   0.0000065665  0.000562  0.000914  0.001237  0.000012
  9  -1308.37495698  -0.0000108196  0.000111  0.000373  0.001444  0.000008
                 **** Energy Check signals convergence ****
              ***Rediagonalizing the Fockian in SOSCF/NRSCF***

               *****************************************************
               *                     SUCCESS                       *
               *           SCF CONVERGED AFTER  10 CYCLES          *
               *****************************************************


SMD CDS free energy correction energy :                 1.27227     Kcal/mol
Total Energy after SMD CDS correction =             -1308.372928609 Eh

----------------
TOTAL SCF ENERGY
----------------

Total Energy       :        -1308.37292861 Eh          -35602.63739 eV

Components:
Nuclear Repulsion  :         2511.90742432 Eh           68352.47599 eV
Electronic Energy  :        -3820.28035292 Eh         -103955.11338 eV
One Electron Energy:        -6754.59378775 Eh         -183801.84127 eV
Two Electron Energy:         2934.31343482 Eh           79846.72789 eV
CPCM Dielectric    :           -0.10522557 Eh              -2.86333 eV
SMD CDS (Gcds)     :            0.00202748 Eh               0.05517 eV

Virial components:
Potential Energy   :        -2611.58236621 Eh          -71064.76905 eV
Kinetic Energy     :         1303.20943760 Eh           35462.13166 eV
Virial Ratio       :            2.00396213


DFT components:
N(Alpha)           :       96.000100063980 electrons
N(Beta)            :       96.000100063980 electrons
N(Total)           :      192.000200127961 electrons
E(X)               :     -168.007250051419 Eh       
E(C)               :       -6.373151484186 Eh       
E(XC)              :     -174.380401535605 Eh       
DFET-embed. en.    :        0.000000000000 Eh       
CPCM Solvation Model Properties:
Surface-charge          :           -1.03274415
Charge-correction       :            0.00288824 Eh               0.07859 eV
Free-energy (cav+disp)  :            0.00202748 Eh               0.05517 eV

---------------
SCF CONVERGENCE
---------------

  Last Energy change         ...    8.8445e-07  Tolerance :   1.0000e-06
  Last MAX-Density change    ...    9.8982e-04  Tolerance :   1.0000e-05
  Last RMS-Density change    ...    5.0260e-06  Tolerance :   1.0000e-06
  Last Orbital Gradient      ...    1.5006e-04  Tolerance :   5.0000e-05
  Last Orbital Rotation      ...    2.2456e-04  Tolerance :   5.0000e-05

             **** THE GBW FILE WAS UPDATED (/lustre/hpc/kemi/ree/PhD/git/ReactivityQM/calculations/R03/reac02prodN03/conf09/gfn1/orca_calc.gbw) ****
             **** DENSITY /lustre/hpc/kemi/ree/PhD/git/ReactivityQM/calculations/R03/reac02prodN03/conf09/gfn1/orca_calc.scfp WAS UPDATED ****
             **** ENERGY FILE WAS UPDATED (/lustre/hpc/kemi/ree/PhD/git/ReactivityQM/calculations/R03/reac02prodN03/conf09/gfn1/orca_calc.en.tmp) ****
             **** THE GBW FILE WAS UPDATED (/lustre/hpc/kemi/ree/PhD/git/ReactivityQM/calculations/R03/reac02prodN03/conf09/gfn1/orca_calc.gbw) ****
             **** DENSITY /lustre/hpc/kemi/ree/PhD/git/ReactivityQM/calculations/R03/reac02prodN03/conf09/gfn1/orca_calc.scfp WAS UPDATED ****
----------------
ORBITAL ENERGIES
----------------

  NO   OCC          E(Eh)            E(eV) 
   0   2.0000     -19.068791      -518.8882 
   1   2.0000     -19.065404      -518.7960 
   2   2.0000     -19.061523      -518.6904 
   3   2.0000     -19.028553      -517.7932 
   4   2.0000     -18.955680      -515.8103 
   5   2.0000     -18.944461      -515.5050 
   6   2.0000     -14.256399      -387.9363 
   7   2.0000     -14.209797      -386.6682 
   8   2.0000     -14.206951      -386.5908 
   9   2.0000     -14.200787      -386.4231 
  10   2.0000     -14.180204      -385.8630 
  11   2.0000     -10.237903      -278.5875 
  12   2.0000     -10.165767      -276.6246 
  13   2.0000     -10.163800      -276.5711 
  14   2.0000     -10.153017      -276.2776 
  15   2.0000     -10.150925      -276.2207 
  16   2.0000     -10.147385      -276.1244 
  17   2.0000     -10.144261      -276.0394 
  18   2.0000     -10.124055      -275.4895 
  19   2.0000     -10.112448      -275.1737 
  20   2.0000     -10.103016      -274.9171 
  21   2.0000     -10.100219      -274.8409 
  22   2.0000     -10.071697      -274.0648 
  23   2.0000     -10.047811      -273.4148 
  24   2.0000     -10.033956      -273.0378 
  25   2.0000     -10.023380      -272.7500 
  26   2.0000      -1.159989       -31.5649 
  27   2.0000      -1.159226       -31.5441 
  28   2.0000      -1.090182       -29.6654 
  29   2.0000      -1.079662       -29.3791 
  30   2.0000      -1.042777       -28.3754 
  31   2.0000      -1.033524       -28.1236 
  32   2.0000      -0.985869       -26.8269 
  33   2.0000      -0.979958       -26.6660 
  34   2.0000      -0.921749       -25.0821 
  35   2.0000      -0.908997       -24.7351 
  36   2.0000      -0.836498       -22.7623 
  37   2.0000      -0.811512       -22.0824 
  38   2.0000      -0.774755       -21.0822 
  39   2.0000      -0.751983       -20.4625 
  40   2.0000      -0.729242       -19.8437 
  41   2.0000      -0.717061       -19.5122 
  42   2.0000      -0.714327       -19.4378 
  43   2.0000      -0.674178       -18.3453 
  44   2.0000      -0.670588       -18.2476 
  45   2.0000      -0.661477       -17.9997 
  46   2.0000      -0.653995       -17.7961 
  47   2.0000      -0.606592       -16.5062 
  48   2.0000      -0.593864       -16.1599 
  49   2.0000      -0.584841       -15.9143 
  50   2.0000      -0.584356       -15.9011 
  51   2.0000      -0.569673       -15.5016 
  52   2.0000      -0.555556       -15.1174 
  53   2.0000      -0.543335       -14.7849 
  54   2.0000      -0.532133       -14.4801 
  55   2.0000      -0.521832       -14.1998 
  56   2.0000      -0.516074       -14.0431 
  57   2.0000      -0.498926       -13.5765 
  58   2.0000      -0.485060       -13.1992 
  59   2.0000      -0.477631       -12.9970 
  60   2.0000      -0.463142       -12.6027 
  61   2.0000      -0.454752       -12.3744 
  62   2.0000      -0.448812       -12.2128 
  63   2.0000      -0.443898       -12.0791 
  64   2.0000      -0.441046       -12.0015 
  65   2.0000      -0.432561       -11.7706 
  66   2.0000      -0.427754       -11.6398 
  67   2.0000      -0.423705       -11.5296 
  68   2.0000      -0.421135       -11.4597 
  69   2.0000      -0.412508       -11.2249 
  70   2.0000      -0.404925       -11.0186 
  71   2.0000      -0.394109       -10.7243 
  72   2.0000      -0.389588       -10.6012 
  73   2.0000      -0.387725       -10.5505 
  74   2.0000      -0.383866       -10.4455 
  75   2.0000      -0.377327       -10.2676 
  76   2.0000      -0.374691       -10.1959 
  77   2.0000      -0.367158        -9.9909 
  78   2.0000      -0.366447        -9.9715 
  79   2.0000      -0.363412        -9.8890 
  80   2.0000      -0.356397        -9.6981 
  81   2.0000      -0.353878        -9.6295 
  82   2.0000      -0.348317        -9.4782 
  83   2.0000      -0.345374        -9.3981 
  84   2.0000      -0.341128        -9.2826 
  85   2.0000      -0.330699        -8.9988 
  86   2.0000      -0.322177        -8.7669 
  87   2.0000      -0.318439        -8.6652 
  88   2.0000      -0.294788        -8.0216 
  89   2.0000      -0.272052        -7.4029 
  90   2.0000      -0.271584        -7.3902 
  91   2.0000      -0.268911        -7.3174 
  92   2.0000      -0.266505        -7.2520 
  93   2.0000      -0.257268        -7.0006 
  94   2.0000      -0.249313        -6.7842 
  95   2.0000      -0.229196        -6.2367 
  96   0.0000      -0.137202        -3.7335 
  97   0.0000      -0.093600        -2.5470 
  98   0.0000      -0.056460        -1.5363 
  99   0.0000      -0.029432        -0.8009 
 100   0.0000      -0.023831        -0.6485 
 101   0.0000       0.030086         0.8187 
 102   0.0000       0.039743         1.0815 
 103   0.0000       0.047178         1.2838 
 104   0.0000       0.050689         1.3793 
 105   0.0000       0.056239         1.5303 
 106   0.0000       0.067475         1.8361 
 107   0.0000       0.083274         2.2660 
 108   0.0000       0.087899         2.3919 
 109   0.0000       0.091853         2.4995 
 110   0.0000       0.095277         2.5926 
 111   0.0000       0.096823         2.6347 
 112   0.0000       0.113309         3.0833 
 113   0.0000       0.115477         3.1423 
 114   0.0000       0.118959         3.2370 
 115   0.0000       0.121634         3.3098 
 116   0.0000       0.127462         3.4684 
 117   0.0000       0.130848         3.5605 
 118   0.0000       0.132084         3.5942 
 119   0.0000       0.139709         3.8017 
 120   0.0000       0.143243         3.8978 
 121   0.0000       0.146653         3.9906 
 122   0.0000       0.149539         4.0692 
 123   0.0000       0.151071         4.1108 
 124   0.0000       0.153107         4.1663 
 125   0.0000       0.156827         4.2675 
 126   0.0000       0.158699         4.3184 
 127   0.0000       0.162439         4.4202 
 128   0.0000       0.166481         4.5302 
 129   0.0000       0.171667         4.6713 
 130   0.0000       0.177293         4.8244 
 131   0.0000       0.180952         4.9239 
 132   0.0000       0.184096         5.0095 
 133   0.0000       0.186276         5.0688 
 134   0.0000       0.188780         5.1370 
 135   0.0000       0.193572         5.2674 
 136   0.0000       0.195416         5.3175 
 137   0.0000       0.196801         5.3552 
 138   0.0000       0.202800         5.5185 
 139   0.0000       0.207324         5.6416 
 140   0.0000       0.208799         5.6817 
 141   0.0000       0.209609         5.7037 
 142   0.0000       0.213229         5.8022 
 143   0.0000       0.215032         5.8513 
 144   0.0000       0.217764         5.9257 
 145   0.0000       0.225319         6.1312 
 146   0.0000       0.231925         6.3110 
 147   0.0000       0.235485         6.4079 
 148   0.0000       0.238483         6.4894 
 149   0.0000       0.240383         6.5411 
 150   0.0000       0.243779         6.6336 
 151   0.0000       0.246418         6.7054 
 152   0.0000       0.251178         6.8349 
 153   0.0000       0.257242         6.9999 
 154   0.0000       0.260286         7.0827 
 155   0.0000       0.267179         7.2703 
 156   0.0000       0.272164         7.4060 
 157   0.0000       0.277272         7.5450 
 158   0.0000       0.278585         7.5807 
 159   0.0000       0.282914         7.6985 
 160   0.0000       0.286266         7.7897 
 161   0.0000       0.290432         7.9031 
 162   0.0000       0.294550         8.0151 
 163   0.0000       0.297241         8.0883 
 164   0.0000       0.303091         8.2475 
 165   0.0000       0.310081         8.4377 
 166   0.0000       0.312696         8.5089 
 167   0.0000       0.319992         8.7074 
 168   0.0000       0.322920         8.7871 
 169   0.0000       0.330217         8.9857 
 170   0.0000       0.333060         9.0630 
 171   0.0000       0.338406         9.2085 
 172   0.0000       0.344479         9.3737 
 173   0.0000       0.346686         9.4338 
 174   0.0000       0.354394         9.6436 
 175   0.0000       0.355714         9.6795 
 176   0.0000       0.358165         9.7462 
 177   0.0000       0.363269         9.8851 
 178   0.0000       0.365952         9.9581 
 179   0.0000       0.375198        10.2097 
 180   0.0000       0.378227        10.2921 
 181   0.0000       0.381726        10.3873 
 182   0.0000       0.390176        10.6172 
 183   0.0000       0.394912        10.7461 
 184   0.0000       0.397633        10.8201 
 185   0.0000       0.401294        10.9198 
 186   0.0000       0.413625        11.2553 
 187   0.0000       0.415245        11.2994 
 188   0.0000       0.419212        11.4073 
 189   0.0000       0.424875        11.5614 
 190   0.0000       0.425489        11.5782 
 191   0.0000       0.432924        11.7805 
 192   0.0000       0.437952        11.9173 
 193   0.0000       0.446256        12.1432 
 194   0.0000       0.447791        12.1850 
 195   0.0000       0.456388        12.4190 
 196   0.0000       0.459117        12.4932 
 197   0.0000       0.465981        12.6800 
 198   0.0000       0.466725        12.7002 
 199   0.0000       0.475944        12.9511 
 200   0.0000       0.480830        13.0841 
 201   0.0000       0.482100        13.1186 
 202   0.0000       0.493279        13.4228 
 203   0.0000       0.498427        13.5629 
 204   0.0000       0.505655        13.7596 
 205   0.0000       0.509427        13.8622 
 206   0.0000       0.517746        14.0886 
 207   0.0000       0.525037        14.2870 
 208   0.0000       0.529496        14.4083 
 209   0.0000       0.534484        14.5441 
 210   0.0000       0.539026        14.6676 
 211   0.0000       0.545027        14.8309 
 212   0.0000       0.551333        15.0025 
 213   0.0000       0.557520        15.1709 
 214   0.0000       0.562400        15.3037 
 215   0.0000       0.564645        15.3648 
 216   0.0000       0.572108        15.5679 
 217   0.0000       0.577289        15.7088 
 218   0.0000       0.581111        15.8128 
 219   0.0000       0.582355        15.8467 
 220   0.0000       0.585852        15.9419 
 221   0.0000       0.593305        16.1446 
 222   0.0000       0.597012        16.2455 
 223   0.0000       0.602135        16.3849 
 224   0.0000       0.606223        16.4962 
 225   0.0000       0.617884        16.8135 
 226   0.0000       0.620580        16.8868 
 227   0.0000       0.627107        17.0644 
 228   0.0000       0.629257        17.1229 
 229   0.0000       0.635440        17.2912 
 230   0.0000       0.638082        17.3631 
 231   0.0000       0.660393        17.9702 
 232   0.0000       0.661295        17.9948 
 233   0.0000       0.664419        18.0798 
 234   0.0000       0.666188        18.1279 
 235   0.0000       0.670976        18.2582 
 236   0.0000       0.676481        18.4080 
 237   0.0000       0.682520        18.5723 
 238   0.0000       0.692603        18.8467 
 239   0.0000       0.697234        18.9727 
 240   0.0000       0.700036        19.0490 
 241   0.0000       0.704222        19.1628 
 242   0.0000       0.709080        19.2950 
 243   0.0000       0.709438        19.3048 
 244   0.0000       0.716185        19.4884 
 245   0.0000       0.723934        19.6992 
 246   0.0000       0.726309        19.7639 
 247   0.0000       0.735061        20.0020 
 248   0.0000       0.736909        20.0523 
 249   0.0000       0.748477        20.3671 
 250   0.0000       0.750450        20.4208 
 251   0.0000       0.754119        20.5206 
 252   0.0000       0.761548        20.7228 
 253   0.0000       0.769243        20.9322 
 254   0.0000       0.777758        21.1639 
 255   0.0000       0.780036        21.2259 
 256   0.0000       0.786541        21.4029 
 257   0.0000       0.791850        21.5473 
 258   0.0000       0.795316        21.6417 
 259   0.0000       0.799223        21.7480 
 260   0.0000       0.807016        21.9600 
 261   0.0000       0.821793        22.3621 
 262   0.0000       0.826061        22.4783 
 263   0.0000       0.831161        22.6170 
 264   0.0000       0.836418        22.7601 
 265   0.0000       0.841268        22.8921 
 266   0.0000       0.846508        23.0347 
 267   0.0000       0.851143        23.1608 
 268   0.0000       0.853129        23.2148 
 269   0.0000       0.861946        23.4547 
 270   0.0000       0.865629        23.5550 
 271   0.0000       0.874782        23.8040 
 272   0.0000       0.883782        24.0489 
 273   0.0000       0.894241        24.3335 
 274   0.0000       0.898618        24.4526 
 275   0.0000       0.902536        24.5593 
 276   0.0000       0.911607        24.8061 
 277   0.0000       0.915960        24.9245 
 278   0.0000       0.926628        25.2148 
 279   0.0000       0.932854        25.3842 
 280   0.0000       0.934248        25.4222 
 281   0.0000       0.940292        25.5866 
 282   0.0000       0.954577        25.9754 
 283   0.0000       0.966715        26.3057 
 284   0.0000       0.975829        26.5536 
 285   0.0000       0.983170        26.7534 
 286   0.0000       0.991779        26.9877 
 287   0.0000       1.005366        27.3574 
 288   0.0000       1.010303        27.4918 
 289   0.0000       1.023329        27.8462 
 290   0.0000       1.026973        27.9454 
 291   0.0000       1.035787        28.1852 
 292   0.0000       1.037174        28.2229 
 293   0.0000       1.038164        28.2499 
 294   0.0000       1.060079        28.8462 
 295   0.0000       1.060940        28.8697 
 296   0.0000       1.064827        28.9754 
 297   0.0000       1.078167        29.3384 
 298   0.0000       1.087151        29.5829 
 299   0.0000       1.091820        29.7099 
 300   0.0000       1.102409        29.9981 
 301   0.0000       1.107141        30.1268 
 302   0.0000       1.114761        30.3342 
 303   0.0000       1.124362        30.5954 
 304   0.0000       1.131142        30.7799 
 305   0.0000       1.145688        31.1758 
 306   0.0000       1.152181        31.3524 
 307   0.0000       1.162842        31.6425 
 308   0.0000       1.173258        31.9260 
 309   0.0000       1.184917        32.2432 
 310   0.0000       1.188509        32.3410 
 311   0.0000       1.190637        32.3989 
 312   0.0000       1.194431        32.5021 
 313   0.0000       1.207754        32.8647 
 314   0.0000       1.211351        32.9625 
 315   0.0000       1.216367        33.0990 
 316   0.0000       1.227431        33.4001 
 317   0.0000       1.238147        33.6917 
 318   0.0000       1.241960        33.7955 
 319   0.0000       1.249908        34.0117 
 320   0.0000       1.264248        34.4019 
 321   0.0000       1.272372        34.6230 
 322   0.0000       1.277521        34.7631 
 323   0.0000       1.286845        35.0168 
 324   0.0000       1.289785        35.0968 
 325   0.0000       1.299456        35.3600 
 326   0.0000       1.300377        35.3851 
 327   0.0000       1.305219        35.5168 
 328   0.0000       1.311178        35.6790 
 329   0.0000       1.319844        35.9148 
 330   0.0000       1.324548        36.0428 
 331   0.0000       1.327228        36.1157 
 332   0.0000       1.331044        36.2195 
 333   0.0000       1.332443        36.2576 
 334   0.0000       1.343105        36.5477 
 335   0.0000       1.354357        36.8539 
 336   0.0000       1.360680        37.0260 
 337   0.0000       1.366846        37.1938 
 338   0.0000       1.382804        37.6280 
 339   0.0000       1.386448        37.7272 
 340   0.0000       1.392560        37.8935 
 341   0.0000       1.412877        38.4463 
 342   0.0000       1.419609        38.6295 
 343   0.0000       1.436397        39.0863 
 344   0.0000       1.440300        39.1925 
 345   0.0000       1.450947        39.4823 
 346   0.0000       1.460481        39.7417 
 347   0.0000       1.469913        39.9984 
 348   0.0000       1.495914        40.7059 
 349   0.0000       1.498801        40.7844 
 350   0.0000       1.503196        40.9040 
 351   0.0000       1.515866        41.2488 
 352   0.0000       1.525129        41.5009 
 353   0.0000       1.548893        42.1475 
 354   0.0000       1.549646        42.1680 
 355   0.0000       1.554610        42.3031 
 356   0.0000       1.566552        42.6280 
 357   0.0000       1.571379        42.7594 
 358   0.0000       1.595451        43.4144 
 359   0.0000       1.601560        43.5807 
 360   0.0000       1.610429        43.8220 
 361   0.0000       1.618896        44.0524 
 362   0.0000       1.631832        44.4044 
 363   0.0000       1.640425        44.6382 
 364   0.0000       1.642512        44.6950 
 365   0.0000       1.656821        45.0844 
 366   0.0000       1.674137        45.5556 
 367   0.0000       1.689545        45.9749 
 368   0.0000       1.711422        46.5701 
 369   0.0000       1.716491        46.7081 
 370   0.0000       1.722969        46.8844 
 371   0.0000       1.728131        47.0248 
 372   0.0000       1.739444        47.3327 
 373   0.0000       1.753151        47.7057 
 374   0.0000       1.755504        47.7697 
 375   0.0000       1.762001        47.9465 
 376   0.0000       1.765907        48.0528 
 377   0.0000       1.774870        48.2967 
 378   0.0000       1.778925        48.4070 
 379   0.0000       1.789868        48.7048 
 380   0.0000       1.799079        48.9554 
 381   0.0000       1.805234        49.1229 
 382   0.0000       1.811218        49.2857 
 383   0.0000       1.823010        49.6066 
 384   0.0000       1.826239        49.6945 
 385   0.0000       1.843976        50.1772 
 386   0.0000       1.847076        50.2615 
 387   0.0000       1.852528        50.4098 
 388   0.0000       1.855372        50.4872 
 389   0.0000       1.864801        50.7438 
 390   0.0000       1.874652        51.0119 
 391   0.0000       1.879461        51.1427 
 392   0.0000       1.884292        51.2742 
 393   0.0000       1.889082        51.4045 
 394   0.0000       1.894185        51.5434 
 395   0.0000       1.895585        51.5815 
 396   0.0000       1.910033        51.9746 
 397   0.0000       1.924409        52.3658 
 398   0.0000       1.927465        52.4490 
 399   0.0000       1.933030        52.6004 
 400   0.0000       1.946435        52.9652 
 401   0.0000       1.950423        53.0737 
 402   0.0000       1.967057        53.5264 
 403   0.0000       1.973046        53.6893 
 404   0.0000       1.989533        54.1379 
 405   0.0000       1.990501        54.1643 
 406   0.0000       2.010341        54.7042 
 407   0.0000       2.013929        54.8018 
 408   0.0000       2.028880        55.2086 
 409   0.0000       2.042899        55.5901 
 410   0.0000       2.054574        55.9078 
 411   0.0000       2.058050        56.0024 
 412   0.0000       2.065574        56.2071 
 413   0.0000       2.071277        56.3623 
 414   0.0000       2.077505        56.5318 
 415   0.0000       2.081231        56.6332 
 416   0.0000       2.097896        57.0867 
 417   0.0000       2.104059        57.2544 
 418   0.0000       2.114491        57.5382 
 419   0.0000       2.117386        57.6170 
 420   0.0000       2.137129        58.1542 
 421   0.0000       2.144207        58.3468 
 422   0.0000       2.149765        58.4981 
 423   0.0000       2.154119        58.6166 
 424   0.0000       2.162784        58.8523 
 425   0.0000       2.164477        58.8984 
 426   0.0000       2.173987        59.1572 
 427   0.0000       2.187629        59.5284 
 428   0.0000       2.197503        59.7971 
 429   0.0000       2.203709        59.9660 
 430   0.0000       2.213892        60.2431 
 431   0.0000       2.215942        60.2988 
 432   0.0000       2.227542        60.6145 
 433   0.0000       2.239440        60.9383 
 434   0.0000       2.253385        61.3177 
 435   0.0000       2.261792        61.5465 
 436   0.0000       2.266940        61.6866 
 437   0.0000       2.272932        61.8496 
 438   0.0000       2.278373        61.9977 
 439   0.0000       2.284812        62.1729 
 440   0.0000       2.286819        62.2275 
 441   0.0000       2.294087        62.4253 
 442   0.0000       2.296735        62.4973 
 443   0.0000       2.303990        62.6948 
 444   0.0000       2.310224        62.8644 
 445   0.0000       2.326454        63.3060 
 446   0.0000       2.333073        63.4861 
 447   0.0000       2.347873        63.8889 
 448   0.0000       2.349493        63.9329 
 449   0.0000       2.362543        64.2881 
 450   0.0000       2.382059        64.8191 
 451   0.0000       2.386427        64.9380 
 452   0.0000       2.387894        64.9779 
 453   0.0000       2.395030        65.1721 
 454   0.0000       2.396854        65.2217 
 455   0.0000       2.405727        65.4632 
 456   0.0000       2.410250        65.5862 
 457   0.0000       2.418896        65.8215 
 458   0.0000       2.422193        65.9112 
 459   0.0000       2.428066        66.0710 
 460   0.0000       2.439696        66.3875 
 461   0.0000       2.443616        66.4942 
 462   0.0000       2.455122        66.8073 
 463   0.0000       2.455420        66.8154 
 464   0.0000       2.459687        66.9315 
 465   0.0000       2.469531        67.1994 
 466   0.0000       2.480113        67.4873 
 467   0.0000       2.487246        67.6814 
 468   0.0000       2.495458        67.9049 
 469   0.0000       2.499106        68.0041 
 470   0.0000       2.518886        68.5424 
 471   0.0000       2.520542        68.5874 
 472   0.0000       2.539907        69.1144 
 473   0.0000       2.549061        69.3635 
 474   0.0000       2.554686        69.5165 
 475   0.0000       2.568974        69.9053 
 476   0.0000       2.573220        70.0209 
 477   0.0000       2.583720        70.3066 
 478   0.0000       2.587247        70.4026 
 479   0.0000       2.599830        70.7450 
 480   0.0000       2.603729        70.8511 
 481   0.0000       2.606507        70.9267 
 482   0.0000       2.620511        71.3077 
 483   0.0000       2.625834        71.4526 
 484   0.0000       2.632326        71.6292 
 485   0.0000       2.637783        71.7777 
 486   0.0000       2.648812        72.0778 
 487   0.0000       2.656076        72.2755 
 488   0.0000       2.659461        72.3676 
 489   0.0000       2.667988        72.5997 
 490   0.0000       2.671440        72.6936 
 491   0.0000       2.673330        72.7450 
 492   0.0000       2.680056        72.9280 
 493   0.0000       2.688038        73.1452 
 494   0.0000       2.696453        73.3742 
 495   0.0000       2.702700        73.5442 
 496   0.0000       2.709104        73.7185 
 497   0.0000       2.711627        73.7871 
 498   0.0000       2.717203        73.9389 
 499   0.0000       2.724648        74.1414 
 500   0.0000       2.728495        74.2461 
 501   0.0000       2.729964        74.2861 
 502   0.0000       2.742001        74.6136 
 503   0.0000       2.751296        74.8666 
 504   0.0000       2.756739        75.0147 
 505   0.0000       2.763231        75.1913 
 506   0.0000       2.765547        75.2544 
 507   0.0000       2.770570        75.3910 
 508   0.0000       2.778019        75.5937 
 509   0.0000       2.780749        75.6680 
 510   0.0000       2.796289        76.0909 
 511   0.0000       2.797884        76.1343 
 512   0.0000       2.805500        76.3415 
 513   0.0000       2.813447        76.5578 
 514   0.0000       2.823197        76.8231 
 515   0.0000       2.831217        77.0413 
 516   0.0000       2.842465        77.3474 
 517   0.0000       2.850466        77.5651 
 518   0.0000       2.860585        77.8405 
 519   0.0000       2.868162        78.0467 
 520   0.0000       2.871876        78.1477 
 521   0.0000       2.875557        78.2479 
 522   0.0000       2.890818        78.6632 
 523   0.0000       2.895031        78.7778 
 524   0.0000       2.897100        78.8341 
 525   0.0000       2.911454        79.2247 
 526   0.0000       2.922441        79.5237 
 527   0.0000       2.930219        79.7353 
 528   0.0000       2.936939        79.9182 
 529   0.0000       2.953628        80.3723 
 530   0.0000       2.961243        80.5795 
 531   0.0000       2.971123        80.8484 
 532   0.0000       2.976893        81.0054 
 533   0.0000       2.984397        81.2096 
 534   0.0000       2.991925        81.4144 
 535   0.0000       2.994863        81.4944 
 536   0.0000       2.997525        81.5668 
 537   0.0000       2.999213        81.6127 
 538   0.0000       3.003172        81.7205 
 539   0.0000       3.012486        81.9739 
 540   0.0000       3.013714        82.0073 
 541   0.0000       3.019957        82.1772 
 542   0.0000       3.026502        82.3553 
 543   0.0000       3.035865        82.6101 
 544   0.0000       3.045024        82.8593 
 545   0.0000       3.050617        83.0115 
 546   0.0000       3.057958        83.2113 
 547   0.0000       3.064273        83.3831 
 548   0.0000       3.071548        83.5811 
 549   0.0000       3.081691        83.8571 
 550   0.0000       3.089678        84.0744 
 551   0.0000       3.098737        84.3209 
 552   0.0000       3.107667        84.5639 
 553   0.0000       3.119265        84.8795 
 554   0.0000       3.130757        85.1922 
 555   0.0000       3.138952        85.4152 
 556   0.0000       3.153322        85.8063 
 557   0.0000       3.162328        86.0513 
 558   0.0000       3.178812        86.4999 
 559   0.0000       3.191520        86.8457 
 560   0.0000       3.197188        86.9999 
 561   0.0000       3.211658        87.3937 
 562   0.0000       3.219993        87.6205 
 563   0.0000       3.240049        88.1662 
 564   0.0000       3.242003        88.2194 
 565   0.0000       3.258942        88.6803 
 566   0.0000       3.268956        88.9528 
 567   0.0000       3.288085        89.4733 
 568   0.0000       3.297269        89.7233 
 569   0.0000       3.301591        89.8409 
 570   0.0000       3.311005        90.0970 
 571   0.0000       3.333399        90.7064 
 572   0.0000       3.340149        90.8901 
 573   0.0000       3.350287        91.1659 
 574   0.0000       3.357644        91.3661 
 575   0.0000       3.375901        91.8629 
 576   0.0000       3.396257        92.4169 
 577   0.0000       3.421983        93.1169 
 578   0.0000       3.438342        93.5620 
 579   0.0000       3.470734        94.4435 
 580   0.0000       3.493033        95.0502 
 581   0.0000       3.509236        95.4912 
 582   0.0000       3.517130        95.7060 
 583   0.0000       3.520643        95.8016 
 584   0.0000       3.521890        95.8355 
 585   0.0000       3.531905        96.1080 
 586   0.0000       3.542672        96.4010 
 587   0.0000       3.555229        96.7427 
 588   0.0000       3.568554        97.1053 
 589   0.0000       3.583787        97.5198 
 590   0.0000       3.591459        97.7286 
 591   0.0000       3.600335        97.9701 
 592   0.0000       3.606220        98.1302 
 593   0.0000       3.624908        98.6388 
 594   0.0000       3.634575        98.9018 
 595   0.0000       3.659052        99.5679 
 596   0.0000       3.661448        99.6331 
 597   0.0000       3.670837        99.8886 
 598   0.0000       3.677772       100.0773 
 599   0.0000       3.689717       100.4023 
 600   0.0000       3.708321       100.9085 
 601   0.0000       3.751682       102.0884 
 602   0.0000       3.790135       103.1348 
 603   0.0000       3.826602       104.1271 
 604   0.0000       3.861863       105.0866 
 605   0.0000       3.936615       107.1207 
 606   0.0000       3.963292       107.8467 
 607   0.0000       3.996130       108.7402 
 608   0.0000       4.002955       108.9260 
 609   0.0000       4.022828       109.4667 
 610   0.0000       4.040593       109.9501 
 611   0.0000       4.078240       110.9746 
 612   0.0000       4.146764       112.8392 
 613   0.0000       4.154012       113.0364 
 614   0.0000       4.210693       114.5788 
 615   0.0000       4.256054       115.8131 
 616   0.0000       4.323187       117.6399 
 617   0.0000       4.335989       117.9882 
 618   0.0000       4.414764       120.1318 
 619   0.0000       4.434496       120.6688 
 620   0.0000       4.501960       122.5046 
 621   0.0000       4.599547       125.1600 
 622   0.0000       4.607023       125.3635 
 623   0.0000      21.961762       597.6099 
 624   0.0000      21.974986       597.9698 
 625   0.0000      22.013209       599.0099 
 626   0.0000      22.040232       599.7452 
 627   0.0000      22.075593       600.7074 
 628   0.0000      22.087619       601.0347 
 629   0.0000      22.163346       603.0953 
 630   0.0000      22.182465       603.6156 
 631   0.0000      22.232751       604.9839 
 632   0.0000      22.260441       605.7374 
 633   0.0000      22.347614       608.1095 
 634   0.0000      22.364118       608.5586 
 635   0.0000      22.402812       609.6115 
 636   0.0000      22.453122       610.9805 
 637   0.0000      22.517549       612.7336 
 638   0.0000      31.943225       869.2193 
 639   0.0000      31.993359       870.5836 
 640   0.0000      32.155078       874.9841 
 641   0.0000      32.197642       876.1424 
 642   0.0000      32.266715       878.0220 
 643   0.0000      43.640126      1187.5082 
 644   0.0000      43.745061      1190.3636 
 645   0.0000      43.789310      1191.5677 
 646   0.0000      43.826570      1192.5816 
 647   0.0000      43.926899      1195.3117 
 648   0.0000      43.955027      1196.0771 

                    ********************************
                    * MULLIKEN POPULATION ANALYSIS *
                    ********************************

-----------------------
MULLIKEN ATOMIC CHARGES
-----------------------
   0 C :   -0.295229
   1 O :   -0.137946
   2 C :    0.268445
   3 O :   -0.140942
   4 C :   -0.317127
   5 C :    0.098327
   6 N :   -0.079967
   7 C :    0.020455
   8 C :    0.041982
   9 C :   -0.478364
  10 C :   -0.632876
  11 N :   -0.160302
  12 C :   -0.145785
  13 O :   -0.413631
  14 C :    0.429887
  15 N :   -0.158238
  16 N :   -0.288522
  17 C :    0.403473
  18 C :   -0.632745
  19 O :   -0.058019
  20 N :    0.293745
  21 C :   -0.425580
  22 C :    0.213865
  23 O :   -0.478168
  24 C :    0.132141
  25 O :   -0.340593
  26 H :    0.198122
  27 H :    0.200023
  28 H :    0.200257
  29 H :    0.189152
  30 H :    0.200428
  31 H :    0.204048
  32 H :    0.195288
  33 H :    0.184457
  34 H :    0.201878
  35 H :    0.187747
  36 H :    0.191676
  37 H :    0.206686
  38 H :    0.322262
  39 H :    0.201400
  40 H :    0.202718
  41 H :    0.205889
  42 H :    0.213437
  43 H :    0.195392
  44 H :    0.205789
  45 H :    0.375066
Sum of atomic charges:    1.0000000

--------------------------------
MULLIKEN REDUCED ORBITAL CHARGES
--------------------------------
  0 C s       :     3.349587  s :     3.349587
      pz      :     0.985798  p :     2.903629
      px      :     0.797729
      py      :     1.120102
      dz2     :     0.008508  d :     0.042013
      dxz     :     0.011831
      dyz     :     0.004706
      dx2y2   :     0.006938
      dxy     :     0.010030
  1 O s       :     3.695915  s :     3.695915
      pz      :     1.621144  p :     4.372793
      px      :     1.293195
      py      :     1.458454
      dz2     :     0.021169  d :     0.069238
      dxz     :     0.016236
      dyz     :     0.008689
      dx2y2   :     0.009096
      dxy     :     0.014047
  2 C s       :     3.233553  s :     3.233553
      pz      :     0.757549  p :     2.381915
      px      :     0.840509
      py      :     0.783857
      dz2     :     0.025337  d :     0.116087
      dxz     :     0.023306
      dyz     :     0.022721
[...]
      dxz     :     0.076062
      dyz     :     0.128427
      dx2y2   :     0.096357
      dxy     :     0.089799
  4 C s       :     2.906274  s :     2.906274
      pz      :     1.062981  p :     2.985786
      px      :     1.043902
      py      :     0.878903
      dz2     :     0.010594  d :     0.101120
      dxz     :     0.018064
      dyz     :     0.027603
      dx2y2   :     0.022113
      dxy     :     0.022746
  5 C s       :     2.752029  s :     2.752029
      pz      :     0.974875  p :     2.911503
      px      :     0.955267
      py      :     0.981362
      dz2     :     0.021740  d :     0.131739
      dxz     :     0.032297
      dyz     :     0.028160
      dx2y2   :     0.028060
      dxy     :     0.021482
  6 N s       :     3.187023  s :     3.187023
      pz      :     1.432675  p :     3.876001
      px      :     1.173097
      py      :     1.270229
      dz2     :     0.078661  d :     0.507573
      dxz     :     0.114821
      dyz     :     0.072204
      dx2y2   :     0.123023
      dxy     :     0.118864
  7 C s       :     2.712130  s :     2.712130
      pz      :     0.910490  p :     2.726821
      px      :     0.933564
      py      :     0.882767
      dz2     :     0.048685  d :     0.174785
      dxz     :     0.041435
      dyz     :     0.033007
      dx2y2   :     0.021265
      dxy     :     0.030392
  8 C s       :     2.782116  s :     2.782116
      pz      :     1.054182  p :     2.973916
      px      :     0.910006
      py      :     1.009728
      dz2     :     0.030911  d :     0.134881
      dxz     :     0.024407
      dyz     :     0.021397
      dx2y2   :     0.029643
      dxy     :     0.028522
  9 C s       :     2.956583  s :     2.956583
      pz      :     1.129602  p :     3.317795
      px      :     1.150521
      py      :     1.037672
      dz2     :     0.018812  d :     0.060980
      dxz     :     0.004142
      dyz     :     0.011821
      dx2y2   :     0.014170
      dxy     :     0.012034
 10 C s       :     2.956619  s :     2.956619
      pz      :     1.014533  p :     3.311863
      px      :     1.145331
      py      :     1.151998
      dz2     :     0.019426  d :     0.062088
      dxz     :     0.006783
      dyz     :     0.013415
      dx2y2   :     0.009158
      dxy     :     0.013306
 11 N s       :     3.102064  s :     3.102064
      pz      :     1.514296  p :     3.941568
      px      :     1.204637
      py      :     1.222634
      dz2     :     0.080849  d :     0.550716
      dxz     :     0.097458
      dyz     :     0.071384
      dx2y2   :     0.127164
      dxy     :     0.173861
 12 C s       :     2.710263  s :     2.710263
      pz      :     0.788784  p :     2.658737
      px      :     0.924407
      py      :     0.945545
      dz2     :     0.025315  d :     0.250593
      dxz     :     0.023316
      dyz     :     0.047825
      dx2y2   :     0.100005
      dxy     :     0.054131
 13 O s       :     3.538660  s :     3.538660
      pz      :     1.470424  p :     4.663217
      px      :     1.634119
      py      :     1.558674
      dz2     :     0.030794  d :     0.231140
      dxz     :     0.034997
      dyz     :     0.043655
      dx2y2   :     0.062476
      dxy     :     0.059217
 14 C s       :     2.720875  s :     2.720875
      pz      :     0.851038  p :     2.686961
      px      :     0.939703
      py      :     0.896221
      dz2     :     0.018348  d :     0.179610
      dxz     :     0.018076
      dyz     :     0.031635
      dx2y2   :     0.052333
      dxy     :     0.059219
 15 N s       :     3.176677  s :     3.176677
      pz      :     1.135465  p :     3.615157
      px      :     1.101537
      py      :     1.378156
      dz2     :     0.055983  d :     0.538151
      dxz     :     0.128129
      dyz     :     0.046438
      dx2y2   :     0.156417
      dxy     :     0.151185
 16 N s       :     3.180372  s :     3.180372
      pz      :     1.136889  p :     3.653026
      px      :     1.272422
      py      :     1.243714
      dz2     :     0.065500  d :     0.523609
      dxz     :     0.090109
      dyz     :     0.076212
      dx2y2   :     0.132327
      dxy     :     0.159461
 17 C s       :     2.734416  s :     2.734416
      pz      :     0.824031  p :     2.694745
      px      :     0.889117
      py      :     0.981597
      dz2     :     0.018545  d :     0.188876
      dxz     :     0.024273
      dyz     :     0.026187
      dx2y2   :     0.060223
      dxy     :     0.059647
 18 C s       :     2.946003  s :     2.946003
      pz      :     1.141536  p :     3.311062
      px      :     1.061069
      py      :     1.108457
      dz2     :     0.013667  d :     0.058916
      dxz     :     0.006085
      dyz     :     0.012733
      dx2y2   :     0.008427
      dxy     :     0.018004
 19 O s       :     3.434119  s :     3.434119
      pz      :     1.597148  p :     4.500567
      px      :     1.336851
      py      :     1.566568
      dz2     :     0.059271  d :     0.455634
      dxz     :     0.096826
      dyz     :     0.051569
      dx2y2   :     0.120917
      dxy     :     0.127050
 20 N s       :     3.074536  s :     3.074536
      pz      :     1.238420  p :     3.823443
      px      :     1.287735
      py      :     1.297288
      dz2     :     0.168756  d :     0.715450
      dxz     :     0.157065
      dyz     :     0.138907
      dx2y2   :     0.118124
      dxy     :     0.132599
 21 C s       :     2.875282  s :     2.875282
      pz      :     1.012013  p :     3.097798
      px      :     0.977829
      py      :     1.107956
      dz2     :     0.021080  d :     0.084341
      dxz     :     0.023982
      dyz     :     0.005375
      dx2y2   :     0.014664
      dxy     :     0.019241
 22 C s       :     2.702669  s :     2.702669
      pz      :     0.923682  p :     2.668809
      px      :     0.880785
      py      :     0.864342
      dz2     :     0.052493  d :     0.242756
      dxz     :     0.067114
      dyz     :     0.049552
      dx2y2   :     0.037034
      dxy     :     0.036563
 23 O s       :     3.542781  s :     3.542781
      pz      :     1.483778  p :     4.677096
      px      :     1.653877
      py      :     1.539442
      dz2     :     0.065099  d :     0.242610
      dxz     :     0.052578
      dyz     :     0.062769
      dx2y2   :     0.024434
      dxy     :     0.037730
 24 C s       :     2.765286  s :     2.765286
      pz      :     0.957701  p :     2.746413
      px      :     0.910437
      py      :     0.878276
      dz2     :     0.029746  d :     0.163022
      dxz     :     0.033195
      dyz     :     0.031187
      dx2y2   :     0.035747
      dxy     :     0.033147
 25 O s       :     3.461307  s :     3.461307
      pz      :     1.474833  p :     4.642873
      px      :     1.634818
      py      :     1.533222
      dz2     :     0.057824  d :     0.293271
      dxz     :     0.063133
      dyz     :     0.051309
      dx2y2   :     0.059644
      dxy     :     0.061362
 26 H s       :     0.759443  s :     0.759443
      pz      :     0.006846  p :     0.042360
      px      :     0.012843
      py      :     0.022670
 27 H s       :     0.758227  s :     0.758227
      pz      :     0.010833  p :     0.041472
      px      :     0.010071
      py      :     0.020568
 28 H s       :     0.759566  s :     0.759566
      pz      :     0.026013  p :     0.042253
      px      :     0.007209
      py      :     0.009031
 29 H s       :     0.765406  s :     0.765406
      pz      :     0.019808  p :     0.041170
      px      :     0.013952
      py      :     0.007410
 30 H s       :     0.756480  s :     0.756480
      pz      :     0.019287  p :     0.042881
      px      :     0.007316
      py      :     0.016279
 31 H s       :     0.757571  s :     0.757571
      pz      :     0.009257  p :     0.042432
      px      :     0.026225
      py      :     0.006950
 32 H s       :     0.777323  s :     0.777323
      pz      :     0.010619  p :     0.044395
      px      :     0.014953
      py      :     0.018822
 33 H s       :     0.782418  s :     0.782418
      pz      :     0.028550  p :     0.045154
      px      :     0.008733
      py      :     0.007870
 34 H s       :     0.775123  s :     0.775123
      pz      :     0.008343  p :     0.044425
      px      :     0.027350
      py      :     0.008732
 35 H s       :     0.783766  s :     0.783766
      pz      :     0.009372  p :     0.043776
      px      :     0.018617
      py      :     0.015787
 36 H s       :     0.778792  s :     0.778792
      pz      :     0.008386  p :     0.044893
      px      :     0.025234
      py      :     0.011273
 37 H s       :     0.773232  s :     0.773232
      pz      :     0.011956  p :     0.044843
      px      :     0.007992
      py      :     0.024896
 38 H s       :     0.607683  s :     0.607683
      pz      :     0.023371  p :     0.089120
      px      :     0.030553
      py      :     0.035196
 39 H s       :     0.763021  s :     0.763021
      pz      :     0.027268  p :     0.044677
      px      :     0.007635
      py      :     0.009774
 40 H s       :     0.762489  s :     0.762489
      pz      :     0.015109  p :     0.044691
      px      :     0.007361
      py      :     0.022221
 41 H s       :     0.764021  s :     0.764021
      pz      :     0.007762  p :     0.044263
      px      :     0.023165
      py      :     0.013336
 42 H s       :     0.753990  s :     0.753990
      pz      :     0.007165  p :     0.041873
      px      :     0.017631
      py      :     0.017076
 43 H s       :     0.746970  s :     0.746970
      pz      :     0.024869  p :     0.043404
      px      :     0.009974
      py      :     0.008561
 44 H s       :     0.748487  s :     0.748487
      pz      :     0.008243  p :     0.045271
      px      :     0.009237
      py      :     0.027791
 45 H s       :     0.556352  s :     0.556352
      pz      :     0.063742  p :     0.119916
      px      :     0.029614
      py      :     0.026560


                      *****************************
                      * MAYER POPULATION ANALYSIS *
                      *****************************

  NA   - Mulliken gross atomic population
  ZA   - Total nuclear charge
  QA   - Mulliken gross atomic charge
  VA   - Mayer's total valence
  BVA  - Mayer's bonded valence
  FA   - Mayer's free valence

  ATOM       NA         ZA         QA         VA         BVA        FA
  0 C      6.2952     6.0000    -0.2952     3.6917     3.6917    -0.0000
  1 O      8.1379     8.0000    -0.1379     2.3077     2.3077    -0.0000
  2 C      5.7316     6.0000     0.2684     3.8650     3.8650    -0.0000
  3 O      8.1409     8.0000    -0.1409     2.2562     2.2562     0.0000
  4 C      6.3171     6.0000    -0.3171     3.7421     3.7421     0.0000
  5 C      5.9017     6.0000     0.0983     3.6196     3.6196     0.0000
  6 N      7.0800     7.0000    -0.0800     2.8662     2.8662    -0.0000
  7 C      5.9795     6.0000     0.0205     3.7132     3.7132     0.0000
  8 C      5.9580     6.0000     0.0420     3.6525     3.6525     0.0000
  9 C      6.4784     6.0000    -0.4784     3.7364     3.7364     0.0000
 10 C      6.6329     6.0000    -0.6329     3.7829     3.7829    -0.0000
 11 N      7.1603     7.0000    -0.1603     2.8871     2.8871    -0.0000
 12 C      6.1458     6.0000    -0.1458     3.9694     3.9694    -0.0000
 13 O      8.4136     8.0000    -0.4136     2.0237     2.0237     0.0000
 14 C      5.5701     6.0000     0.4299     3.7083     3.7083    -0.0000
 15 N      7.1582     7.0000    -0.1582     3.1760     3.1760    -0.0000
 16 N      7.2885     7.0000    -0.2885     3.1007     3.1007     0.0000
 17 C      5.5965     6.0000     0.4035     3.5811     3.5811     0.0000
 18 C      6.6327     6.0000    -0.6327     3.7982     3.7982    -0.0000
 19 O      8.0580     8.0000    -0.0580     2.3133     2.3133    -0.0000
 20 N      6.7063     7.0000     0.2937     3.5055     3.5055     0.0000
 21 C      6.4256     6.0000    -0.4256     3.7639     3.7639     0.0000
 22 C      5.7861     6.0000     0.2139     3.9566     3.9566    -0.0000
 23 O      8.4782     8.0000    -0.4782     2.0401     2.0401    -0.0000
 24 C      5.8679     6.0000     0.1321     3.6156     3.6156     0.0000
 25 O      8.3406     8.0000    -0.3406     2.1203     2.1203    -0.0000
 26 H      0.8019     1.0000     0.1981     0.9427     0.9427    -0.0000
 27 H      0.8000     1.0000     0.2000     0.9448     0.9448    -0.0000
 28 H      0.7997     1.0000     0.2003     0.9414     0.9414    -0.0000
 29 H      0.8108     1.0000     0.1892     0.9453     0.9453    -0.0000
 30 H      0.7996     1.0000     0.2004     0.9378     0.9378     0.0000
 31 H      0.7960     1.0000     0.2040     0.9343     0.9343     0.0000
 32 H      0.8047     1.0000     0.1953     0.9503     0.9503     0.0000
 33 H      0.8155     1.0000     0.1845     0.9549     0.9549     0.0000
 34 H      0.7981     1.0000     0.2019     0.9492     0.9492    -0.0000
 35 H      0.8123     1.0000     0.1877     0.9504     0.9504    -0.0000
 36 H      0.8083     1.0000     0.1917     0.9485     0.9485    -0.0000
 37 H      0.7933     1.0000     0.2067     0.9410     0.9410    -0.0000
 38 H      0.6777     1.0000     0.3223     0.8926     0.8926    -0.0000
 39 H      0.7986     1.0000     0.2014     0.9442     0.9442    -0.0000
 40 H      0.7973     1.0000     0.2027     0.9436     0.9436    -0.0000
 41 H      0.7941     1.0000     0.2059     0.9476     0.9476    -0.0000
 42 H      0.7866     1.0000     0.2134     0.9394     0.9394     0.0000
 43 H      0.8046     1.0000     0.1954     0.9488     0.9488     0.0000
 44 H      0.7942     1.0000     0.2058     0.9406     0.9406     0.0000
 45 H      0.6249     1.0000     0.3751     0.8771     0.8771    -0.0000

  Mayer bond orders larger than 0.100000
B(  0-C ,  1-O ) :   0.7988 B(  0-C , 26-H ) :   0.9402 B(  0-C , 27-H ) :   0.9523 
B(  0-C , 28-H ) :   0.9377 B(  1-O ,  2-C ) :   1.3683 B(  2-C ,  3-O ) :   1.3379 
B(  2-C ,  5-C ) :   1.0567 B(  3-O ,  4-C ) :   0.8320 B(  4-C , 29-H ) :   0.9490 
B(  4-C , 30-H ) :   0.9350 B(  4-C , 31-H ) :   0.9293 B(  5-C ,  6-N ) :   1.0054 
B(  5-C , 24-C ) :   1.3725 B(  6-N ,  7-C ) :   1.5869 B(  7-C ,  8-C ) :   0.7696 
B(  7-C , 13-O ) :   0.1160 B(  7-C , 20-N ) :   1.2032 B(  8-C ,  9-C ) :   1.0049 
B(  8-C , 10-C ) :   0.8961 B(  8-C , 11-N ) :   0.7609 B(  9-C , 32-H ) :   0.9606 
B(  9-C , 33-H ) :   0.9266 B(  9-C , 34-H ) :   0.9654 B( 10-C , 35-H ) :   0.9712 
B( 10-C , 36-H ) :   0.9540 B( 10-C , 37-H ) :   0.9606 B( 11-N , 12-C ) :   1.1555 
B( 11-N , 38-H ) :   0.8976 B( 12-C , 13-O ) :   1.8581 B( 12-C , 14-C ) :   0.7670 
B( 12-C , 16-N ) :   0.1135 B( 13-O , 14-C ) :  -0.1092 B( 14-C , 15-N ) :   1.7401 
B( 14-C , 17-C ) :   0.1287 B( 14-C , 19-O ) :   1.0800 B( 15-N , 16-N ) :   1.2634 
B( 16-N , 17-C ) :   1.6093 B( 17-C , 18-C ) :   0.8215 B( 17-C , 19-O ) :   1.0668 
B( 18-C , 39-H ) :   0.9439 B( 18-C , 40-H ) :   0.9415 B( 18-C , 41-H ) :   0.9892 
B( 20-N , 21-C ) :   0.8571 B( 20-N , 22-C ) :   1.1117 B( 21-C , 42-H ) :   0.9268 
B( 21-C , 43-H ) :   0.9327 B( 21-C , 44-H ) :   0.9258 B( 22-C , 23-O ) :   1.7917 
B( 22-C , 24-C ) :   0.9140 B( 24-C , 25-O ) :   1.1497 B( 25-O , 45-H ) :   0.8062 


-------
TIMINGS
-------

Total SCF time: 0 days 0 hours 1 min 24 sec 

Total time                  ....      84.040 sec
Sum of individual times     ....      82.878 sec  ( 98.6%)

Fock matrix formation       ....      75.978 sec  ( 90.4%)
  Split-RI-J                ....      11.941 sec  ( 15.7% of F)
  XC integration            ....      37.214 sec  ( 49.0% of F)
    Basis function eval.    ....       5.138 sec  ( 13.8% of XC)
    Density eval.           ....      13.857 sec  ( 37.2% of XC)
    XC-Functional eval.     ....       2.983 sec  (  8.0% of XC)
    XC-Potential eval.      ....      12.280 sec  ( 33.0% of XC)
Diagonalization             ....       0.930 sec  (  1.1%)
Density matrix formation    ....       0.064 sec  (  0.1%)
Population analysis         ....       0.132 sec  (  0.2%)
Initial guess               ....       1.553 sec  (  1.8%)
Orbital Transformation      ....       0.000 sec  (  0.0%)
Orbital Orthonormalization  ....       0.000 sec  (  0.0%)
DIIS solution               ....       0.393 sec  (  0.5%)
SOSCF solution              ....       0.432 sec  (  0.5%)
Grid generation             ....       3.396 sec  (  4.0%)

Maximum memory used throughout the entire SCF-calculation: 160.9 MB


-------------------------------------------------------------------------------
                          DFT DISPERSION CORRECTION                            
                                                                               
                                 DFTD4 V2.5                                    
-------------------------------------------------------------------------------
The R2SCAN3C composite method is recognized
Using three-body term ABC
Active option DFTDOPT                   ...         5   

Starting D4
-------------------------   ----------------
Dispersion correction           -0.021548474
-------------------------   ----------------

------------------   -----------------
gCP correction             0.045310029
------------------   -----------------

-------------------------   --------------------
FINAL SINGLE POINT ENERGY     -1308.349167053503
-------------------------   --------------------


                            ***************************************
                            *     ORCA property calculations      *
                            ***************************************

                                    ---------------------
                                    Active property flags
                                    ---------------------
   (+) Dipole Moment


------------------------------------------------------------------------------
                       ORCA ELECTRIC PROPERTIES CALCULATION
------------------------------------------------------------------------------

Dipole Moment Calculation                       ... on
Quadrupole Moment Calculation                   ... off
Polarizability Calculation                      ... off
GBWName                                         ... /lustre/hpc/kemi/ree/PhD/git/ReactivityQM/calculations/R03/reac02prodN03/conf09/gfn1/orca_calc.gbw
Electron density                                ... /lustre/hpc/kemi/ree/PhD/git/ReactivityQM/calculations/R03/reac02prodN03/conf09/gfn1/orca_calc.scfp
The origin for moment calculation is the CENTER OF MASS  = ( 0.141457,  0.804853  0.070479)

-------------
DIPOLE MOMENT
-------------
                                X             Y             Z
Electronic contribution:      0.01469      14.29530      -4.21368
Nuclear contribution   :     -4.44458     -18.18453       4.78221
                        -----------------------------------------
Total Dipole Moment    :     -4.42989      -3.88923       0.56852
                        -----------------------------------------
Magnitude (a.u.)       :      5.92226
Magnitude (Debye)      :     15.05320



--------------------
Rotational spectrum 
--------------------
 
Rotational constants in cm-1:     0.014114     0.003548     0.003296 
Rotational constants in MHz :   423.123240   106.379045    98.823116 

 Dipole components along the rotational axes: 
x,y,z [a.u.] :     3.700606     2.972918    -3.541255 
x,y,z [Debye]:     9.406194     7.556558    -9.001155 

 

Timings for individual modules:

Sum of individual times         ...       85.240 sec (=   1.421 min)
GTO integral calculation        ...        0.933 sec (=   0.016 min)   1.1 %
SCF iterations                  ...       84.307 sec (=   1.405 min)  98.9 %
                             ****ORCA TERMINATED NORMALLY****
TOTAL RUN TIME: 0 days 0 hours 1 minutes 26 seconds 121 msec
