42
 energy: -82.978057230530 gnorm: 0.000724492100 xtb: 6.5.1 (579679a)
C            7.06943941722943       -0.76264306043646        0.78984093415035
O            5.84088225187964       -0.07316033771562        0.98165292007755
C            4.87420315615345       -0.32140598452732        0.06520924316696
O            5.07649816838003       -1.09408320373822       -0.86358202308750
C            3.62543965630719        0.39511402240358        0.28852627174347
N            2.66922049833239        0.10781202767507       -0.66798292027576
C            1.51469876678136        0.65491065002715       -0.62366756635589
C            0.48056376396918        0.36739438470919       -1.69010653372703
C            0.29830987512978        1.60395148561223       -2.58116380326631
C            0.90013651967378       -0.85449044467845       -2.51009663114805
N           -0.79412927069863        0.07785829778518       -0.99401654970479
C           -1.93837146693389       -0.18680583833270       -1.62898136495729
O           -2.12716486530795       -0.24560315736080       -2.82563288878915
C           -3.06139311328395       -0.41768443545414       -0.64748580064161
N           -3.00286780741776       -0.39701275132932        0.65102431621290
N           -4.26203917698014       -0.64292797674652        1.05840437591359
C           -4.58039974402225       -0.69870479673917        2.47020313820316
C           -5.04769009447607       -0.80614191412469        0.01381798320614
C           -6.49318753506717       -1.07931759783701       -0.01698196895202
O           -4.31391219183260       -0.66922575606038       -1.06941892964026
N            1.17034771056168        1.56139149694706        0.36372085737748
C            2.01165517814628        1.92206225077083        1.38895668238828
O            1.62165591536469        2.71287258869215        2.24230656128986
C            3.38823403429091        1.29224929207662        1.36360469658676
O            4.19329214526373        1.59656605034213        2.26047805180997
H            7.49953366928769       -0.52249451578577       -0.18744734062884
H            6.91831410484322       -1.84472634480208        0.85259379608354
H            7.74497127515756       -0.43781573400378        1.58041536680603
H           -0.05809367758898        2.44280365556568       -1.98631447443067
H           -0.41920953587344        1.40263956822358       -3.37370108537192
H            1.25617296477290        1.86646598417301       -3.02888508770047
H            1.88783101924612       -0.67466874425771       -2.93343076341777
H            0.19095294407888       -1.03547717764472       -3.31467827025517
H            0.94766581216933       -1.73292811447833       -1.86828254124660
H           -0.79423687053502        0.07005851827375        0.01311488885724
H           -5.39324244144960       -0.00483175184347        2.67474648415368
H           -3.68895415026399       -0.42143339853845        3.02667349436073
H           -4.88850513241468       -1.71229819893809        2.72236159808342
H           -6.74554332099992       -1.84816212783928        0.71250703799846
H           -7.04196333489807       -0.17249479294909        0.24655204339361
H           -6.78538399707969       -1.39495865592868       -1.01691319804622
H            0.25627088010477        1.97734253880809        0.36639799978851
