47
 energy: -80.203746757384 gnorm: 0.000553813202 xtb: 6.5.1 (579679a)
C           -3.95892502921858        1.52455127578192        0.65209527113877
N           -2.69699165282030        0.82840321247157        0.84300549159963
C           -1.72619388286318        1.51401294848697        1.70772903183296
O           -2.12106991495609        2.51352441739561        2.38547225918700
C           -0.49123939733033        0.95995443455705        1.71576467970684
O            0.53326125570040        1.54007118534695        2.52623882219305
C           -0.06148870270884       -0.17169332406975        0.84171598927870
C            0.85340628559936       -1.16618669915480        1.59479821018746
C            0.75479913185673        0.32599916880623       -0.38520244588216
O            0.56852340899542       -0.06265896420581       -1.53465615053888
N            1.69321432938665        1.25272725391649       -0.08960704632722
C            2.61684963870174        1.74284730883316       -1.09939079950063
C            3.90167801351431        0.93970347447450       -1.09922911049221
C            5.11416244427705        1.54248947266799       -0.77475057906371
C            6.29228989743866        0.80633579011615       -0.76498577003407
C            6.22642368707619       -0.53766631166200       -1.08132305545499
F            7.36200463873915       -1.25976280963640       -1.07152721740906
C            5.04004531271098       -1.16988651409180       -1.40997855191691
C            3.87479583231841       -0.41785417178941       -1.41895743992672
N           -1.21064151497490       -0.91362157456591        0.34910308458667
C           -2.38884084430583       -0.39949123288955        0.32937146170277
C           -3.47025888709055       -1.33041522893860       -0.25049239255035
C           -4.39093798776540       -1.83770345929804        0.87024062610462
C           -4.28507241846493       -0.70291631621324       -1.39776748074814
N           -2.77834307360145       -2.51489100425094       -0.77128439972045
H           -4.08605112774654        1.82215888696267       -0.39159752211767
H           -3.93893988470355        2.42836386224527        1.26747896917970
H           -4.81481402310802        0.92494668460867        0.96380874703053
H            0.11342813505883        2.28118374063577        2.98917669931246
H            1.74713106970596       -0.65997003694940        1.95659420921954
H            1.14520039961579       -1.98011678714883        0.93131632494489
H            0.31180260200110       -1.58094530734537        2.44501283370422
H            1.87048137397807        1.52121302940563        0.86788241998077
H            2.82893502875097        2.79670474766727       -0.90151829751366
H            2.12572606995243        1.65813125527980       -2.07601717452114
H            5.14722347779827        2.59822852265224       -0.53198126660040
H            7.24061722482976        1.26463154158496       -0.51781243026235
H            5.03423847406742       -2.22405010969436       -1.65470553366418
H            2.93390530644346       -0.89138751676661       -1.67861486829334
H           -3.79880217752544       -2.38119102645803        1.60754568500462
H           -4.91336827017419       -1.02485304558128        1.36967579481070
H           -5.13374169910618       -2.51709708785045        0.45306970163389
H           -5.10599807947916       -0.09180411603142       -1.03030047145319
H           -4.71728525149948       -1.49938383172930       -2.00355942551226
H           -3.64430869351420       -0.09678483259703       -2.03768420361351
H           -2.13369723633248       -2.22677663934868       -1.50195345534298
H           -3.46313328922687       -3.12707626562569       -1.19220022387996
