      -----------------------------------------------------------      
     |                   =====================                   |     
     |                           x T B                           |     
     |                   =====================                   |     
     |                         S. Grimme                         |     
     |          Mulliken Center for Theoretical Chemistry        |     
     |                    University of Bonn                     |     
      -----------------------------------------------------------      

   * xtb version 6.5.1 (579679a) compiled by 'ehlert@majestix' on 2022-07-11

   xtb is free software: you can redistribute it and/or modify it under
   the terms of the GNU Lesser General Public License as published by
   the Free Software Foundation, either version 3 of the License, or
   (at your option) any later version.
   
   xtb is distributed in the hope that it will be useful,
   but WITHOUT ANY WARRANTY; without even the implied warranty of
   MERCHANTABILITY or FITNESS FOR A PARTICULAR PURPOSE.  See the
   GNU Lesser General Public License for more details.
   
   Cite this work as:
   * C. Bannwarth, E. Caldeweyher, S. Ehlert, A. Hansen, P. Pracht,
     J. Seibert, S. Spicher, S. Grimme, WIREs Comput. Mol. Sci., 2020, 11,
     e01493. DOI: 10.1002/wcms.1493
   
   for GFN2-xTB:
   * C. Bannwarth, S. Ehlert and S. Grimme., J. Chem. Theory Comput., 2019,
     15, 1652-1671. DOI: 10.1021/acs.jctc.8b01176
   for GFN1-xTB:
   * S. Grimme, C. Bannwarth, P. Shushkov, J. Chem. Theory Comput., 2017,
     13, 1989-2009. DOI: 10.1021/acs.jctc.7b00118
   for GFN0-xTB:
   * P. Pracht, E. Caldeweyher, S. Ehlert, S. Grimme, ChemRxiv, 2019, preprint.
     DOI: 10.26434/chemrxiv.8326202.v1
   for GFN-FF:
   * S. Spicher and S. Grimme, Angew. Chem. Int. Ed., 2020, 59, 15665-15673.
     DOI: 10.1002/anie.202004239
   
   for ALPB and GBSA implicit solvation:
   * S. Ehlert, M. Stahn, S. Spicher, S. Grimme, J. Chem. Theory Comput.,
     2021, 17, 4250-4261. DOI: 10.1021/acs.jctc.1c00471
   
   for DFT-D4:
   * E. Caldeweyher, C. Bannwarth and S. Grimme, J. Chem. Phys., 2017,
     147, 034112. DOI: 10.1063/1.4993215
   * E. Caldeweyher, S. Ehlert, A. Hansen, H. Neugebauer, S. Spicher,
     C. Bannwarth and S. Grimme, J. Chem. Phys., 2019, 150, 154122.
     DOI: 10.1063/1.5090222
   * E. Caldeweyher, J.-M. Mewes, S. Ehlert and S. Grimme, Phys. Chem. Chem. Phys.
     2020, 22, 8499-8512. DOI: 10.1039/D0CP00502A
   
   for sTDA-xTB:
   * S. Grimme and C. Bannwarth, J. Chem. Phys., 2016, 145, 054103.
     DOI: 10.1063/1.4959605
   
   in the mass-spec context:
   * V. Asgeirsson, C. Bauer and S. Grimme, Chem. Sci., 2017, 8, 4879.
     DOI: 10.1039/c7sc00601b
   * J. Koopman and S. Grimme, ACS Omega 2019, 4, 12, 15120-15133.
     DOI: 10.1021/acsomega.9b02011
   
   for metadynamics refer to:
   * S. Grimme, J. Chem. Theory Comput., 2019, 155, 2847-2862
     DOI: 10.1021/acs.jctc.9b00143
   
   for SPH calculations refer to:
   * S. Spicher and S. Grimme, J. Chem. Theory Comput., 2021, 17, 1701-1714
     DOI: 10.1021/acs.jctc.0c01306
   
   with help from (in alphabetical order)
   P. Atkinson, C. Bannwarth, F. Bohle, G. Brandenburg, E. Caldeweyher
   M. Checinski, S. Dohm, S. Ehlert, S. Ehrlich, I. Gerasimov, C. Hölzer
   A. Katbashev, J. Koopman, C. Lavigne, S. Lehtola, F. März, M. Müller,
   F. Musil, H. Neugebauer, J. Pisarek, C. Plett, P. Pracht, F. Pultar,
   J. Seibert, P. Shushkov, S. Spicher, M. Stahn, M. Steiner, T. Strunk,
   J. Stückrath, T. Rose, and J. Unsleber
   
 * started run on 2023/06/20 at 15:29:58.583     

           -------------------------------------------------
          |                Calculation Setup                |
           -------------------------------------------------

          program call               : /lustre/hpc/kemi/ree/PhD/git/ReactivityQM/dep/xtb-6.5.1/bin/xtb --gfn 1 /lustre/hpc/kemi/ree/PhD/git/ReactivityQM/calculations/R03/reac02prodE10/conf16/R03_reac02prodE10_conf16_gfn1.xyz --opt --vfukui --chrg -1 --uhf 0 --alpb DMSO
          hostname                   : node068
          coordinate file            : /lustre/hpc/kemi/ree/PhD/git/ReactivityQM/calculations/R03/reac02prodE10/conf16/R03_reac02prodE10_conf16_gfn1.xyz
          omp threads                :                     1

   ID    Z sym.   atoms
    1    6 C      1, 3, 5, 7-10, 12, 14, 17-19, 22, 23, 25
    2    8 O      2, 4, 13, 20, 24, 26
    3    7 N      6, 11, 15, 16, 21
    4    1 H      27-46

           -------------------------------------------------
          |                 G F N 1 - x T B                 |
           -------------------------------------------------

        Reference                      10.1021/acs.jctc.7b00118
      * Hamiltonian:
        H0-scaling (s, p, d)           1.850000    2.250000    2.000000
        zeta-weighting                 0.000000
      * Dispersion:
        s8                             2.400000
        a1                             0.630000
        a2                             5.000000
        s9                             0.000000
      * Repulsion:
        kExp                           1.500000
        rExp                           1.000000
      * Coulomb:
        alpha                          2.000000
        third order                    atomic
        anisotropic                    false
      * Halogen bond correction:
        rad-scale                      1.300000
        damping                        0.440000

      * Solvation model:               ALPB
        Solvent                        DMSO
        Parameter file                 internal GFN1-xTB/ALPB
        Dielectric constant                4.6680E+01
        Reference state                gsolv [1 M gas/solution]
        Free energy shift                  7.6243E-03 Eh       4.7843E+00 kcal/mol
        Temperature                        2.9815E+02 K
        Density                            1.1000E+00 kg/L
        Solvent mass                       7.8130E+01 g/mol
        Interaction kernel             P16
        Born radius scaling (c1)           1.7672E+00
        Born radii integrator          GBOBC
        Born offset                        0.0000E+00 a0       0.0000E+00 AA
        H-bond correction              true
        Ion screening                  false
        Surface tension                    1.0000E-05 Eh       1.5569E+01 dyn/cm
        Grid points                               230 per atom

          ...................................................
          :                      SETUP                      :
          :.................................................:
          :  # basis functions                 144          :
          :  # atomic orbitals                 144          :
          :  # shells                           92          :
          :  # electrons                       142          :
          :  # halogen bonds                     0          :
          :  max. iterations                   250          :
          :  Hamiltonian                  GFN1-xTB          :
          :  restarted?                      false          :
          :  GBSA solvation                   true          :
          :  PC potential                    false          :
          :  electronic temp.          300.0000000     K    :
          :  accuracy                    1.0000000          :
          :  -> integral cutoff          0.2500000E+02      :
          :  -> integral neglect         0.1000000E-07      :
          :  -> SCF convergence          0.1000000E-05 Eh   :
          :  -> wf. convergence          0.2000000E-04 e    :
          :  Broyden damping             0.4000000          :
          ...................................................

 iter      E             dE          RMSdq      gap      omega  full diag
   1    -87.4719234 -0.874719E+02  0.857E+00    0.01       0.0  T
   2    -87.6092373 -0.137314E+00  0.529E+00    0.47       1.0  T
   3    -87.2609372  0.348300E+00  0.301E+00    1.47       1.0  T
   4    -87.5798177 -0.318880E+00  0.159E+00    0.84       1.0  T
   5    -87.5525317  0.272859E-01  0.125E+00    0.98       1.0  T
   6    -87.6688021 -0.116270E+00  0.100E+00    0.40       1.0  T
   7    -87.7572132 -0.884111E-01  0.401E-01    0.03       1.0  T
   8    -87.7483101  0.890317E-02  0.357E-01    0.02       1.0  T
   9    -87.7215314  0.267787E-01  0.571E-01    0.16       1.0  T
  10    -87.7525905 -0.310592E-01  0.304E-01    0.09       1.0  T
  11    -87.7620692 -0.947869E-02  0.195E-01    0.02       1.0  T
  12    -87.7678293 -0.576003E-02  0.378E-02    0.03       1.0  T
  13    -87.7680283 -0.199004E-03  0.217E-02    0.04       1.0  T
  14    -87.7680730 -0.447878E-04  0.673E-03    0.04       2.2  T
  15    -87.7680401  0.329271E-04  0.154E-02    0.04       1.0  T
  16    -87.7680789 -0.387452E-04  0.136E-03    0.04      10.9  T
  17    -87.7680790 -0.984767E-07  0.878E-04    0.04      16.8  T
  18    -87.7680790 -0.821698E-07  0.516E-04    0.04      28.6  T
  19    -87.7680791 -0.295822E-07  0.196E-04    0.04      75.3  T
  20    -87.7680791 -0.565544E-08  0.586E-05    0.04     251.7  T

   *** convergence criteria satisfied after 20 iterations ***

         #    Occupation            Energy/Eh            Energy/eV
      -------------------------------------------------------------
         1        2.0000           -0.8313659             -22.6226
       ...           ...                  ...                  ...
        65        2.0000           -0.4216456             -11.4736
        66        2.0000           -0.4135296             -11.2527
        67        2.0000           -0.4023234             -10.9478
        68        2.0000           -0.3997462             -10.8776
        69        2.0000           -0.3904250             -10.6240
        70        2.0000           -0.3794597             -10.3256
        71        1.3295           -0.2794480              -7.6042 (HOMO)
        72        0.6704           -0.2781470              -7.5688 (LUMO)
        73        0.0001           -0.2694932              -7.3333
        74                         -0.2411468              -6.5619
        75                         -0.1931036              -5.2546
        76                         -0.1530662              -4.1651
       ...                                ...                  ...
       144                          0.7366335              20.0448
      -------------------------------------------------------------
                  HL-Gap            0.0013010 Eh            0.0354 eV
             Fermi-level           -0.2787976 Eh           -7.5865 eV

 SCC (total)                   0 d,  0 h,  0 min,  0.228 sec
 SCC setup                      ...        0 min,  0.002 sec (  0.971%)
 Dispersion                     ...        0 min,  0.000 sec (  0.158%)
 classical contributions        ...        0 min,  0.000 sec (  0.051%)
 integral evaluation            ...        0 min,  0.030 sec ( 13.061%)
 iterations                     ...        0 min,  0.128 sec ( 56.221%)
 molecular gradient             ...        0 min,  0.066 sec ( 28.877%)
 printout                       ...        0 min,  0.001 sec (  0.652%)

         :::::::::::::::::::::::::::::::::::::::::::::::::::::
         ::                     SUMMARY                     ::
         :::::::::::::::::::::::::::::::::::::::::::::::::::::
         :: total energy             -86.981522138531 Eh    ::
         :: total w/o Gsasa/hb       -86.958989507473 Eh    ::
         :: gradient norm              0.140441727542 Eh/a0 ::
         :: HOMO-LUMO gap              0.035402705784 eV    ::
         ::.................................................::
         :: SCC energy               -87.768079077796 Eh    ::
         :: -> electrostatic           0.468362970478 Eh    ::
         :: -> Gsolv                  -0.124615321463 Eh    ::
         ::    -> Gelec               -0.102082690405 Eh    ::
         ::    -> Gsasa               -0.025416165775 Eh    ::
         ::    -> Ghb                 -0.004740744288 Eh    ::
         ::    -> Gshift               0.007624279005 Eh    ::
         :: repulsion energy           0.815029064594 Eh    ::
         :: dispersion energy         -0.028472125329 Eh    ::
         :: halogen bond corr.         0.000000000000 Eh    ::
         :: add. restraining           0.000000000000 Eh    ::
         :: total charge              -1.000000000001 e     ::
         :::::::::::::::::::::::::::::::::::::::::::::::::::::

      ----------------------------------------------------------- 
     |                   =====================                   |
     |                        A N C O P T                        |
     |                   =====================                   |
     |               Approximate Normal Coordinate               |
     |                Rational Function Optimizer                |
      ----------------------------------------------------------- 

          ...................................................
          :                      SETUP                      :
          :.................................................:
          :   optimization level            normal          :
          :   max. optcycles                   200          :
          :   ANC micro-cycles                  20          :
          :   degrees of freedom               132          :
          :.................................................:
          :   RF solver                   davidson          :
          :   write xtbopt.log                true          :
          :   linear?                        false          :
          :   energy convergence         0.5000000E-05 Eh   :
          :   grad. convergence          0.1000000E-02 Eh/α :
          :   maximium RF displ.         1.0000000          :
          :   Hlow (freq-cutoff)         0.1000000E-01      :
          :   Hmax (freq-cutoff)         5.0000000          :
          :   S6 in model hess.         20.0000000          :
          ...................................................

generating ANC from model Hessian ...
Using Lindh-Hessian (1995)
 Shifting diagonal of input Hessian by   9.849004850407647E-003
 Lowest  eigenvalues of input Hessian
    0.000000    0.000000    0.000000    0.000000    0.000000    0.000000
    0.010000    0.010212    0.010364    0.010721    0.011803    0.012149
    0.012475    0.014199    0.015037    0.015240    0.016049    0.016587
 Highest eigenvalues
    1.991705    2.010624    2.155656    2.246765    2.258603    2.351761
 

........................................................................
.............................. CYCLE    1 ..............................
........................................................................
   1    -87.7680791 -0.877681E+02  0.123E-05    0.04       0.0  T
   2    -87.7680791  0.745459E-08  0.211E-04    0.04      70.0  T
   3    -87.7680791 -0.742489E-08  0.228E-05    0.04     647.4  T
   4    -87.7680791 -0.517701E-10  0.125E-06    0.04   11787.1  T
     SCC iter.                  ...        0 min,  0.026 sec
     gradient                   ...        0 min,  0.065 sec
 * total energy  :   -86.9815221 Eh     change       -0.5442473E-09 Eh
   gradient norm :     0.1404430 Eh/α   predicted     0.0000000E+00 (-100.00%)
   displ. norm   :     0.2993792 α      lambda       -0.1963814E-01
   maximum displ.:     0.1410613 α      in ANC's #32, #22, #27, ...

........................................................................
.............................. CYCLE    2 ..............................
........................................................................
   1    -87.7623113 -0.877623E+02  0.336E-01    0.07       0.0  T
   2    -87.5665749  0.195736E+00  0.118E+00    0.62       1.0  T
   3    -87.7582107 -0.191636E+00  0.425E-01    0.07       1.0  T
   4    -87.7328173  0.253934E-01  0.502E-01    0.04       1.0  T
   5    -87.7506434 -0.178262E-01  0.389E-01    0.11       1.0  T
   6    -87.7752278 -0.245844E-01  0.396E-02    0.04       1.0  T
   7    -87.7753294 -0.101604E-03  0.297E-02    0.04       1.0  T
   8    -87.7754397 -0.110261E-03  0.150E-02    0.04       1.0  T
   9    -87.7754716 -0.318888E-04  0.488E-03    0.04       3.0  T
  10    -87.7754754 -0.376986E-05  0.369E-04    0.03      39.9  T
  11    -87.7754752  0.201666E-06  0.114E-03    0.03      12.9  T
  12    -87.7754753 -0.164192E-06  0.586E-04    0.03      25.2  T
  13    -87.7754754 -0.559649E-07  0.976E-05    0.03     151.0  T
  14    -87.7754754 -0.155650E-08  0.174E-05    0.03     849.0  T
     SCC iter.                  ...        0 min,  0.090 sec
     gradient                   ...        0 min,  0.066 sec
 * total energy  :   -86.9961029 Eh     change       -0.1458075E-01 Eh
   gradient norm :     0.0742548 Eh/α   predicted    -0.1070629E-01 ( -26.57%)
   displ. norm   :     0.3198553 α      lambda       -0.1034830E-01
   maximum displ.:     0.1409231 α      in ANC's #32, #22, #20, ...

........................................................................
.............................. CYCLE    3 ..............................
........................................................................
   1    -87.7678168 -0.877678E+02  0.388E-01    0.09       0.0  T
   2    -87.5686119  0.199205E+00  0.124E+00    0.84       1.0  T
   3    -87.7514083 -0.182796E+00  0.482E-01    0.03       1.0  T
   4    -87.7518158 -0.407553E-03  0.462E-01    0.14       1.0  T
   5    -87.7592237 -0.740787E-02  0.411E-01    0.02       1.0  T
   6    -87.7825011 -0.232774E-01  0.170E-01    0.06       1.0  T
   7    -87.7863975 -0.389643E-02  0.766E-02    0.03       1.0  T
   8    -87.7870284 -0.630874E-03  0.451E-02    0.04       1.0  T
   9    -87.7873668 -0.338444E-03  0.452E-03    0.03       3.3  T
  10    -87.7873686 -0.179371E-05  0.311E-03    0.04       4.7  T
  11    -87.7873701 -0.153260E-05  0.690E-04    0.04      21.4  T
  12    -87.7873702 -0.772776E-07  0.916E-05    0.03     160.9  T
  13    -87.7873702 -0.138664E-08  0.140E-05    0.03    1053.6  T
     SCC iter.                  ...        0 min,  0.082 sec
     gradient                   ...        0 min,  0.067 sec
 * total energy  :   -87.0019838 Eh     change       -0.5880908E-02 Eh
   gradient norm :     0.0222496 Eh/α   predicted    -0.5705178E-02 (  -2.99%)
   displ. norm   :     0.1683532 α      lambda       -0.1082563E-02
   maximum displ.:     0.0762267 α      in ANC's #20, #22, #7, ...

........................................................................
.............................. CYCLE    4 ..............................
........................................................................
   1    -87.7870432 -0.877870E+02  0.154E-01    0.06       0.0  T
   2    -87.5912175  0.195826E+00  0.112E+00    0.36       1.0  T
   3    -87.7886388 -0.197421E+00  0.126E-01    0.02       1.0  T
   4    -87.7899880 -0.134917E-02  0.657E-02    0.03       1.0  T
   5    -87.7899590  0.289622E-04  0.645E-02    0.04       1.0  T
   6    -87.7903270 -0.367963E-03  0.459E-02    0.03       1.0  T
   7    -87.7906704 -0.343446E-03  0.691E-04    0.04      21.3  T
   8    -87.7906703  0.838409E-07  0.876E-04    0.04      16.8  T
   9    -87.7906705 -0.107184E-06  0.325E-04    0.04      45.4  T
  10    -87.7906705 -0.776936E-08  0.232E-04    0.04      63.6  T
  11    -87.7906705 -0.817498E-08  0.674E-05    0.04     218.7  T
  12    -87.7906705 -0.667654E-09  0.233E-05    0.04     633.6  T
     SCC iter.                  ...        0 min,  0.074 sec
     gradient                   ...        0 min,  0.068 sec
 * total energy  :   -87.0027888 Eh     change       -0.8049950E-03 Eh
   gradient norm :     0.0151639 Eh/α   predicted    -0.5567683E-03 ( -30.84%)
   displ. norm   :     0.1956160 α      lambda       -0.7784169E-03
   maximum displ.:     0.0819118 α      in ANC's #20, #22, #7, ...

........................................................................
.............................. CYCLE    5 ..............................
........................................................................
   1    -87.7864482 -0.877864E+02  0.204E-01    0.07       0.0  T
   2    -87.5846812  0.201767E+00  0.117E+00    0.50       1.0  T
   3    -87.7757807 -0.191099E+00  0.331E-01    0.02       1.0  T
   4    -87.7908058 -0.150252E-01  0.113E-01    0.05       1.0  T
   5    -87.7826691  0.813669E-02  0.250E-01    0.01       1.0  T
   6    -87.7929769 -0.103078E-01  0.974E-03    0.04       1.5  T
   7    -87.7928415  0.135371E-03  0.305E-02    0.03       1.0  T
   8    -87.7929924 -0.150852E-03  0.230E-03    0.04       6.4  T
   9    -87.7929933 -0.861038E-06  0.911E-05    0.04     161.8  T
  10    -87.7929932  0.157232E-07  0.311E-04    0.04      47.4  T
  11    -87.7929933 -0.156541E-07  0.354E-05    0.04     416.5  T
     SCC iter.                  ...        0 min,  0.068 sec
     gradient                   ...        0 min,  0.067 sec
 * total energy  :   -87.0032518 Eh     change       -0.4630089E-03 Eh
   gradient norm :     0.0077190 Eh/α   predicted    -0.4041059E-03 ( -12.72%)
   displ. norm   :     0.0780907 α      lambda       -0.1234786E-03
   maximum displ.:     0.0257998 α      in ANC's #18, #16, #10, ...

........................................................................
.............................. CYCLE    6 ..............................
........................................................................
   1    -87.7918695 -0.877919E+02  0.102E-01    0.05       0.0  T
   2    -87.5991634  0.192706E+00  0.109E+00    0.24       1.0  T
   3    -87.7926908 -0.193527E+00  0.784E-02    0.03       1.0  T
   4    -87.7933840 -0.693198E-03  0.357E-02    0.03       1.0  T
   5    -87.7935352 -0.151142E-03  0.177E-02    0.04       1.0  T
   6    -87.7935196  0.155258E-04  0.207E-02    0.04       1.0  T
   7    -87.7935850 -0.653245E-04  0.515E-03    0.04       2.9  T
   8    -87.7935893 -0.431188E-05  0.339E-04    0.04      43.5  T
   9    -87.7935893 -0.164359E-07  0.116E-04    0.04     126.9  T
  10    -87.7935893 -0.189547E-08  0.366E-05    0.04     403.4  T
     SCC iter.                  ...        0 min,  0.062 sec
     gradient                   ...        0 min,  0.066 sec
 * total energy  :   -87.0033436 Eh     change       -0.9182329E-04 Eh
   gradient norm :     0.0052316 Eh/α   predicted    -0.6214247E-04 ( -32.32%)
   displ. norm   :     0.1093477 α      lambda       -0.1141425E-03
   maximum displ.:     0.0383341 α      in ANC's #16, #1, #18, ...

........................................................................
.............................. CYCLE    7 ..............................
........................................................................
   1    -87.7907627 -0.877908E+02  0.131E-01    0.06       0.0  T
   2    -87.5896993  0.201063E+00  0.113E+00    0.33       1.0  T
   3    -87.7895513 -0.199852E+00  0.159E-01    0.02       1.0  T
   4    -87.7936282 -0.407688E-02  0.704E-03    0.04       2.1  T
   5    -87.7936189  0.934257E-05  0.107E-02    0.04       1.4  T
   6    -87.7936344 -0.155107E-04  0.313E-03    0.04       4.7  T
   7    -87.7936355 -0.112069E-05  0.106E-03    0.04      13.9  T
   8    -87.7936355  0.292847E-07  0.115E-03    0.04      12.8  T
   9    -87.7936357 -0.182902E-06  0.462E-04    0.04      31.9  T
  10    -87.7936357 -0.299891E-07  0.187E-04    0.04      78.8  T
  11    -87.7936357 -0.573928E-08  0.275E-06    0.04    5356.3  T
     SCC iter.                  ...        0 min,  0.068 sec
     gradient                   ...        0 min,  0.066 sec
 * total energy  :   -87.0034201 Eh     change       -0.7646594E-04 Eh
   gradient norm :     0.0034343 Eh/α   predicted    -0.5775645E-04 ( -24.47%)
   displ. norm   :     0.0909019 α      lambda       -0.5288863E-04
   maximum displ.:     0.0350164 α      in ANC's #1, #16, #3, ...

........................................................................
.............................. CYCLE    8 ..............................
........................................................................
   1    -87.7921782 -0.877922E+02  0.819E-02    0.05       0.0  T
   2    -87.6062034  0.185975E+00  0.107E+00    0.19       1.0  T
   3    -87.7929195 -0.186716E+00  0.496E-02    0.03       1.0  T
   4    -87.7933095 -0.389998E-03  0.771E-03    0.04       1.9  T
   5    -87.7933165 -0.698075E-05  0.300E-03    0.04       4.9  T
   6    -87.7933058  0.106379E-04  0.863E-03    0.04       1.7  T
   7    -87.7933179 -0.121001E-04  0.446E-04    0.04      33.1  T
   8    -87.7933180 -0.261831E-07  0.128E-04    0.04     115.1  T
   9    -87.7933180 -0.242730E-08  0.309E-05    0.04     476.9  T
     SCC iter.                  ...        0 min,  0.057 sec
     gradient                   ...        0 min,  0.068 sec
 * total energy  :   -87.0034583 Eh     change       -0.3820783E-04 Eh
   gradient norm :     0.0031396 Eh/α   predicted    -0.2666456E-04 ( -30.21%)
   displ. norm   :     0.1001788 α      lambda       -0.4294205E-04
   maximum displ.:     0.0431543 α      in ANC's #1, #16, #3, ...

........................................................................
.............................. CYCLE    9 ..............................
........................................................................
   1    -87.7925158 -0.877925E+02  0.538E-02    0.05       0.0  T
   2    -87.6494579  0.143058E+00  0.929E-01    0.11       1.0  T
   3    -87.7929660 -0.143508E+00  0.165E-02    0.04       1.0  T
   4    -87.7930053 -0.393549E-04  0.451E-03    0.04       3.3  T
   5    -87.7930059 -0.538627E-06  0.233E-03    0.04       6.3  T
   6    -87.7930064 -0.558564E-06  0.114E-03    0.04      12.9  T
   7    -87.7930066 -0.196512E-06  0.548E-05    0.04     268.9  T
   8    -87.7930066 -0.966338E-10  0.352E-05    0.04     418.4  T
     SCC iter.                  ...        0 min,  0.051 sec
     gradient                   ...        0 min,  0.067 sec
 * total energy  :   -87.0034886 Eh     change       -0.3029975E-04 Eh
   gradient norm :     0.0028687 Eh/α   predicted    -0.2170377E-04 ( -28.37%)
   displ. norm   :     0.0878595 α      lambda       -0.2847430E-04
   maximum displ.:     0.0429923 α      in ANC's #1, #16, #3, ...

........................................................................
.............................. CYCLE   10 ..............................
........................................................................
   1    -87.7929211 -0.877929E+02  0.147E-02    0.04       0.0  T
   2    -87.7831696  0.975146E-02  0.241E-01    0.02       1.0  T
   3    -87.7929317 -0.976201E-02  0.139E-02    0.04       1.1  T
   4    -87.7929486 -0.169687E-04  0.288E-03    0.04       5.1  T
   5    -87.7929499 -0.123559E-05  0.645E-04    0.04      22.8  T
   6    -87.7929499 -0.194797E-07  0.176E-04    0.04      83.7  T
   7    -87.7929499 -0.192971E-08  0.514E-05    0.04     286.6  T
     SCC iter.                  ...        0 min,  0.034 sec
     gradient                   ...        0 min,  0.056 sec
 * total energy  :   -87.0035096 Eh     change       -0.2097284E-04 Eh
   gradient norm :     0.0024400 Eh/α   predicted    -0.1436925E-04 ( -31.49%)
   displ. norm   :     0.0937160 α      lambda       -0.2450788E-04
   maximum displ.:     0.0498709 α      in ANC's #1, #16, #3, ...

........................................................................
.............................. CYCLE   11 ..............................
........................................................................
   1    -87.7930039 -0.877930E+02  0.199E-02    0.04       0.0  T
   2    -87.7799364  0.130675E-01  0.283E-01    0.09       1.0  T
   3    -87.7930521 -0.131158E-01  0.105E-02    0.04       1.4  T
   4    -87.7930495  0.261867E-05  0.901E-03    0.04       1.6  T
   5    -87.7930626 -0.131212E-04  0.706E-04    0.04      20.9  T
   6    -87.7930623  0.329764E-06  0.149E-03    0.04       9.9  T
   7    -87.7930626 -0.336739E-06  0.224E-04    0.04      65.8  T
   8    -87.7930626 -0.732955E-08  0.602E-05    0.04     245.1  T
   9    -87.7930626 -0.576719E-09  0.969E-06    0.04    1521.4  T
     SCC iter.                  ...        0 min,  0.054 sec
     gradient                   ...        0 min,  0.065 sec
 * total energy  :   -87.0035277 Eh     change       -0.1817133E-04 Eh
   gradient norm :     0.0021733 Eh/α   predicted    -0.1236228E-04 ( -31.97%)
   displ. norm   :     0.1020393 α      lambda       -0.2232278E-04
   maximum displ.:     0.0574588 α      in ANC's #1, #16, #14, ...

........................................................................
.............................. CYCLE   12 ..............................
........................................................................
   1    -87.7930474 -0.877930E+02  0.372E-02    0.03       0.0  T
   2    -87.7607670  0.322803E-01  0.447E-01    0.14       1.0  T
   3    -87.7931875 -0.324205E-01  0.241E-02    0.04       1.0  T
   4    -87.7932754 -0.878277E-04  0.463E-03    0.04       3.2  T
   5    -87.7932772 -0.180489E-05  0.280E-03    0.04       5.3  T
   6    -87.7932753  0.185930E-05  0.446E-03    0.04       3.3  T
   7    -87.7932785 -0.322755E-05  0.247E-04    0.04      59.7  T
   8    -87.7932785 -0.723327E-08  0.143E-04    0.04     103.3  T
   9    -87.7932785 -0.254111E-08  0.657E-05    0.04     224.5  T
     SCC iter.                  ...        0 min,  0.057 sec
     gradient                   ...        0 min,  0.066 sec
 * total energy  :   -87.0035448 Eh     change       -0.1701690E-04 Eh
   gradient norm :     0.0022173 Eh/α   predicted    -0.1127903E-04 ( -33.72%)
   displ. norm   :     0.1169103 α      lambda       -0.2309200E-04
   maximum displ.:     0.0686871 α      in ANC's #1, #16, #2, ...

........................................................................
.............................. CYCLE   13 ..............................
........................................................................
   1    -87.7931550 -0.877932E+02  0.465E-02    0.03       0.0  T
   2    -87.7541406  0.390143E-01  0.494E-01    0.17       1.0  T
   3    -87.7932170 -0.390763E-01  0.427E-02    0.05       1.0  T
   4    -87.7933901 -0.173110E-03  0.277E-02    0.04       1.0  T
   5    -87.7935189 -0.128848E-03  0.267E-03    0.04       5.5  T
   6    -87.7935173  0.158351E-05  0.419E-03    0.04       3.5  T
   7    -87.7935201 -0.275140E-05  0.627E-04    0.04      23.5  T
   8    -87.7935202 -0.648988E-07  0.167E-04    0.04      88.0  T
   9    -87.7935202 -0.428074E-08  0.316E-05    0.04     466.5  T
     SCC iter.                  ...        0 min,  0.056 sec
     gradient                   ...        0 min,  0.068 sec
 * total energy  :   -87.0035624 Eh     change       -0.1768629E-04 Eh
   gradient norm :     0.0023143 Eh/α   predicted    -0.1170705E-04 ( -33.81%)
   displ. norm   :     0.1255288 α      lambda       -0.2302914E-04
   maximum displ.:     0.0767353 α      in ANC's #1, #2, #16, ...

........................................................................
.............................. CYCLE   14 ..............................
........................................................................
   1    -87.7934761 -0.877935E+02  0.359E-02    0.03       0.0  T
   2    -87.7618142  0.316618E-01  0.442E-01    0.14       1.0  T
   3    -87.7935946 -0.317803E-01  0.244E-02    0.04       1.0  T
   4    -87.7936922 -0.976276E-04  0.303E-03    0.04       4.9  T
   5    -87.7936927 -0.552706E-06  0.194E-03    0.04       7.6  T
   6    -87.7936907  0.207683E-05  0.405E-03    0.04       3.6  T
   7    -87.7936934 -0.272137E-05  0.125E-04    0.04     117.8  T
   8    -87.7936934 -0.209165E-08  0.311E-05    0.04     474.7  T
   9    -87.7936934 -0.277396E-10  0.221E-05    0.04     666.3  T
     SCC iter.                  ...        0 min,  0.049 sec
     gradient                   ...        0 min,  0.056 sec
 * total energy  :   -87.0035807 Eh     change       -0.1823539E-04 Eh
   gradient norm :     0.0022434 Eh/α   predicted    -0.1169837E-04 ( -35.85%)
   displ. norm   :     0.1480071 α      lambda       -0.2549971E-04
   maximum displ.:     0.0928679 α      in ANC's #1, #2, #16, ...

........................................................................
.............................. CYCLE   15 ..............................
........................................................................
   1    -87.7936719 -0.877937E+02  0.174E-02    0.04       0.0  T
   2    -87.7825852  0.110867E-01  0.259E-01    0.08       1.0  T
   3    -87.7937142 -0.111290E-01  0.808E-03    0.04       1.8  T
   4    -87.7937182 -0.395808E-05  0.897E-04    0.04      16.4  T
   5    -87.7937182 -0.512904E-07  0.477E-04    0.04      30.9  T
   6    -87.7937182  0.163752E-09  0.253E-04    0.04      58.3  T
   7    -87.7937182 -0.815390E-08  0.581E-05    0.04     253.7  T
   8    -87.7937182 -0.392589E-09  0.155E-05    0.04     953.0  T
     SCC iter.                  ...        0 min,  0.047 sec
     gradient                   ...        0 min,  0.062 sec
 * total energy  :   -87.0036008 Eh     change       -0.2008754E-04 Eh
   gradient norm :     0.0022279 Eh/α   predicted    -0.1303231E-04 ( -35.12%)
   displ. norm   :     0.1392826 α      lambda       -0.2300769E-04
   maximum displ.:     0.0895515 α      in ANC's #1, #2, #4, ...

........................................................................
.............................. CYCLE   16 ..............................
........................................................................
   1    -87.7936301 -0.877936E+02  0.157E-02    0.04       0.0  T
   2    -87.7793516  0.142785E-01  0.293E-01    0.02       1.0  T
   3    -87.7936539 -0.143023E-01  0.104E-02    0.04       1.4  T
   4    -87.7936621 -0.821322E-05  0.511E-03    0.04       2.9  T
   5    -87.7936652 -0.307138E-05  0.263E-03    0.04       5.6  T
   6    -87.7936660 -0.835665E-06  0.116E-03    0.04      12.8  T
   7    -87.7936662 -0.206958E-06  0.950E-05    0.04     155.2  T
   8    -87.7936662 -0.922967E-09  0.451E-05    0.04     326.6  T
     SCC iter.                  ...        0 min,  0.047 sec
     gradient                   ...        0 min,  0.063 sec
 * total energy  :   -87.0036192 Eh     change       -0.1847476E-04 Eh
   gradient norm :     0.0022653 Eh/α   predicted    -0.1172944E-04 ( -36.51%)
   displ. norm   :     0.1288908 α      lambda       -0.2250834E-04
   maximum displ.:     0.0840290 α      in ANC's #1, #2, #4, ...

........................................................................
.............................. CYCLE   17 ..............................
........................................................................
   1    -87.7933677 -0.877934E+02  0.360E-02    0.04       0.0  T
   2    -87.7084632  0.849045E-01  0.714E-01    0.07       1.0  T
   3    -87.7935816 -0.851184E-01  0.562E-03    0.04       2.6  T
   4    -87.7935749  0.671449E-05  0.739E-03    0.04       2.0  T
   5    -87.7935816 -0.675951E-05  0.344E-03    0.04       4.3  T
   6    -87.7935832 -0.156082E-05  0.127E-03    0.04      11.6  T
   7    -87.7935834 -0.248871E-06  0.661E-05    0.04     223.2  T
   8    -87.7935834  0.198412E-09  0.671E-05    0.04     219.7  T
     SCC iter.                  ...        0 min,  0.048 sec
     gradient                   ...        0 min,  0.060 sec
 * total energy  :   -87.0036374 Eh     change       -0.1811969E-04 Eh
   gradient norm :     0.0021849 Eh/α   predicted    -0.1144358E-04 ( -36.84%)
   displ. norm   :     0.1138497 α      lambda       -0.2159523E-04
   maximum displ.:     0.0745442 α      in ANC's #1, #2, #4, ...

........................................................................
.............................. CYCLE   18 ..............................
........................................................................
   1    -87.7932834 -0.877933E+02  0.428E-02    0.05       0.0  T
   2    -87.6829689  0.110315E+00  0.814E-01    0.08       1.0  T
   3    -87.7935907 -0.110622E+00  0.367E-03    0.04       4.0  T
   4    -87.7935880  0.276191E-05  0.526E-03    0.04       2.8  T
   5    -87.7935912 -0.320987E-05  0.277E-03    0.04       5.3  T
   6    -87.7935922 -0.105455E-05  0.836E-04    0.04      17.6  T
   7    -87.7935923 -0.106215E-06  0.443E-05    0.04     332.8  T
   8    -87.7935923  0.367578E-09  0.605E-05    0.04     243.5  T
     SCC iter.                  ...        0 min,  0.052 sec
     gradient                   ...        0 min,  0.068 sec
 * total energy  :   -87.0036544 Eh     change       -0.1699580E-04 Eh
   gradient norm :     0.0020736 Eh/α   predicted    -0.1093968E-04 ( -35.63%)
   displ. norm   :     0.1071755 α      lambda       -0.2104486E-04
   maximum displ.:     0.0692920 α      in ANC's #1, #2, #4, ...

........................................................................
.............................. CYCLE   19 ..............................
........................................................................
   1    -87.7933548 -0.877934E+02  0.369E-02    0.05       0.0  T
   2    -87.7039460  0.894088E-01  0.732E-01    0.07       1.0  T
   3    -87.7935830 -0.896369E-01  0.331E-03    0.04       4.5  T
   4    -87.7935835 -0.572601E-06  0.241E-03    0.04       6.1  T
   5    -87.7935832  0.305431E-06  0.207E-03    0.04       7.1  T
   6    -87.7935839 -0.629369E-06  0.444E-04    0.04      33.2  T
   7    -87.7935839 -0.291948E-07  0.402E-05    0.04     366.8  T
   8    -87.7935839  0.101750E-09  0.433E-05    0.04     340.5  T
     SCC iter.                  ...        0 min,  0.030 sec
     gradient                   ...        0 min,  0.061 sec
 * total energy  :   -87.0036711 Eh     change       -0.1679260E-04 Eh
   gradient norm :     0.0020513 Eh/α   predicted    -0.1064785E-04 ( -36.59%)
   displ. norm   :     0.1267163 α      lambda       -0.2350394E-04
   maximum displ.:     0.0782120 α      in ANC's #1, #2, #4, ...

........................................................................
.............................. CYCLE   20 ..............................
........................................................................
   1    -87.7936343 -0.877936E+02  0.194E-02    0.04       0.0  T
   2    -87.7673892  0.262451E-01  0.396E-01    0.02       1.0  T
   3    -87.7936929 -0.263037E-01  0.626E-03    0.04       2.4  T
   4    -87.7936943 -0.147566E-05  0.267E-03    0.04       5.5  T
   5    -87.7936955 -0.111195E-05  0.373E-04    0.04      39.6  T
   6    -87.7936955  0.701333E-08  0.242E-04    0.04      60.8  T
   7    -87.7936955 -0.714778E-08  0.899E-05    0.04     164.0  T
   8    -87.7936955 -0.128128E-08  0.756E-06    0.04    1949.2  T
     SCC iter.                  ...        0 min,  0.041 sec
     gradient                   ...        0 min,  0.055 sec
 * total energy  :   -87.0036897 Eh     change       -0.1858486E-04 Eh
   gradient norm :     0.0023491 Eh/α   predicted    -0.1194129E-04 ( -35.75%)
   displ. norm   :     0.1594669 α      lambda       -0.2623857E-04
   maximum displ.:     0.0984302 α      in ANC's #1, #2, #4, ...
 * RMSD in coord.:     0.2774641 α      energy gain  -0.2216760E-01 Eh

generating ANC from model Hessian ...
Using Lindh-Hessian (1995)
 Shifting diagonal of input Hessian by   9.850466708118684E-003
 Lowest  eigenvalues of input Hessian
    0.000000    0.000000    0.000000    0.000000    0.000000    0.000000
    0.010000    0.010218    0.010358    0.010753    0.011474    0.012136
    0.012294    0.014264    0.015013    0.015035    0.015492    0.016494
 Highest eigenvalues
    2.099022    2.165631    2.180505    2.248041    2.249466    2.331649
 

........................................................................
.............................. CYCLE   21 ..............................
........................................................................
   1    -87.7933524 -0.877934E+02  0.533E-03    0.04       0.0  T
   2    -87.7933511  0.132066E-05  0.683E-03    0.04       2.2  T
   3    -87.7933064  0.447137E-04  0.169E-02    0.04       1.0  T
   4    -87.7933519 -0.455086E-04  0.390E-03    0.04       3.8  T
   5    -87.7933541 -0.227073E-05  0.899E-04    0.04      16.4  T
   6    -87.7933542 -0.950157E-07  0.102E-04    0.04     144.9  T
   7    -87.7933542 -0.988990E-09  0.230E-05    0.04     641.1  T
     SCC iter.                  ...        0 min,  0.042 sec
     gradient                   ...        0 min,  0.064 sec
 * total energy  :   -87.0037099 Eh     change       -0.2018163E-04 Eh
   gradient norm :     0.0025500 Eh/α   predicted     0.0000000E+00 (-100.00%)
   displ. norm   :     0.0201596 α      lambda       -0.6272503E-05
   maximum displ.:     0.0097322 α      in ANC's #1, #3, #13, ...

........................................................................
.............................. CYCLE   22 ..............................
........................................................................
   1    -87.7935828 -0.877936E+02  0.133E-02    0.04       0.0  T
   2    -87.7857382  0.784459E-02  0.218E-01    0.07       1.0  T
   3    -87.7936110 -0.787281E-02  0.202E-03    0.04       7.3  T
   4    -87.7936110 -0.367107E-07  0.131E-03    0.04      11.2  T
   5    -87.7936112 -0.215859E-06  0.223E-04    0.04      66.0  T
   6    -87.7936112  0.870446E-08  0.257E-04    0.04      57.4  T
   7    -87.7936112 -0.107255E-07  0.163E-05    0.04     906.2  T
   8    -87.7936112  0.195826E-10  0.172E-05    0.04     855.8  T
     SCC iter.                  ...        0 min,  0.051 sec
     gradient                   ...        0 min,  0.065 sec
 * total energy  :   -87.0037195 Eh     change       -0.9558349E-05 Eh
   gradient norm :     0.0015340 Eh/α   predicted    -0.5533268E-05 ( -42.11%)
   displ. norm   :     0.1128405 α      lambda       -0.2751213E-04
   maximum displ.:     0.0573281 α      in ANC's #1, #3, #13, ...

........................................................................
.............................. CYCLE   23 ..............................
........................................................................
   1    -87.7932224 -0.877932E+02  0.680E-02    0.03       0.0  T
   2    -87.7465598  0.466626E-01  0.547E-01    0.22       1.0  T
   3    -87.7929196 -0.463597E-01  0.797E-02    0.05       1.0  T
   4    -87.7938760 -0.956415E-03  0.254E-02    0.04       1.0  T
   5    -87.7939748 -0.988553E-04  0.786E-03    0.04       1.9  T
   6    -87.7939634  0.114588E-04  0.114E-02    0.04       1.3  T
   7    -87.7939845 -0.211324E-04  0.175E-03    0.04       8.4  T
   8    -87.7939850 -0.467284E-06  0.491E-04    0.04      30.0  T
   9    -87.7939850 -0.394196E-07  0.782E-05    0.04     188.4  T
  10    -87.7939850 -0.956277E-09  0.150E-05    0.04     984.6  T
     SCC iter.                  ...        0 min,  0.058 sec
     gradient                   ...        0 min,  0.061 sec
 * total energy  :   -87.0037372 Eh     change       -0.1776024E-04 Eh
   gradient norm :     0.0026216 Eh/α   predicted    -0.1383408E-04 ( -22.11%)
   displ. norm   :     0.0158395 α      lambda       -0.5447454E-05
   maximum displ.:     0.0105842 α      in ANC's #1, #3, #15, ...

........................................................................
.............................. CYCLE   24 ..............................
........................................................................
   1    -87.7938572 -0.877939E+02  0.207E-03    0.04       0.0  T
   2    -87.7936788  0.178450E-03  0.327E-02    0.04       1.0  T
   3    -87.7938557 -0.176891E-03  0.356E-03    0.04       4.1  T
   4    -87.7938576 -0.190941E-05  0.993E-04    0.04      14.9  T
   5    -87.7938577 -0.150420E-06  0.148E-04    0.04      99.8  T
   6    -87.7938577 -0.928111E-10  0.709E-05    0.04     207.9  T
     SCC iter.                  ...        0 min,  0.035 sec
     gradient                   ...        0 min,  0.070 sec
 * total energy  :   -87.0037426 Eh     change       -0.5389763E-05 Eh
   gradient norm :     0.0019497 Eh/α   predicted    -0.2985736E-05 ( -44.60%)
   displ. norm   :     0.1058143 α      lambda       -0.1892202E-04
   maximum displ.:     0.0675422 α      in ANC's #1, #3, #15, ...

........................................................................
.............................. CYCLE   25 ..............................
........................................................................
   1    -87.7932124 -0.877932E+02  0.190E-02    0.04       0.0  T
   2    -87.7701839  0.230285E-01  0.371E-01    0.02       1.0  T
   3    -87.7932233 -0.230394E-01  0.161E-02    0.04       1.0  T
   4    -87.7932611 -0.378522E-04  0.527E-03    0.04       2.8  T
   5    -87.7932652 -0.409820E-05  0.914E-04    0.04      16.1  T
   6    -87.7932653 -0.378190E-07  0.483E-04    0.04      30.5  T
   7    -87.7932653 -0.218535E-07  0.172E-04    0.04      85.8  T
   8    -87.7932653 -0.466881E-08  0.248E-05    0.04     595.6  T
     SCC iter.                  ...        0 min,  0.048 sec
     gradient                   ...        0 min,  0.065 sec
 * total energy  :   -87.0037576 Eh     change       -0.1494148E-04 Eh
   gradient norm :     0.0017063 Eh/α   predicted    -0.9511278E-05 ( -36.34%)
   displ. norm   :     0.0605005 α      lambda       -0.5696545E-05
   maximum displ.:     0.0389087 α      in ANC's #1, #3, #15, ...

........................................................................
.............................. CYCLE   26 ..............................
........................................................................
   1    -87.7933242 -0.877933E+02  0.662E-04    0.04       0.0  T
   2    -87.7933241  0.108584E-07  0.584E-04    0.04      25.3  T
   3    -87.7933226  0.159199E-05  0.312E-03    0.04       4.7  T
   4    -87.7933240 -0.140508E-05  0.115E-03    0.04      12.8  T
   5    -87.7933242 -0.212603E-06  0.974E-05    0.04     151.4  T
   6    -87.7933242  0.577671E-10  0.890E-05    0.04     165.8  T
     SCC iter.                  ...        0 min,  0.036 sec
     gradient                   ...        0 min,  0.065 sec
 * total energy  :   -87.0037654 Eh     change       -0.7813519E-05 Eh
   gradient norm :     0.0014695 Eh/α   predicted    -0.2855327E-05 ( -63.46%)
   displ. norm   :     0.1201693 α      lambda       -0.1271084E-04
   maximum displ.:     0.0786009 α      in ANC's #1, #3, #15, ...

........................................................................
.............................. CYCLE   27 ..............................
........................................................................
   1    -87.7936539 -0.877937E+02  0.446E-03    0.04       0.0  T
   2    -87.7923809  0.127303E-02  0.875E-02    0.03       1.0  T
   3    -87.7936515 -0.127055E-02  0.598E-03    0.04       2.5  T
   4    -87.7936571 -0.565942E-05  0.119E-03    0.04      12.4  T
   5    -87.7936573 -0.160792E-06  0.476E-04    0.04      31.0  T
   6    -87.7936573 -0.266612E-07  0.135E-04    0.04     109.6  T
   7    -87.7936573  0.469711E-09  0.960E-05    0.04     153.6  T
     SCC iter.                  ...        0 min,  0.044 sec
     gradient                   ...        0 min,  0.065 sec
 * total energy  :   -87.0037806 Eh     change       -0.1521297E-04 Eh
   gradient norm :     0.0004694 Eh/α   predicted    -0.6399322E-05 ( -57.94%)
   displ. norm   :     0.1566399 α      lambda       -0.1103374E-04
   maximum displ.:     0.1048225 α      in ANC's #1, #3, #15, ...

........................................................................
.............................. CYCLE   28 ..............................
........................................................................
   1    -87.7935427 -0.877935E+02  0.964E-03    0.04       0.0  T
   2    -87.7867609  0.678182E-02  0.202E-01    0.02       1.0  T
   3    -87.7935559 -0.679500E-02  0.425E-03    0.04       3.5  T
   4    -87.7935588 -0.288342E-05  0.788E-04    0.04      18.7  T
   5    -87.7935587  0.226013E-07  0.715E-04    0.04      20.6  T
   6    -87.7935588 -0.491455E-07  0.376E-04    0.04      39.2  T
   7    -87.7935588 -0.205729E-07  0.726E-05    0.04     203.1  T
   8    -87.7935588 -0.660052E-09  0.254E-05    0.04     580.6  T
     SCC iter.                  ...        0 min,  0.048 sec
     gradient                   ...        0 min,  0.066 sec
 * total energy  :   -87.0037935 Eh     change       -0.1294299E-04 Eh
   gradient norm :     0.0007793 Eh/α   predicted    -0.5577647E-05 ( -56.91%)
   displ. norm   :     0.1110970 α      lambda       -0.6537473E-05
   maximum displ.:     0.0779486 α      in ANC's #1, #3, #2, ...

........................................................................
.............................. CYCLE   29 ..............................
........................................................................
   1    -87.7936792 -0.877937E+02  0.602E-03    0.04       0.0  T
   2    -87.7911970  0.248216E-02  0.122E-01    0.03       1.0  T
   3    -87.7936849 -0.248791E-02  0.158E-03    0.04       9.3  T
   4    -87.7936853 -0.353542E-06  0.468E-04    0.04      31.5  T
   5    -87.7936852  0.341092E-07  0.594E-04    0.04      24.8  T
   6    -87.7936853 -0.435657E-07  0.242E-04    0.04      60.9  T
   7    -87.7936853 -0.837682E-08  0.633E-05    0.04     233.1  T
   8    -87.7936853 -0.597936E-09  0.754E-06    0.04    1954.7  T
     SCC iter.                  ...        0 min,  0.048 sec
     gradient                   ...        0 min,  0.065 sec
 * total energy  :   -87.0038018 Eh     change       -0.8247987E-05 Eh
   gradient norm :     0.0007011 Eh/α   predicted    -0.3286899E-05 ( -60.15%)
   displ. norm   :     0.0821542 α      lambda       -0.5196270E-05
   maximum displ.:     0.0600494 α      in ANC's #1, #3, #2, ...

........................................................................
.............................. CYCLE   30 ..............................
........................................................................
   1    -87.7937737 -0.877938E+02  0.198E-03    0.04       0.0  T
   2    -87.7935798  0.193912E-03  0.342E-02    0.04       1.0  T
   3    -87.7937740 -0.194228E-03  0.122E-03    0.04      12.1  T
   4    -87.7937742 -0.199342E-06  0.467E-04    0.04      31.5  T
   5    -87.7937742 -0.158755E-07  0.258E-04    0.04      57.1  T
   6    -87.7937742 -0.522684E-08  0.134E-04    0.04     110.4  T
   7    -87.7937742 -0.258181E-08  0.247E-05    0.04     595.9  T
     SCC iter.                  ...        0 min,  0.033 sec
     gradient                   ...        0 min,  0.048 sec
 * total energy  :   -87.0038087 Eh     change       -0.6911903E-05 Eh
   gradient norm :     0.0004802 Eh/α   predicted    -0.2610534E-05 ( -62.23%)
   displ. norm   :     0.0835600 α      lambda       -0.5817391E-05
   maximum displ.:     0.0618464 α      in ANC's #1, #3, #2, ...

........................................................................
.............................. CYCLE   31 ..............................
........................................................................
   1    -87.7937113 -0.877937E+02  0.583E-03    0.04       0.0  T
   2    -87.7918155  0.189589E-02  0.107E-01    0.06       1.0  T
   3    -87.7937162 -0.190077E-02  0.243E-03    0.04       6.1  T
   4    -87.7937171 -0.898102E-06  0.521E-04    0.04      28.3  T
   5    -87.7937171 -0.178482E-07  0.176E-04    0.04      83.9  T
   6    -87.7937171  0.259718E-08  0.158E-04    0.04      93.5  T
     SCC iter.                  ...        0 min,  0.036 sec
     gradient                   ...        0 min,  0.064 sec
 * total energy  :   -87.0038167 Eh     change       -0.7974823E-05 Eh
   gradient norm :     0.0004166 Eh/α   predicted    -0.2920493E-05 ( -63.38%)
   displ. norm   :     0.1063752 α      lambda       -0.7736917E-05
   maximum displ.:     0.0780258 α      in ANC's #1, #3, #2, ...

........................................................................
.............................. CYCLE   32 ..............................
........................................................................
   1    -87.7936916 -0.877937E+02  0.252E-03    0.04       0.0  T
   2    -87.7933790  0.312586E-03  0.433E-02    0.05       1.0  T
   3    -87.7936923 -0.313328E-03  0.138E-03    0.04      10.7  T
   4    -87.7936925 -0.199946E-06  0.401E-04    0.04      36.8  T
   5    -87.7936925  0.168399E-09  0.245E-04    0.04      60.2  T
   6    -87.7936926 -0.636452E-08  0.397E-05    0.04     371.0  T
   7    -87.7936926 -0.376161E-10  0.125E-05    0.04    1176.2  T
     SCC iter.                  ...        0 min,  0.041 sec
     gradient                   ...        0 min,  0.064 sec
 * total energy  :   -87.0038274 Eh     change       -0.1075787E-04 Eh
   gradient norm :     0.0007025 Eh/α   predicted    -0.3891244E-05 ( -63.83%)
   displ. norm   :     0.1621908 α      lambda       -0.1179571E-04
   maximum displ.:     0.1175779 α      in ANC's #1, #2, #3, ...

........................................................................
.............................. CYCLE   33 ..............................
........................................................................
   1    -87.7934412 -0.877934E+02  0.844E-03    0.04       0.0  T
   2    -87.7897278  0.371344E-02  0.150E-01    0.06       1.0  T
   3    -87.7934516 -0.372379E-02  0.323E-03    0.04       4.6  T
   4    -87.7934532 -0.156868E-05  0.791E-04    0.04      18.6  T
   5    -87.7934532 -0.275948E-07  0.284E-04    0.04      51.9  T
   6    -87.7934532  0.675217E-08  0.253E-04    0.04      58.3  T
   7    -87.7934532 -0.101532E-07  0.311E-05    0.04     473.9  T
   8    -87.7934532 -0.587619E-10  0.143E-05    0.04    1030.8  T
     SCC iter.                  ...        0 min,  0.047 sec
     gradient                   ...        0 min,  0.064 sec
 * total energy  :   -87.0038434 Eh     change       -0.1592447E-04 Eh
   gradient norm :     0.0009803 Eh/α   predicted    -0.5968869E-05 ( -62.52%)
   displ. norm   :     0.2259118 α      lambda       -0.1517436E-04
   maximum displ.:     0.1632891 α      in ANC's #1, #2, #3, ...

........................................................................
.............................. CYCLE   34 ..............................
........................................................................
   1    -87.7930974 -0.877931E+02  0.369E-03    0.04       0.0  T
   2    -87.7925212  0.576246E-03  0.589E-02    0.05       1.0  T
   3    -87.7930991 -0.577910E-03  0.105E-03    0.04      14.0  T
   4    -87.7930990  0.975433E-07  0.106E-03    0.04      13.9  T
   5    -87.7930991 -0.114897E-06  0.200E-04    0.04      73.6  T
   6    -87.7930991 -0.857042E-09  0.638E-05    0.04     231.1  T
   7    -87.7930991 -0.118177E-09  0.380E-05    0.04     387.7  T
     SCC iter.                  ...        0 min,  0.042 sec
     gradient                   ...        0 min,  0.073 sec
 * total energy  :   -87.0038625 Eh     change       -0.1916792E-04 Eh
   gradient norm :     0.0012265 Eh/α   predicted    -0.7761395E-05 ( -59.51%)
   displ. norm   :     0.2477340 α      lambda       -0.1502985E-04
   maximum displ.:     0.1804483 α      in ANC's #1, #2, #3, ...

........................................................................
.............................. CYCLE   35 ..............................
........................................................................
   1    -87.7928269 -0.877928E+02  0.316E-03    0.04       0.0  T
   2    -87.7924694  0.357409E-03  0.464E-02    0.03       1.0  T
   3    -87.7928278 -0.358358E-03  0.102E-03    0.04      14.5  T
   4    -87.7928278  0.145613E-07  0.551E-04    0.04      26.8  T
   5    -87.7928278 -0.430353E-08  0.414E-04    0.04      35.6  T
   6    -87.7928278 -0.203372E-07  0.128E-04    0.04     115.0  T
   7    -87.7928278 -0.205395E-08  0.210E-05    0.04     700.6  T
     SCC iter.                  ...        0 min,  0.049 sec
     gradient                   ...        0 min,  0.073 sec
 * total energy  :   -87.0038823 Eh     change       -0.1974344E-04 Eh
   gradient norm :     0.0012908 Eh/α   predicted    -0.7720685E-05 ( -60.89%)
   displ. norm   :     0.3785653 α      lambda       -0.2292731E-04
   maximum displ.:     0.2756046 α      in ANC's #1, #2, #3, ...

........................................................................
.............................. CYCLE   36 ..............................
........................................................................
   1    -87.7919197 -0.877919E+02  0.867E-03    0.04       0.0  T
   2    -87.7872270  0.469264E-02  0.168E-01    0.02       1.0  T
   3    -87.7919297 -0.470268E-02  0.322E-03    0.04       4.6  T
   4    -87.7919309 -0.122064E-05  0.107E-03    0.04      13.8  T
   5    -87.7919309  0.587351E-07  0.931E-04    0.04      15.8  T
   6    -87.7919310 -0.945605E-07  0.331E-04    0.04      44.6  T
   7    -87.7919310 -0.151675E-07  0.651E-05    0.04     226.3  T
   8    -87.7919310 -0.365148E-09  0.140E-05    0.04    1050.9  T
     SCC iter.                  ...        0 min,  0.055 sec
     gradient                   ...        0 min,  0.072 sec
 * total energy  :   -87.0039083 Eh     change       -0.2602297E-04 Eh
   gradient norm :     0.0020664 Eh/α   predicted    -0.1219542E-04 ( -53.14%)
   displ. norm   :     0.2247081 α      lambda       -0.2383288E-04
   maximum displ.:     0.1671688 α      in ANC's #1, #2, #3, ...

........................................................................
.............................. CYCLE   37 ..............................
........................................................................
   1    -87.7923693 -0.877924E+02  0.824E-03    0.04       0.0  T
   2    -87.7877286  0.464075E-02  0.167E-01    0.02       1.0  T
   3    -87.7923794 -0.465079E-02  0.277E-03    0.04       5.3  T
   4    -87.7923803 -0.980717E-06  0.962E-04    0.04      15.3  T
   5    -87.7923802  0.107135E-06  0.113E-03    0.04      13.0  T
   6    -87.7923804 -0.175622E-06  0.334E-04    0.04      44.2  T
   7    -87.7923804 -0.162967E-07  0.708E-05    0.04     208.4  T
   8    -87.7923804 -0.619508E-09  0.139E-05    0.04    1061.1  T
     SCC iter.                  ...        0 min,  0.053 sec
     gradient                   ...        0 min,  0.074 sec
 * total energy  :   -87.0039271 Eh     change       -0.1881774E-04 Eh
   gradient norm :     0.0015672 Eh/α   predicted    -0.1252259E-04 ( -33.45%)
   displ. norm   :     0.4456862 α      lambda       -0.2740654E-04
   maximum displ.:     0.3297749 α      in ANC's #1, #2, #3, ...

........................................................................
.............................. CYCLE   38 ..............................
........................................................................
   1    -87.7921148 -0.877921E+02  0.156E-02    0.04       0.0  T
   2    -87.7741671  0.179477E-01  0.328E-01    0.02       1.0  T
   3    -87.7921505 -0.179834E-01  0.583E-03    0.04       2.5  T
   4    -87.7921545 -0.398212E-05  0.270E-03    0.04       5.5  T
   5    -87.7921550 -0.483808E-06  0.181E-03    0.04       8.2  T
   6    -87.7921555 -0.496546E-06  0.397E-04    0.04      37.1  T
   7    -87.7921555 -0.156117E-07  0.167E-04    0.04      88.1  T
   8    -87.7921555 -0.372033E-08  0.435E-05    0.04     339.3  T
     SCC iter.                  ...        0 min,  0.055 sec
     gradient                   ...        0 min,  0.074 sec
 * total energy  :   -87.0039491 Eh     change       -0.2197785E-04 Eh
   gradient norm :     0.0019921 Eh/α   predicted    -0.1491750E-04 ( -32.12%)
   displ. norm   :     0.0688429 α      lambda       -0.1817247E-04
   maximum displ.:     0.0360736 α      in ANC's #5, #1, #4, ...

........................................................................
.............................. CYCLE   39 ..............................
........................................................................
   1    -87.7960516 -0.877961E+02  0.110E-02    0.04       0.0  T
   2    -87.7890724  0.697916E-02  0.205E-01    0.02       1.0  T
   3    -87.7960673 -0.699490E-02  0.375E-03    0.04       3.9  T
   4    -87.7960649  0.243346E-05  0.493E-03    0.04       3.0  T
   5    -87.7960680 -0.314440E-05  0.121E-03    0.04      12.1  T
   6    -87.7960681 -0.578073E-07  0.760E-04    0.04      19.4  T
   7    -87.7960682 -0.937464E-07  0.351E-05    0.04     420.0  T
   8    -87.7960682 -0.540865E-10  0.728E-06    0.04    2025.6  T
     SCC iter.                  ...        0 min,  0.056 sec
     gradient                   ...        0 min,  0.074 sec
 * total energy  :   -87.0039467 Eh     change        0.2388397E-05 Eh
   gradient norm :     0.0031102 Eh/α   predicted    -0.9105822E-05 (-481.25%)
   displ. norm   :     0.0640642 α      lambda       -0.1675469E-04
   maximum displ.:     0.0444339 α      in ANC's #1, #3, #2, ...

........................................................................
.............................. CYCLE   40 ..............................
........................................................................
   1    -87.7945805 -0.877946E+02  0.316E-03    0.04       0.0  T
   2    -87.7942341  0.346327E-03  0.457E-02    0.05       1.0  T
   3    -87.7945814 -0.347287E-03  0.121E-03    0.04      12.1  T
   4    -87.7945813  0.167042E-06  0.123E-03    0.04      11.9  T
   5    -87.7945815 -0.191641E-06  0.224E-04    0.04      65.7  T
   6    -87.7945815 -0.688289E-09  0.106E-04    0.04     139.1  T
   7    -87.7945815 -0.148931E-08  0.257E-05    0.04     574.0  T
     SCC iter.                  ...        0 min,  0.049 sec
     gradient                   ...        0 min,  0.073 sec
 * total energy  :   -87.0039586 Eh     change       -0.1195337E-04 Eh
   gradient norm :     0.0012901 Eh/α   predicted    -0.8413321E-05 ( -29.62%)
   displ. norm   :     0.0897164 α      lambda       -0.7699911E-05
   maximum displ.:     0.0600995 α      in ANC's #1, #3, #2, ...

........................................................................
.............................. CYCLE   41 ..............................
........................................................................
   1    -87.7928925 -0.877929E+02  0.666E-03    0.04       0.0  T
   2    -87.7907196  0.217289E-02  0.114E-01    0.06       1.0  T
   3    -87.7928983 -0.217870E-02  0.277E-03    0.04       5.3  T
   4    -87.7928991 -0.794843E-06  0.127E-03    0.04      11.6  T
   5    -87.7928992 -0.806622E-07  0.396E-04    0.04      37.3  T
   6    -87.7928992  0.182165E-08  0.242E-04    0.04      60.8  T
   7    -87.7928992 -0.947057E-08  0.199E-05    0.04     740.4  T
   8    -87.7928992 -0.193268E-10  0.678E-06    0.04    2175.0  T
     SCC iter.                  ...        0 min,  0.055 sec
     gradient                   ...        0 min,  0.073 sec
 * total energy  :   -87.0039628 Eh     change       -0.4126424E-05 Eh
   gradient norm :     0.0012110 Eh/α   predicted    -0.3866704E-05 (  -6.29%)
   displ. norm   :     0.0239617 α      lambda       -0.2707088E-05
   maximum displ.:     0.0101784 α      in ANC's #1, #15, #4, ...

........................................................................
.............................. CYCLE   42 ..............................
........................................................................
   1    -87.7932957 -0.877933E+02  0.145E-03    0.04       0.0  T
   2    -87.7932215  0.742338E-04  0.211E-02    0.04       1.0  T
   3    -87.7932959 -0.743924E-04  0.822E-04    0.04      17.9  T
   4    -87.7932959 -0.104618E-07  0.649E-04    0.04      22.7  T
   5    -87.7932960 -0.463918E-07  0.942E-05    0.04     156.5  T
   6    -87.7932960  0.548383E-09  0.731E-05    0.04     201.8  T
     SCC iter.                  ...        0 min,  0.042 sec
     gradient                   ...        0 min,  0.073 sec
 * total energy  :   -87.0039658 Eh     change       -0.3060157E-05 Eh
   gradient norm :     0.0005535 Eh/α   predicted    -0.1355588E-05 ( -55.70%)
   displ. norm   :     0.0550771 α      lambda       -0.3637005E-05
   maximum displ.:     0.0272323 α      in ANC's #15, #4, #11, ...

   *** GEOMETRY OPTIMIZATION CONVERGED AFTER 42 ITERATIONS ***

------------------------------------------------------------------------
 total energy gain   :        -0.0224437 Eh      -14.0836 kcal/mol
 total RMSD          :         0.6032003 a0        0.3192 Å
 total power (kW/mol):        -1.4029980 (step)   -9.3773 (real)
------------------------------------------------------------------------

 ANCopt (total)                0 d,  0 h,  0 min,  6.284 sec
 optimizer setup                ...        0 min,  0.001 sec (  0.012%)
 model hessian                  ...        0 min,  0.049 sec (  0.774%)
 ANC generation                 ...        0 min,  0.005 sec (  0.085%)
 coordinate transformation      ...        0 min,  0.001 sec (  0.016%)
 single point calculation       ...        0 min,  6.212 sec ( 98.862%)
 optimization log               ...        0 min,  0.009 sec (  0.141%)
 hessian update                 ...        0 min,  0.001 sec (  0.015%)
 rational function              ...        0 min,  0.004 sec (  0.061%)

================
 final structure:
================
46
 xtb: 6.5.1 (579679a)
C           -6.36303035753088       -2.48468245433382       -0.02403224461498
O           -5.46151685556430       -1.53989876602594       -0.59058397964736
C           -4.34944583691506       -1.25786627844388        0.17826607589136
O           -4.19646608379241       -1.80738785386305        1.26866346192460
C           -3.44846969126920       -0.30137570995228       -0.41668936815171
N           -2.34927053128339       -0.01010604257883        0.36526219286293
C           -1.43453548089145        0.81456741732246       -0.01680238327787
C           -0.31126727610264        1.08946457261657        0.98686340069172
C           -0.46958511170443        0.12984790039656        2.18052087430547
C           -0.43619438187047        2.53912371596033        1.48643385321789
N            0.97420454916271        0.85666184249290        0.31732547457264
C            2.17907817636044        0.92389879265856        1.09545032907292
O            2.27197845064082        1.64117455452540        2.12479617112836
C            3.19968916878232        0.17048816446153        0.52225063533109
N            3.12798563078139       -0.63274943949334       -0.60189146644718
N            4.35605703198225       -1.14674705356991       -0.70342881215831
C            4.66303312660041       -2.04433621438876       -1.79213103064106
C            5.16880294487327       -0.73803833648984        0.24267498497550
C            6.59329692477447       -1.09515161795912        0.43744347267815
O            4.51937556156679        0.10179574183101        1.06765604459367
N           -1.49716767785513        1.45012467934715       -1.23789107311174
C           -0.50226361780557        2.39126884689797       -1.74478882336895
C           -2.60433777105192        1.27258397704580       -2.10552970289430
O           -2.63905349682013        1.91423757737539       -3.17040315688358
C           -3.58662482752024        0.34736430337405       -1.65530965395447
O           -4.64764270732914        0.16519110985018       -2.50304713953525
H           -7.20249720397331       -2.57812949661326       -0.71096330629625
H           -6.71951860948160       -2.14060585337711        0.95228007091088
H           -5.87497926993791       -3.45696629767295        0.09852537569554
H           -0.40964124921559       -0.90404086009324        1.84213407213176
H            0.31836700109156        0.31387553249332        2.90917351837079
H           -1.43647924288906        0.28496508232276        2.65785601073001
H            0.18806094758512        2.69175154396593        2.36516407631621
H           -1.47330616744932        2.73986750140866        1.75585286761053
H           -0.12852434549006        3.24904771143539        0.72167414011299
H            0.95168899185116       -0.00132512510896       -0.22514894471427
H            5.36927583975103       -1.56744170136816       -2.47107197593917
H            3.73699632943984       -2.26916651053364       -2.31611951026728
H            5.10334216815616       -2.95812951290927       -1.39697054738842
H            6.70888024603508       -2.17390593036563        0.55141617462168
H            7.18996337639427       -0.78412617061426       -0.42129237488018
H            6.96769535042292       -0.59858558811472        1.33036533599802
H            0.44519486212121        2.26674708393522       -1.22781240308633
H           -0.35392899378543        2.19938750790171       -2.80956324272885
H           -0.86228150621939        3.41617162970795       -1.62459844039754
H           -5.27494138462502       -0.47884297545400       -2.13690303335584
 
 Bond Distances (Angstroems)
 ---------------------------
C1-O2=1.4235         C1-H27=1.0887        C1-H28=1.0948        C1-H29=1.0948        O2-C1=1.4235         O2-C3=1.3811         
C3-O2=1.3811         C3-O4=1.2306         C3-C5=1.4424         O4-C3=1.2306         C5-C3=1.4424         C5-N6=1.3800         
C5-C25=1.4050        N6-C5=1.3800         N6-C7=1.2895         C7-N6=1.2895         C7-C8=1.5312         C7-N21=1.3780        
C8-C7=1.5312         C8-C9=1.5397         C8-C10=1.5384        C8-N11=1.4680        C9-C8=1.5397         C9-H30=1.0895        
C9-H31=1.0889        C9-H32=1.0894        C10-C8=1.5384        C10-H33=1.0886       C10-H34=1.0902       C10-H35=1.0879       
N11-C8=1.4680        N11-C12=1.4359       N11-H36=1.0153       C12-N11=1.4359       C12-O13=1.2580       C12-C14=1.3921       
O13-C12=1.2580       C14-C12=1.3921       C14-N15=1.3835       C14-O20=1.4296       N15-C14=1.3835       N15-N16=1.3352       
N16-N15=1.3352       N16-C17=1.4440       N16-C18=1.3125       C17-N16=1.4440       C17-H37=1.0896       C17-H38=1.0875       
C17-H39=1.0886       C18-N16=1.3125       C18-C19=1.4814       C18-O20=1.3445       C19-C18=1.4814       C19-H40=1.0909       
C19-H41=1.0910       C19-H42=1.0881       O20-C14=1.4296       O20-C18=1.3445       N21-C7=1.3780        N21-C22=1.4603       
N21-C23=1.4178       C22-N21=1.4603       C22-H43=1.0865       C22-H44=1.0920       C22-H45=1.0929       C23-N21=1.4178       
C23-O24=1.2437       C23-C25=1.4225       O24-C23=1.2437       C25-C5=1.4050        C25-C23=1.4225       C25-O26=1.3703       
O26-C25=1.3703       O26-H46=0.9707       H27-C1=1.0887        H28-C1=1.0948        H29-C1=1.0948        H30-C9=1.0895        
H31-C9=1.0889        H32-C9=1.0894        H33-C10=1.0886       H34-C10=1.0902       H35-C10=1.0879       H36-N11=1.0153       
H37-C17=1.0896       H38-C17=1.0875       H39-C17=1.0886       H40-C19=1.0909       H41-C19=1.0910       H42-C19=1.0881       
H43-C22=1.0865       H44-C22=1.0920       H45-C22=1.0929       H46-O26=0.9707       
 C  H  Rav=1.0900 sigma=0.0023  Rmin=1.0865  Rmax=1.0948    18
 C  C  Rav=1.4691 sigma=0.0578  Rmin=1.3921  Rmax=1.5397     8
 N  H  Rav=1.0153 sigma=0.0000  Rmin=1.0153  Rmax=1.0153     1
 N  C  Rav=1.3970 sigma=0.0572  Rmin=1.2895  Rmax=1.4680    10
 N  N  Rav=1.3352 sigma=0.0000  Rmin=1.3352  Rmax=1.3352     1
 O  H  Rav=0.9707 sigma=0.0000  Rmin=0.9707  Rmax=0.9707     1
 O  C  Rav=1.3352 sigma=0.0753  Rmin=1.2306  Rmax=1.4296     8
 
 selected bond angles (degree)
 --------------------
H27-C1-O2=107.11               H28-C1-O2=110.64               H28-C1-H27=109.79              H29-C1-O2=110.59               
H29-C1-H27=109.76              H29-C1-H28=108.93              C3-O2-C1=115.08                O4-C3-O2=120.15                
C5-C3-O2=114.13                C5-C3-O4=125.73                N6-C5-C3=113.81                C25-C5-C3=127.47               
C25-C5-N6=118.71               C7-N6-C5=122.15                C8-C7-N6=116.17                N21-C7-N6=121.69               
N21-C7-C8=122.10               C9-C8-C7=108.71                C10-C8-C7=108.81               C10-C8-C9=109.10               
N11-C8-C7=108.36               N11-C8-C9=110.17               N11-C8-C10=111.63              H30-C9-C8=110.18               
H31-C9-C8=109.82               H31-C9-H30=109.17              H32-C9-C8=110.01               H32-C9-H30=108.67              
H32-C9-H31=108.96              H33-C10-C8=110.34              H34-C10-C8=109.33              H34-C10-H33=108.68             
H35-C10-C8=111.33              H35-C10-H33=108.29             H35-C10-H34=108.82             
 
 selected dihedral angles (degree)
 ---------------------------------
C3-O2-C1-H27=177.74           C3-O2-C1-H28= 58.10           C3-O2-C1-H29=297.31           O4-C3-O2-C1=359.83            
C5-C3-O2-C1=179.84            N6-C5-C3-O2=179.13            N6-C5-C3-O4=359.14            C25-C5-C3-O2=  0.00           
C25-C5-C3-O4=180.03           C7-N6-C5-C3=179.31            C7-N6-C5-C25=358.51           C8-C7-N6-C5=177.09            
N21-C7-N6-C5=359.59           C9-C8-C7-N6=  7.55            C9-C8-C7-N21=185.04           C10-C8-C7-N6=248.84           
C10-C8-C7-N21= 66.33          N11-C8-C7-N6=127.28           N11-C8-C7-N21=304.77          H30-C9-C8-C7= 60.02           
H30-C9-C8-C10=178.54          H30-C9-C8-N11=301.42          H31-C9-C8-C7=180.31           H31-C9-C8-C10=298.83          
H31-C9-C8-N11= 61.71          H32-C9-C8-C7=300.23           H32-C9-C8-C10= 58.76          H32-C9-C8-N11=181.63          
H33-C10-C8-C7=166.44          H33-C10-C8-C9= 47.97          H33-C10-C8-N11=285.98         H34-C10-C8-C7= 46.97          
H34-C10-C8-C9=288.50          H34-C10-C8-N11=166.51         H35-C10-C8-C7=286.70          H35-C10-C8-C9=168.24          
H35-C10-C8-N11= 46.24         
           -------------------------------------------------
          |                Final Singlepoint                |
           -------------------------------------------------

          ...................................................
          :                      SETUP                      :
          :.................................................:
          :  # basis functions                 144          :
          :  # atomic orbitals                 144          :
          :  # shells                           92          :
          :  # electrons                       142          :
          :  # halogen bonds                     0          :
          :  max. iterations                   250          :
          :  Hamiltonian                  GFN1-xTB          :
          :  restarted?                      false          :
          :  GBSA solvation                   true          :
          :  PC potential                    false          :
          :  electronic temp.          300.0000000     K    :
          :  accuracy                    1.0000000          :
          :  -> integral cutoff          0.2500000E+02      :
          :  -> integral neglect         0.1000000E-07      :
          :  -> SCF convergence          0.1000000E-05 Eh   :
          :  -> wf. convergence          0.2000000E-04 e    :
          :  Broyden damping             0.4000000          :
          ...................................................

 iter      E             dE          RMSdq      gap      omega  full diag
   1    -87.7932960 -0.877933E+02  0.602E-06    0.04       0.0  T
   2    -87.7932960  0.142109E-13  0.337E-06    0.04    4371.5  T
   3    -87.7932960  0.177877E-09  0.329E-05    0.04     448.3  T

   *** convergence criteria satisfied after 3 iterations ***

         #    Occupation            Energy/Eh            Energy/eV
      -------------------------------------------------------------
         1        2.0000           -0.8396550             -22.8482
       ...           ...                  ...                  ...
        65        2.0000           -0.4198021             -11.4234
        66        2.0000           -0.4142592             -11.2726
        67        2.0000           -0.4040568             -10.9949
        68        2.0000           -0.4027449             -10.9592
        69        2.0000           -0.3875818             -10.5466
        70        2.0000           -0.3824106             -10.4059
        71        1.3593           -0.2904911              -7.9047 (HOMO)
        72        0.6407           -0.2890619              -7.8658 (LUMO)
        73                         -0.2613463              -7.1116
        74                         -0.2372275              -6.4553
        75                         -0.1957359              -5.3262
        76                         -0.1538530              -4.1866
       ...                                ...                  ...
       144                          0.6974855              18.9795
      -------------------------------------------------------------
                  HL-Gap            0.0014292 Eh            0.0389 eV
             Fermi-level           -0.2897765 Eh           -7.8852 eV

 SCC (total)                   0 d,  0 h,  0 min,  0.130 sec
 SCC setup                      ...        0 min,  0.002 sec (  1.527%)
 Dispersion                     ...        0 min,  0.000 sec (  0.257%)
 classical contributions        ...        0 min,  0.000 sec (  0.086%)
 integral evaluation            ...        0 min,  0.032 sec ( 24.311%)
 iterations                     ...        0 min,  0.022 sec ( 16.601%)
 molecular gradient             ...        0 min,  0.073 sec ( 55.985%)
 printout                       ...        0 min,  0.002 sec (  1.216%)

         :::::::::::::::::::::::::::::::::::::::::::::::::::::
         ::                     SUMMARY                     ::
         :::::::::::::::::::::::::::::::::::::::::::::::::::::
         :: total energy             -87.003965834894 Eh    ::
         :: total w/o Gsasa/hb       -86.980938457301 Eh    ::
         :: gradient norm              0.000554412350 Eh/a0 ::
         :: HOMO-LUMO gap              0.038889729541 eV    ::
         ::.................................................::
         :: SCC energy               -87.793295957717 Eh    ::
         :: -> electrostatic           0.482152590384 Eh    ::
         :: -> Gsolv                  -0.128455330952 Eh    ::
         ::    -> Gelec               -0.105427953359 Eh    ::
         ::    -> Gsasa               -0.025564544032 Eh    ::
         ::    -> Ghb                 -0.005087112566 Eh    ::
         ::    -> Gshift               0.007624279005 Eh    ::
         :: repulsion energy           0.817793576611 Eh    ::
         :: dispersion energy         -0.028463453788 Eh    ::
         :: halogen bond corr.         0.000000000000 Eh    ::
         :: add. restraining           0.000000000000 Eh    ::
         :: total charge              -1.000000000000 e     ::
         :::::::::::::::::::::::::::::::::::::::::::::::::::::

           -------------------------------------------------
          |                Property Printout                |
           -------------------------------------------------

    * Orbital Energies and Occupations

         #    Occupation            Energy/Eh            Energy/eV
      -------------------------------------------------------------
         1        2.0000           -0.8396550             -22.8482
       ...           ...                  ...                  ...
        59        2.0000           -0.4709462             -12.8151
        60        2.0000           -0.4653948             -12.6640
        61        2.0000           -0.4641913             -12.6313
        62        2.0000           -0.4465096             -12.1501
        63        2.0000           -0.4377131             -11.9108
        64        2.0000           -0.4276628             -11.6373
        65        2.0000           -0.4198021             -11.4234
        66        2.0000           -0.4142592             -11.2726
        67        2.0000           -0.4040568             -10.9949
        68        2.0000           -0.4027449             -10.9592
        69        2.0000           -0.3875818             -10.5466
        70        2.0000           -0.3824106             -10.4059
        71        1.3593           -0.2904911              -7.9047 (HOMO)
        72        0.6407           -0.2890619              -7.8658 (LUMO)
        73                         -0.2613463              -7.1116
        74                         -0.2372275              -6.4553
        75                         -0.1957359              -5.3262
        76                         -0.1538530              -4.1866
        77                         -0.1463525              -3.9825
        78                         -0.1392487              -3.7891
        79                         -0.1206412              -3.2828
        80                         -0.1176684              -3.2019
        81                         -0.1118785              -3.0444
        82                         -0.0996413              -2.7114
       ...                                ...                  ...
       144                          0.6974855              18.9795
      -------------------------------------------------------------
                  HL-Gap            0.0014292 Eh            0.0389 eV
             Fermi-level           -0.2897765 Eh           -7.8852 eV

  Mulliken/CM5 charges         n(s)   n(p)   n(d)
     1C     0.17431  0.05437   0.972  2.854  0.000
     2O    -0.46312 -0.56091   1.699  4.764  0.000
     3C     0.51758  0.57926   0.970  2.513  0.000
     4O    -0.62619 -0.66955   1.737  4.890  0.000
     5C     0.02094  0.09522   1.038  2.941  0.000
     6N    -0.39453 -0.58194   1.528  3.867  0.000
     7C     0.25206  0.40368   1.021  2.727  0.000
     8C     0.15923  0.19832   1.063  2.777  0.000
     9C    -0.09144 -0.22924   1.014  3.077  0.000
    10C    -0.09199 -0.23215   1.014  3.078  0.000
    11N    -0.41417 -0.75613   1.468  3.946  0.000
    12C     0.37193  0.46280   0.968  2.660  0.000
    13O    -0.68526 -0.72940   1.746  4.939  0.000
    14C     0.21532  0.32017   0.999  2.786  0.000
    15N    -0.37817 -0.48298   1.577  3.801  0.000
    16N     0.00976 -0.19184   1.419  3.572  0.000
    17C     0.02903 -0.05209   0.992  2.979  0.000
    18C     0.32651  0.42871   0.984  2.690  0.000
    19C    -0.11114 -0.24921   1.013  3.099  0.000
    20O    -0.40243 -0.45011   1.703  4.699  0.000
    21N    -0.24919 -0.49186   1.454  3.795  0.000
    22C     0.06023 -0.02607   0.984  2.956  0.000
    23C     0.40200  0.49901   0.984  2.614  0.000
    24O    -0.65172 -0.69313   1.740  4.912  0.000
    25C     0.16410  0.19639   1.020  2.816  0.000
    26O    -0.54767 -0.73913   1.698  4.850  0.000
    27H     0.03597  0.09622   0.964  0.000  0.000
    28H     0.03642  0.09835   0.964  0.000  0.000
    29H     0.03540  0.09682   0.965  0.000  0.000
    30H     0.02427  0.08352   0.976  0.000  0.000
    31H     0.03748  0.09742   0.963  0.000  0.000
    32H     0.02481  0.08340   0.975  0.000  0.000
    33H     0.04621  0.10656   0.954  0.000  0.000
    34H     0.01931  0.07447   0.981  0.000  0.000
    35H     0.02768  0.08611   0.972  0.000  0.000
    36H     0.20300  0.40831   0.797  0.000  0.000
    37H     0.06575  0.12872   0.934  0.000  0.000
    38H     0.07539  0.14272   0.925  0.000  0.000
    39H     0.06369  0.12690   0.936  0.000  0.000
    40H     0.06700  0.12132   0.933  0.000  0.000
    41H     0.06727  0.12154   0.933  0.000  0.000
    42H     0.07745  0.13318   0.923  0.000  0.000
    43H     0.03742  0.11229   0.963  0.000  0.000
    44H     0.04842  0.11649   0.952  0.000  0.000
    45H     0.03649  0.09974   0.964  0.000  0.000
    46H     0.37458  0.56373   0.625  0.000  0.000

Wiberg/Mayer (AO) data.
largest (>0.10) Wiberg bond orders for each atom

 ---------------------------------------------------------------------------
     #   Z sym  total        # sym  WBO       # sym  WBO       # sym  WBO
 ---------------------------------------------------------------------------
     1   6 C    3.892 --    27 H    0.987    29 H    0.981    28 H    0.981
                             2 O    0.918
     2   8 O    2.115 --     3 C    0.987     1 C    0.918
     3   6 C    3.733 --     4 O    1.542     5 C    1.137     2 O    0.987
     4   8 O    1.765 --     3 C    1.542
     5   6 C    3.817 --    25 C    1.308     6 N    1.148     3 C    1.137
     6   7 N    3.010 --     7 C    1.598     5 C    1.148
     7   6 C    3.903 --     6 N    1.598    21 N    1.143     8 C    0.971
     8   6 C    3.956 --     9 C    0.991    10 C    0.986     7 C    0.971
                            11 N    0.950
     9   6 C    3.993 --     8 C    0.991    30 H    0.986    32 H    0.985
                            31 H    0.983
    10   6 C    3.992 --    34 H    0.988     8 C    0.986    35 H    0.982
                            33 H    0.978
    11   7 N    3.100 --    12 C    0.994     8 C    0.950    36 H    0.930
    12   6 C    3.805 --    13 O    1.398    14 C    1.313    11 N    0.994
    13   8 O    1.655 --    12 C    1.398
    14   6 C    3.559 --    12 C    1.313    15 N    1.180    20 O    0.883
    15   7 N    2.678 --    14 C    1.180    16 N    1.158    18 C    0.198
    16   7 N    3.639 --    18 C    1.409    15 N    1.158    17 C    0.940
    17   6 C    3.936 --    38 H    0.983    39 H    0.980    37 H    0.977
                            16 N    0.940
    18   6 C    3.794 --    16 N    1.409    20 O    1.083    19 C    1.028
                            15 N    0.198
    19   6 C    3.987 --    18 C    1.028    42 H    0.981    40 H    0.966
                            41 H    0.966
    20   8 O    2.127 --    18 C    1.083    14 C    0.883
    21   7 N    3.359 --     7 C    1.143    23 C    1.033    22 C    0.946
                            24 O    0.103
    22   6 C    3.942 --    45 H    0.980    44 H    0.978    43 H    0.974
                            21 N    0.946
    23   6 C    3.838 --    24 O    1.477    25 C    1.205    21 N    1.033
    24   8 O    1.753 --    23 C    1.477    21 N    0.103
    25   6 C    3.727 --     5 C    1.308    23 C    1.205    26 O    1.032
    26   8 O    1.980 --    25 C    1.032    46 H    0.824
    27   1 H    1.014 --     1 C    0.987
    28   1 H    1.013 --     1 C    0.981
    29   1 H    1.012 --     1 C    0.981
    30   1 H    1.014 --     9 C    0.986
    31   1 H    1.015 --     9 C    0.983
    32   1 H    1.018 --     9 C    0.985
    33   1 H    1.025 --    10 C    0.978
    34   1 H    1.007 --    10 C    0.988
    35   1 H    1.008 --    10 C    0.982
    36   1 H    0.978 --    11 N    0.930
    37   1 H    0.999 --    17 C    0.977
    38   1 H    1.006 --    17 C    0.983
    39   1 H    0.999 --    17 C    0.980
    40   1 H    0.996 --    19 C    0.966
    41   1 H    0.996 --    19 C    0.966
    42   1 H    0.998 --    19 C    0.981
    43   1 H    1.027 --    22 C    0.974
    44   1 H    1.015 --    22 C    0.978
    45   1 H    1.006 --    22 C    0.980
    46   1 H    0.879 --    26 O    0.824
 ---------------------------------------------------------------------------

Topologies differ in total number of bonds
Writing topology from bond orders to xtbtopo.mol

 dipole moment from electron density (au)
     X       Y       Z   
   5.4200  -3.8572  -1.1827  total (Debye):   17.174

           -------------------------------------------------
          |                Geometry Summary                 |
           -------------------------------------------------

      molecular mass/u    :      366.3497991
   center of mass at/Å    :       -0.3029634       0.0905665      -0.1708076
  moments of inertia/u·Å² :        0.1406350E+04   0.5627230E+04   0.5714160E+04
rotational constants/cm⁻¹ :        0.1198680E-01   0.2995725E-02   0.2950150E-02

 * 41 selected distances

     #   Z          #   Z                                           value/Å
     1   6 C        2   8 O                                       1.4234901
     2   8 O        3   6 C                                       1.3810775
     3   6 C        4   8 O                                       1.2305867
     6   7 N        7   6 C                                       1.2894961
     8   6 C        9   6 C                                       1.5397231 (max)
     8   6 C       10   6 C                                       1.5384049
     8   6 C       11   7 N                                       1.4679633
    12   6 C       14   6 C                                       1.3920606
    14   6 C       15   7 N                                       1.3834840
    15   7 N       16   7 N                                       1.3351641
    16   7 N       17   6 C                                       1.4440130
    16   7 N       18   6 C                                       1.3125210
    18   6 C       19   6 C                                       1.4814345
    18   6 C       20   8 O                                       1.3444967
     7   6 C       21   7 N                                       1.3780108
    21   7 N       22   6 C                                       1.4603192
    21   7 N       23   6 C                                       1.4177953
    23   6 C       24   8 O                                       1.2437364
     5   6 C       25   6 C                                       1.4050377
    23   6 C       25   6 C                                       1.4225392
    25   6 C       26   8 O                                       1.3702574
     1   6 C       27   1 H                                       1.0887201
     1   6 C       28   1 H                                       1.0948327
     1   6 C       29   1 H                                       1.0947832
     9   6 C       30   1 H                                       1.0895068
     9   6 C       31   1 H                                       1.0888846
     9   6 C       32   1 H                                       1.0894011
    10   6 C       33   1 H                                       1.0886492
    10   6 C       34   1 H                                       1.0901769
    10   6 C       35   1 H                                       1.0878927
    11   7 N       36   1 H                                       1.0153459
    17   6 C       37   1 H                                       1.0895725
    17   6 C       38   1 H                                       1.0875003
    17   6 C       39   1 H                                       1.0885965
    19   6 C       40   1 H                                       1.0908989
    19   6 C       41   1 H                                       1.0909515
    19   6 C       42   1 H                                       1.0881460
    22   6 C       43   1 H                                       1.0864843
    22   6 C       44   1 H                                       1.0920469
    22   6 C       45   1 H                                       1.0929248
    26   8 O       46   1 H                                       0.9707447 (min)

 * 7 distinct bonds (by element types)

   Z      Z             #   av. dist./Å        max./Å        min./Å
   1 H    6 C          18     1.0899983     1.0948327     1.0864843
   6 C    6 C           6     1.4632000     1.5397231     1.3920606
   1 H    7 N           1     1.0153459     1.0153459     1.0153459
   6 C    7 N           8     1.3942003     1.4679633     1.2894961
   7 N    7 N           1     1.3351641     1.3351641     1.3351641
   1 H    8 O           1     0.9707447     0.9707447     0.9707447
   6 C    8 O           6     1.3322741     1.4234901     1.2305867


optimized geometry written to: xtbopt.xyz


           -------------------------------------------------
          | TOTAL ENERGY              -87.003965834894 Eh   |
          | GRADIENT NORM               0.000554412350 Eh/α |
          | HOMO-LUMO GAP               0.038889729541 eV   |
           -------------------------------------------------

------------------------------------------------------------------------
 * finished run on 2023/06/20 at 15:30:05.336     
------------------------------------------------------------------------
 total:
 * wall-time:     0 d,  0 h,  0 min,  6.753 sec
 *  cpu-time:     0 d,  0 h,  0 min,  6.684 sec
 * ratio c/w:     0.990 speedup
 SCF:
 * wall-time:     0 d,  0 h,  0 min,  0.229 sec
 *  cpu-time:     0 d,  0 h,  0 min,  0.228 sec
 * ratio c/w:     0.999 speedup
 ANC optimizer:
 * wall-time:     0 d,  0 h,  0 min,  6.421 sec
 *  cpu-time:     0 d,  0 h,  0 min,  6.409 sec
 * ratio c/w:     0.998 speedup

