      -----------------------------------------------------------      
     |                   =====================                   |     
     |                           x T B                           |     
     |                   =====================                   |     
     |                         S. Grimme                         |     
     |          Mulliken Center for Theoretical Chemistry        |     
     |                    University of Bonn                     |     
      -----------------------------------------------------------      

   * xtb version 6.5.1 (579679a) compiled by 'ehlert@majestix' on 2022-07-11

   xtb is free software: you can redistribute it and/or modify it under
   the terms of the GNU Lesser General Public License as published by
   the Free Software Foundation, either version 3 of the License, or
   (at your option) any later version.
   
   xtb is distributed in the hope that it will be useful,
   but WITHOUT ANY WARRANTY; without even the implied warranty of
   MERCHANTABILITY or FITNESS FOR A PARTICULAR PURPOSE.  See the
   GNU Lesser General Public License for more details.
   
   Cite this work as:
   * C. Bannwarth, E. Caldeweyher, S. Ehlert, A. Hansen, P. Pracht,
     J. Seibert, S. Spicher, S. Grimme, WIREs Comput. Mol. Sci., 2020, 11,
     e01493. DOI: 10.1002/wcms.1493
   
   for GFN2-xTB:
   * C. Bannwarth, S. Ehlert and S. Grimme., J. Chem. Theory Comput., 2019,
     15, 1652-1671. DOI: 10.1021/acs.jctc.8b01176
   for GFN1-xTB:
   * S. Grimme, C. Bannwarth, P. Shushkov, J. Chem. Theory Comput., 2017,
     13, 1989-2009. DOI: 10.1021/acs.jctc.7b00118
   for GFN0-xTB:
   * P. Pracht, E. Caldeweyher, S. Ehlert, S. Grimme, ChemRxiv, 2019, preprint.
     DOI: 10.26434/chemrxiv.8326202.v1
   for GFN-FF:
   * S. Spicher and S. Grimme, Angew. Chem. Int. Ed., 2020, 59, 15665-15673.
     DOI: 10.1002/anie.202004239
   
   for ALPB and GBSA implicit solvation:
   * S. Ehlert, M. Stahn, S. Spicher, S. Grimme, J. Chem. Theory Comput.,
     2021, 17, 4250-4261. DOI: 10.1021/acs.jctc.1c00471
   
   for DFT-D4:
   * E. Caldeweyher, C. Bannwarth and S. Grimme, J. Chem. Phys., 2017,
     147, 034112. DOI: 10.1063/1.4993215
   * E. Caldeweyher, S. Ehlert, A. Hansen, H. Neugebauer, S. Spicher,
     C. Bannwarth and S. Grimme, J. Chem. Phys., 2019, 150, 154122.
     DOI: 10.1063/1.5090222
   * E. Caldeweyher, J.-M. Mewes, S. Ehlert and S. Grimme, Phys. Chem. Chem. Phys.
     2020, 22, 8499-8512. DOI: 10.1039/D0CP00502A
   
   for sTDA-xTB:
   * S. Grimme and C. Bannwarth, J. Chem. Phys., 2016, 145, 054103.
     DOI: 10.1063/1.4959605
   
   in the mass-spec context:
   * V. Asgeirsson, C. Bauer and S. Grimme, Chem. Sci., 2017, 8, 4879.
     DOI: 10.1039/c7sc00601b
   * J. Koopman and S. Grimme, ACS Omega 2019, 4, 12, 15120-15133.
     DOI: 10.1021/acsomega.9b02011
   
   for metadynamics refer to:
   * S. Grimme, J. Chem. Theory Comput., 2019, 155, 2847-2862
     DOI: 10.1021/acs.jctc.9b00143
   
   for SPH calculations refer to:
   * S. Spicher and S. Grimme, J. Chem. Theory Comput., 2021, 17, 1701-1714
     DOI: 10.1021/acs.jctc.0c01306
   
   with help from (in alphabetical order)
   P. Atkinson, C. Bannwarth, F. Bohle, G. Brandenburg, E. Caldeweyher
   M. Checinski, S. Dohm, S. Ehlert, S. Ehrlich, I. Gerasimov, C. Hölzer
   A. Katbashev, J. Koopman, C. Lavigne, S. Lehtola, F. März, M. Müller,
   F. Musil, H. Neugebauer, J. Pisarek, C. Plett, P. Pracht, F. Pultar,
   J. Seibert, P. Shushkov, S. Spicher, M. Stahn, M. Steiner, T. Strunk,
   J. Stückrath, T. Rose, and J. Unsleber
   
 * started run on 2023/06/20 at 15:50:12.450     

           -------------------------------------------------
          |                Calculation Setup                |
           -------------------------------------------------

          program call               : /lustre/hpc/kemi/ree/PhD/git/ReactivityQM/dep/xtb-6.5.1/bin/xtb --gfn 1 /lustre/hpc/kemi/ree/PhD/git/ReactivityQM/calculations/R03/reac02prodN14/conf17/R03_reac02prodN14_conf17_gfn1.xyz --opt --vfukui --chrg 1 --uhf 0 --alpb DMSO
          hostname                   : node068
          coordinate file            : /lustre/hpc/kemi/ree/PhD/git/ReactivityQM/calculations/R03/reac02prodN14/conf17/R03_reac02prodN14_conf17_gfn1.xyz
          omp threads                :                     1

   ID    Z sym.   atoms
    1    6 C      1, 3, 5, 6, 8, 9, 12-16, 18, 20, 23, 24
    2    8 O      2, 4, 7, 10, 19, 25
    3    7 N      11, 17, 21, 22, 26
    4    1 H      27-46

           -------------------------------------------------
          |                 G F N 1 - x T B                 |
           -------------------------------------------------

        Reference                      10.1021/acs.jctc.7b00118
      * Hamiltonian:
        H0-scaling (s, p, d)           1.850000    2.250000    2.000000
        zeta-weighting                 0.000000
      * Dispersion:
        s8                             2.400000
        a1                             0.630000
        a2                             5.000000
        s9                             0.000000
      * Repulsion:
        kExp                           1.500000
        rExp                           1.000000
      * Coulomb:
        alpha                          2.000000
        third order                    atomic
        anisotropic                    false
      * Halogen bond correction:
        rad-scale                      1.300000
        damping                        0.440000

      * Solvation model:               ALPB
        Solvent                        DMSO
        Parameter file                 internal GFN1-xTB/ALPB
        Dielectric constant                4.6680E+01
        Reference state                gsolv [1 M gas/solution]
        Free energy shift                  7.6243E-03 Eh       4.7843E+00 kcal/mol
        Temperature                        2.9815E+02 K
        Density                            1.1000E+00 kg/L
        Solvent mass                       7.8130E+01 g/mol
        Interaction kernel             P16
        Born radius scaling (c1)           1.7672E+00
        Born radii integrator          GBOBC
        Born offset                        0.0000E+00 a0       0.0000E+00 AA
        H-bond correction              true
        Ion screening                  false
        Surface tension                    1.0000E-05 Eh       1.5569E+01 dyn/cm
        Grid points                               230 per atom

          ...................................................
          :                      SETUP                      :
          :.................................................:
          :  # basis functions                 144          :
          :  # atomic orbitals                 144          :
          :  # shells                           92          :
          :  # electrons                       140          :
          :  # halogen bonds                     0          :
          :  max. iterations                   250          :
          :  Hamiltonian                  GFN1-xTB          :
          :  restarted?                      false          :
          :  GBSA solvation                   true          :
          :  PC potential                    false          :
          :  electronic temp.          300.0000000     K    :
          :  accuracy                    1.0000000          :
          :  -> integral cutoff          0.2500000E+02      :
          :  -> integral neglect         0.1000000E-07      :
          :  -> SCF convergence          0.1000000E-05 Eh   :
          :  -> wf. convergence          0.2000000E-04 e    :
          :  Broyden damping             0.4000000          :
          ...................................................

 iter      E             dE          RMSdq      gap      omega  full diag
   1    -86.5201198 -0.865201E+02  0.830E+00    0.78       0.0  T
   2    -86.7417664 -0.221647E+00  0.522E+00    0.03       1.0  T
   3    -86.7123192  0.294471E-01  0.292E+00    1.08       1.0  T
   4    -86.8074691 -0.951498E-01  0.150E+00    0.11       1.0  T
   5    -86.9097361 -0.102267E+00  0.986E-01    0.66       1.0  T
   6    -86.9502523 -0.405162E-01  0.673E-01    0.23       1.0  T
   7    -86.9597383 -0.948592E-02  0.545E-01    0.07       1.0  T
   8    -86.9705493 -0.108111E-01  0.378E-01    0.12       1.0  T
   9    -86.9381566  0.323927E-01  0.598E-01    0.05       1.0  T
  10    -86.9783356 -0.401790E-01  0.180E-01    0.07       1.0  T
  11    -86.9692616  0.907401E-02  0.387E-01    0.12       1.0  T
  12    -86.9781967 -0.893511E-02  0.191E-01    0.06       1.0  T
  13    -86.9767325  0.146424E-02  0.249E-01    0.10       1.0  T
  14    -86.9811028 -0.437031E-02  0.105E-01    0.08       1.0  T
  15    -86.9822722 -0.116939E-02  0.469E-02    0.07       1.0  T
  16    -86.9823974 -0.125222E-03  0.394E-02    0.08       1.0  T
  17    -86.9824774 -0.800075E-04  0.229E-02    0.07       1.0  T
  18    -86.9825559 -0.785400E-04  0.533E-03    0.07       2.8  T
  19    -86.9825513  0.465487E-05  0.744E-03    0.07       2.0  T
  20    -86.9825580 -0.671879E-05  0.263E-03    0.07       5.6  T
  21    -86.9825581 -0.135312E-06  0.212E-03    0.07       7.0  T
  22    -86.9825586 -0.467975E-06  0.243E-04    0.07      60.8  T
  23    -86.9825586  0.158386E-07  0.474E-04    0.07      31.1  T
  24    -86.9825586 -0.207178E-07  0.723E-05    0.07     204.1  T
  25    -86.9825586 -0.444388E-09  0.243E-05    0.07     606.8  T

   *** convergence criteria satisfied after 25 iterations ***

         #    Occupation            Energy/Eh            Energy/eV
      -------------------------------------------------------------
         1        2.0000           -0.8857434             -24.1023
       ...           ...                  ...                  ...
        64        2.0000           -0.5076669             -13.8143
        65        2.0000           -0.4899098             -13.3311
        66        2.0000           -0.4865496             -13.2397
        67        2.0000           -0.4805597             -13.0767
        68        1.9896           -0.4700987             -12.7920
        69        1.9456           -0.4685097             -12.7488
        70        1.6345           -0.4665339             -12.6950 (HOMO)
        71        0.4304           -0.4638817             -12.6229 (LUMO)
        72                         -0.3668036              -9.9812
        73                         -0.3442008              -9.3662
        74                         -0.3256963              -8.8626
        75                         -0.2820974              -7.6763
       ...                                ...                  ...
       144                          0.6678945              18.1743
      -------------------------------------------------------------
                  HL-Gap            0.0026522 Eh            0.0722 eV
             Fermi-level           -0.4651110 Eh          -12.6563 eV

 SCC (total)                   0 d,  0 h,  0 min,  0.253 sec
 SCC setup                      ...        0 min,  0.002 sec (  0.845%)
 Dispersion                     ...        0 min,  0.000 sec (  0.132%)
 classical contributions        ...        0 min,  0.000 sec (  0.042%)
 integral evaluation            ...        0 min,  0.029 sec ( 11.632%)
 iterations                     ...        0 min,  0.155 sec ( 61.068%)
 molecular gradient             ...        0 min,  0.065 sec ( 25.717%)
 printout                       ...        0 min,  0.001 sec (  0.556%)

         :::::::::::::::::::::::::::::::::::::::::::::::::::::
         ::                     SUMMARY                     ::
         :::::::::::::::::::::::::::::::::::::::::::::::::::::
         :: total energy             -86.194774743826 Eh    ::
         :: total w/o Gsasa/hb       -86.170709159527 Eh    ::
         :: gradient norm              0.157952696272 Eh/a0 ::
         :: HOMO-LUMO gap              0.072169069658 eV    ::
         ::.................................................::
         :: SCC energy               -86.982558593952 Eh    ::
         :: -> electrostatic           0.415141206371 Eh    ::
         :: -> Gsolv                  -0.105468062556 Eh    ::
         ::    -> Gelec               -0.081402478257 Eh    ::
         ::    -> Gsasa               -0.024820823284 Eh    ::
         ::    -> Ghb                 -0.006869040019 Eh    ::
         ::    -> Gshift               0.007624279005 Eh    ::
         :: repulsion energy           0.817096437063 Eh    ::
         :: dispersion energy         -0.029312586937 Eh    ::
         :: halogen bond corr.         0.000000000000 Eh    ::
         :: add. restraining           0.000000000000 Eh    ::
         :: total charge               1.000000000001 e     ::
         :::::::::::::::::::::::::::::::::::::::::::::::::::::

      ----------------------------------------------------------- 
     |                   =====================                   |
     |                        A N C O P T                        |
     |                   =====================                   |
     |               Approximate Normal Coordinate               |
     |                Rational Function Optimizer                |
      ----------------------------------------------------------- 

          ...................................................
          :                      SETUP                      :
          :.................................................:
          :   optimization level            normal          :
          :   max. optcycles                   200          :
          :   ANC micro-cycles                  20          :
          :   degrees of freedom               132          :
          :.................................................:
          :   RF solver                   davidson          :
          :   write xtbopt.log                true          :
          :   linear?                        false          :
          :   energy convergence         0.5000000E-05 Eh   :
          :   grad. convergence          0.1000000E-02 Eh/α :
          :   maximium RF displ.         1.0000000          :
          :   Hlow (freq-cutoff)         0.1000000E-01      :
          :   Hmax (freq-cutoff)         5.0000000          :
          :   S6 in model hess.         20.0000000          :
          ...................................................

generating ANC from model Hessian ...
Using Lindh-Hessian (1995)
 Shifting diagonal of input Hessian by   9.831023864269657E-003
 Lowest  eigenvalues of input Hessian
    0.000000    0.000000    0.000000    0.000000    0.000000    0.000000
    0.010000    0.010181    0.010656    0.011577    0.011883    0.012254
    0.012719    0.013415    0.014674    0.014991    0.015918    0.016647
 Highest eigenvalues
    1.985897    2.049805    2.119106    2.145979    2.321247    2.364064
 

........................................................................
.............................. CYCLE    1 ..............................
........................................................................
   1    -86.9825586 -0.869826E+02  0.831E-06    0.07       0.0  T
   2    -86.9825586  0.120113E-08  0.110E-04    0.07     133.7  T
   3    -86.9825586 -0.117915E-08  0.156E-05    0.07     946.2  T
     SCC iter.                  ...        0 min,  0.017 sec
     gradient                   ...        0 min,  0.075 sec
 * total energy  :   -86.1947747 Eh     change       -0.5930190E-10 Eh
   gradient norm :     0.1579534 Eh/α   predicted     0.0000000E+00 (-100.00%)
   displ. norm   :     0.3548202 α      lambda       -0.2575101E-01
   maximum displ.:     0.1103224 α      in ANC's #33, #31, #21, ...

........................................................................
.............................. CYCLE    2 ..............................
........................................................................
   1    -87.0007290 -0.870007E+02  0.358E-01    0.22       0.0  T
   2    -86.7011409  0.299588E+00  0.193E+00    0.28       1.0  T
   3    -86.8394056 -0.138265E+00  0.107E+00    0.07       1.0  T
   4    -87.0096084 -0.170203E+00  0.164E-01    0.18       1.0  T
   5    -87.0110574 -0.144896E-02  0.994E-02    0.17       1.0  T
   6    -87.0117789 -0.721526E-03  0.535E-02    0.16       1.0  T
   7    -87.0093901  0.238881E-02  0.130E-01    0.13       1.0  T
   8    -87.0110593 -0.166917E-02  0.789E-02    0.14       1.0  T
   9    -87.0119285 -0.869188E-03  0.199E-02    0.14       1.0  T
  10    -87.0119658 -0.372785E-04  0.697E-03    0.15       2.1  T
  11    -87.0119704 -0.464024E-05  0.258E-03    0.15       5.7  T
  12    -87.0119699  0.546346E-06  0.286E-03    0.15       5.1  T
  13    -87.0119702 -0.346861E-06  0.251E-03    0.15       5.9  T
  14    -87.0119710 -0.767707E-06  0.557E-04    0.15      26.5  T
  15    -87.0119710 -0.416419E-07  0.167E-04    0.15      88.2  T
  16    -87.0119710 -0.287352E-08  0.965E-05    0.15     152.7  T
     SCC iter.                  ...        0 min,  0.096 sec
     gradient                   ...        0 min,  0.066 sec
 * total energy  :   -86.2157520 Eh     change       -0.2097730E-01 Eh
   gradient norm :     0.1033220 Eh/α   predicted    -0.1451806E-01 ( -30.79%)
   displ. norm   :     0.5270288 α      lambda       -0.2722403E-01
   maximum displ.:     0.1776457 α      in ANC's #21, #31, #36, ...

........................................................................
.............................. CYCLE    3 ..............................
........................................................................
   1    -87.0435708 -0.870436E+02  0.196E-01    0.47       0.0  T
   2    -87.0452617 -0.169099E-02  0.124E-01    0.37       1.0  T
   3    -87.0446895  0.572294E-03  0.143E-01    0.35       1.0  T
   4    -87.0463401 -0.165068E-02  0.358E-02    0.33       1.0  T
   5    -87.0463809 -0.408061E-04  0.202E-02    0.30       1.0  T
   6    -87.0463894 -0.843490E-05  0.713E-03    0.31       2.1  T
   7    -87.0463919 -0.251600E-05  0.185E-03    0.30       8.0  T
   8    -87.0463920 -0.107908E-06  0.660E-04    0.31      22.3  T
   9    -87.0463920 -0.827332E-08  0.281E-04    0.30      52.5  T
  10    -87.0463920 -0.919798E-09  0.176E-04    0.31      83.8  T
  11    -87.0463920 -0.213544E-08  0.371E-05    0.31     397.5  T
     SCC iter.                  ...        0 min,  0.066 sec
     gradient                   ...        0 min,  0.064 sec
 * total energy  :   -86.2313557 Eh     change       -0.1560367E-01 Eh
   gradient norm :     0.0483090 Eh/α   predicted    -0.1739288E-01 (  11.47%)
   displ. norm   :     0.3688691 α      lambda       -0.5536687E-02
   maximum displ.:     0.1913858 α      in ANC's #21, #15, #36, ...

........................................................................
.............................. CYCLE    4 ..............................
........................................................................
   1    -87.0480574 -0.870481E+02  0.505E-02    0.42       0.0  T
   2    -87.0476822  0.375212E-03  0.854E-02    0.37       1.0  T
   3    -87.0482403 -0.558097E-03  0.134E-02    0.37       1.1  T
   4    -87.0482352  0.511525E-05  0.165E-02    0.37       1.0  T
   5    -87.0482471 -0.118476E-04  0.320E-03    0.36       4.6  T
   6    -87.0482476 -0.533529E-06  0.646E-04    0.36      22.8  T
   7    -87.0482476 -0.523175E-08  0.322E-04    0.36      45.7  T
   8    -87.0482476 -0.575473E-08  0.857E-05    0.36     172.1  T
   9    -87.0482476 -0.256193E-09  0.205E-05    0.36     718.7  T
     SCC iter.                  ...        0 min,  0.056 sec
     gradient                   ...        0 min,  0.066 sec
 * total energy  :   -86.2357006 Eh     change       -0.4344868E-02 Eh
   gradient norm :     0.0331995 Eh/α   predicted    -0.3145019E-02 ( -27.62%)
   displ. norm   :     0.5117958 α      lambda       -0.5096383E-02
   maximum displ.:     0.2676871 α      in ANC's #21, #6, #8, ...

........................................................................
.............................. CYCLE    5 ..............................
........................................................................
   1    -87.0491801 -0.870492E+02  0.817E-02    0.47       0.0  T
   2    -87.0482717  0.908464E-03  0.137E-01    0.46       1.0  T
   3    -87.0497382 -0.146656E-02  0.161E-02    0.45       1.0  T
   4    -87.0497333  0.494600E-05  0.142E-02    0.44       1.0  T
   5    -87.0497415 -0.823778E-05  0.218E-03    0.44       6.8  T
   6    -87.0497416 -0.114858E-06  0.545E-04    0.44      27.0  T
   7    -87.0497416 -0.534874E-08  0.332E-04    0.44      44.4  T
   8    -87.0497416 -0.439914E-08  0.103E-04    0.44     142.8  T
   9    -87.0497416 -0.348820E-09  0.199E-05    0.44     742.3  T
     SCC iter.                  ...        0 min,  0.054 sec
     gradient                   ...        0 min,  0.068 sec
 * total energy  :   -86.2393190 Eh     change       -0.3618416E-02 Eh
   gradient norm :     0.0218901 Eh/α   predicted    -0.3215658E-02 ( -11.13%)
   displ. norm   :     0.4684024 α      lambda       -0.2590469E-02
   maximum displ.:     0.2242245 α      in ANC's #21, #8, #4, ...

........................................................................
.............................. CYCLE    6 ..............................
........................................................................
   1    -87.0534455 -0.870534E+02  0.714E-02    0.52       0.0  T
   2    -87.0529853  0.460220E-03  0.103E-01    0.52       1.0  T
   3    -87.0538513 -0.866008E-03  0.794E-03    0.51       1.9  T
   4    -87.0538512  0.107562E-06  0.579E-03    0.51       2.5  T
   5    -87.0538521 -0.844775E-06  0.131E-03    0.51      11.3  T
   6    -87.0538521 -0.487221E-07  0.352E-04    0.51      41.9  T
   7    -87.0538521 -0.285554E-08  0.160E-04    0.51      92.0  T
   8    -87.0538521 -0.243119E-09  0.598E-05    0.51     246.5  T
     SCC iter.                  ...        0 min,  0.048 sec
     gradient                   ...        0 min,  0.065 sec
 * total energy  :   -86.2413377 Eh     change       -0.2018669E-02 Eh
   gradient norm :     0.0218695 Eh/α   predicted    -0.1579419E-02 ( -21.76%)
   displ. norm   :     0.5405573 α      lambda       -0.2476656E-02
   maximum displ.:     0.2231737 α      in ANC's #4, #21, #8, ...

........................................................................
.............................. CYCLE    7 ..............................
........................................................................
   1    -87.0596032 -0.870596E+02  0.840E-02    0.57       0.0  T
   2    -87.0592417  0.361511E-03  0.107E-01    0.58       1.0  T
   3    -87.0601834 -0.941681E-03  0.929E-03    0.57       1.6  T
   4    -87.0601838 -0.442166E-06  0.529E-03    0.57       2.8  T
   5    -87.0601840 -0.224236E-06  0.139E-03    0.57      10.6  T
   6    -87.0601841 -0.129985E-06  0.391E-04    0.57      37.7  T
   7    -87.0601842 -0.241910E-08  0.156E-04    0.57      94.7  T
   8    -87.0601842 -0.937774E-10  0.583E-05    0.57     252.8  T
     SCC iter.                  ...        0 min,  0.046 sec
     gradient                   ...        0 min,  0.064 sec
 * total energy  :   -86.2433613 Eh     change       -0.2023641E-02 Eh
   gradient norm :     0.0199872 Eh/α   predicted    -0.1600176E-02 ( -20.93%)
   displ. norm   :     0.6127769 α      lambda       -0.2509287E-02
   maximum displ.:     0.2803124 α      in ANC's #4, #8, #21, ...

........................................................................
.............................. CYCLE    8 ..............................
........................................................................
   1    -87.0655086 -0.870655E+02  0.841E-02    0.62       0.0  T
   2    -87.0653766  0.131929E-03  0.913E-02    0.62       1.0  T
   3    -87.0660656 -0.689013E-03  0.963E-03    0.62       1.5  T
   4    -87.0660660 -0.313630E-06  0.496E-03    0.62       3.0  T
   5    -87.0660660 -0.727146E-07  0.138E-03    0.62      10.7  T
   6    -87.0660661 -0.115555E-06  0.454E-04    0.62      32.5  T
   7    -87.0660662 -0.391387E-08  0.166E-04    0.62      88.9  T
   8    -87.0660662 -0.191790E-09  0.442E-05    0.62     333.6  T
     SCC iter.                  ...        0 min,  0.047 sec
     gradient                   ...        0 min,  0.066 sec
 * total energy  :   -86.2454045 Eh     change       -0.2043244E-02 Eh
   gradient norm :     0.0189771 Eh/α   predicted    -0.1725759E-02 ( -15.54%)
   displ. norm   :     0.6187124 α      lambda       -0.2174093E-02
   maximum displ.:     0.2957916 α      in ANC's #4, #8, #6, ...

........................................................................
.............................. CYCLE    9 ..............................
........................................................................
   1    -87.0692254 -0.870692E+02  0.700E-02    0.67       0.0  T
   2    -87.0692503 -0.249322E-04  0.692E-02    0.67       1.0  T
   3    -87.0696344 -0.384088E-03  0.837E-03    0.67       1.8  T
   4    -87.0696346 -0.170561E-06  0.425E-03    0.67       3.5  T
   5    -87.0696347 -0.112784E-06  0.923E-04    0.67      16.0  T
   6    -87.0696347 -0.387074E-07  0.371E-04    0.67      39.8  T
   7    -87.0696347 -0.270465E-08  0.130E-04    0.67     113.0  T
   8    -87.0696347 -0.100712E-09  0.248E-05    0.67     595.7  T
     SCC iter.                  ...        0 min,  0.047 sec
     gradient                   ...        0 min,  0.064 sec
 * total energy  :   -86.2471606 Eh     change       -0.1756019E-02 Eh
   gradient norm :     0.0183051 Eh/α   predicted    -0.1503174E-02 ( -14.40%)
   displ. norm   :     0.6327665 α      lambda       -0.1902138E-02
   maximum displ.:     0.3197041 α      in ANC's #4, #8, #12, ...

........................................................................
.............................. CYCLE   10 ..............................
........................................................................
   1    -87.0716412 -0.870716E+02  0.475E-02    0.72       0.0  T
   2    -87.0716934 -0.521665E-04  0.340E-02    0.71       1.0  T
   3    -87.0717820 -0.886575E-04  0.919E-03    0.71       1.6  T
   4    -87.0717837 -0.169287E-05  0.383E-03    0.72       3.8  T
   5    -87.0717838 -0.131818E-06  0.100E-03    0.71      14.7  T
   6    -87.0717839 -0.148061E-07  0.397E-04    0.71      37.1  T
   7    -87.0717839 -0.368487E-08  0.142E-04    0.71     103.5  T
   8    -87.0717839 -0.362760E-09  0.246E-05    0.71     600.4  T
     SCC iter.                  ...        0 min,  0.047 sec
     gradient                   ...        0 min,  0.064 sec
 * total energy  :   -86.2486510 Eh     change       -0.1490450E-02 Eh
   gradient norm :     0.0217106 Eh/α   predicted    -0.1331873E-02 ( -10.64%)
   displ. norm   :     0.6121262 α      lambda       -0.1797845E-02
   maximum displ.:     0.3022948 α      in ANC's #4, #8, #12, ...

........................................................................
.............................. CYCLE   11 ..............................
........................................................................
   1    -87.0704133 -0.870704E+02  0.427E-02    0.79       0.0  T
   2    -87.0704880 -0.747153E-04  0.320E-02    0.78       1.0  T
   3    -87.0705530 -0.650387E-04  0.814E-03    0.78       1.8  T
   4    -87.0705530  0.489801E-07  0.512E-03    0.78       2.9  T
   5    -87.0705534 -0.413686E-06  0.685E-04    0.78      21.5  T
   6    -87.0705534 -0.638218E-08  0.266E-04    0.78      55.4  T
   7    -87.0705534 -0.141827E-08  0.881E-05    0.78     167.4  T
   8    -87.0705534 -0.745359E-10  0.176E-05    0.78     838.0  T
     SCC iter.                  ...        0 min,  0.047 sec
     gradient                   ...        0 min,  0.067 sec
 * total energy  :   -86.2496639 Eh     change       -0.1012900E-02 Eh
   gradient norm :     0.0158175 Eh/α   predicted    -0.1235748E-02 (  22.00%)
   displ. norm   :     0.4336637 α      lambda       -0.1186864E-02
   maximum displ.:     0.2416648 α      in ANC's #4, #8, #6, ...

........................................................................
.............................. CYCLE   12 ..............................
........................................................................
   1    -87.0744578 -0.870745E+02  0.320E-02    0.82       0.0  T
   2    -87.0744852 -0.274015E-04  0.159E-02    0.82       1.0  T
   3    -87.0744932 -0.801772E-05  0.840E-03    0.82       1.8  T
   4    -87.0744946 -0.139121E-05  0.351E-03    0.82       4.2  T
   5    -87.0744949 -0.310197E-06  0.627E-04    0.82      23.5  T
   6    -87.0744949 -0.403200E-08  0.229E-04    0.82      64.5  T
   7    -87.0744949 -0.925084E-09  0.740E-05    0.82     199.2  T
   8    -87.0744949 -0.887468E-10  0.121E-05    0.82    1223.2  T
     SCC iter.                  ...        0 min,  0.047 sec
     gradient                   ...        0 min,  0.065 sec
 * total energy  :   -86.2504509 Eh     change       -0.7869885E-03 Eh
   gradient norm :     0.0134000 Eh/α   predicted    -0.7050488E-03 ( -10.41%)
   displ. norm   :     0.4906365 α      lambda       -0.8620857E-03
   maximum displ.:     0.2854080 α      in ANC's #4, #8, #6, ...

........................................................................
.............................. CYCLE   13 ..............................
........................................................................
   1    -87.0689553 -0.870690E+02  0.313E-02    0.86       0.0  T
   2    -87.0689989 -0.435524E-04  0.175E-02    0.85       1.0  T
   3    -87.0690056 -0.669968E-05  0.766E-03    0.86       1.9  T
   4    -87.0690057 -0.190047E-06  0.557E-03    0.86       2.6  T
   5    -87.0690064 -0.683788E-06  0.696E-04    0.86      21.2  T
   6    -87.0690064 -0.831452E-08  0.328E-04    0.86      45.0  T
   7    -87.0690064 -0.264738E-08  0.112E-04    0.86     131.3  T
   8    -87.0690064 -0.243389E-09  0.201E-05    0.86     735.4  T
     SCC iter.                  ...        0 min,  0.048 sec
     gradient                   ...        0 min,  0.067 sec
 * total energy  :   -86.2506730 Eh     change       -0.2221222E-03 Eh
   gradient norm :     0.0315583 Eh/α   predicted    -0.5348113E-03 ( 140.77%)
   displ. norm   :     0.2618769 α      lambda       -0.1383304E-02
   maximum displ.:     0.1202171 α      in ANC's #4, #5, #11, ...

........................................................................
.............................. CYCLE   14 ..............................
........................................................................
   1    -87.0800598 -0.870801E+02  0.433E-02    0.92       0.0  T
   2    -87.0801496 -0.897394E-04  0.264E-02    0.92       1.0  T
   3    -87.0801792 -0.296147E-04  0.902E-03    0.91       1.6  T
   4    -87.0801791  0.582478E-07  0.570E-03    0.91       2.6  T
   5    -87.0801797 -0.532795E-06  0.642E-04    0.91      23.0  T
   6    -87.0801797 -0.100919E-07  0.137E-04    0.91     107.9  T
   7    -87.0801797 -0.261039E-09  0.589E-05    0.91     250.2  T
     SCC iter.                  ...        0 min,  0.042 sec
     gradient                   ...        0 min,  0.067 sec
 * total energy  :   -86.2514398 Eh     change       -0.7667906E-03 Eh
   gradient norm :     0.0174770 Eh/α   predicted    -0.7390866E-03 (  -3.61%)
   displ. norm   :     0.3198446 α      lambda       -0.8180363E-03
   maximum displ.:     0.1866677 α      in ANC's #4, #5, #8, ...

........................................................................
.............................. CYCLE   15 ..............................
........................................................................
   1    -87.0791395 -0.870791E+02  0.587E-02    0.98       0.0  T
   2    -87.0793398 -0.200315E-03  0.310E-02    0.98       1.0  T
   3    -87.0793997 -0.599013E-04  0.730E-03    0.98       2.0  T
   4    -87.0794001 -0.380408E-06  0.478E-03    0.98       3.1  T
   5    -87.0794002 -0.104323E-06  0.121E-03    0.98      12.2  T
   6    -87.0794002 -0.269602E-07  0.183E-04    0.98      80.6  T
   7    -87.0794002 -0.556327E-09  0.804E-05    0.98     183.5  T
     SCC iter.                  ...        0 min,  0.042 sec
     gradient                   ...        0 min,  0.066 sec
 * total energy  :   -86.2519579 Eh     change       -0.5181057E-03 Eh
   gradient norm :     0.0193068 Eh/α   predicted    -0.4508729E-03 ( -12.98%)
   displ. norm   :     0.5241167 α      lambda       -0.1547419E-02
   maximum displ.:     0.2971445 α      in ANC's #4, #5, #14, ...

........................................................................
.............................. CYCLE   16 ..............................
........................................................................
   1    -87.0800073 -0.870800E+02  0.878E-02    1.10       0.0  T
   2    -87.0803860 -0.378711E-03  0.301E-02    1.10       1.0  T
   3    -87.0804311 -0.450754E-04  0.114E-02    1.09       1.3  T
   4    -87.0804331 -0.196232E-05  0.618E-03    1.09       2.4  T
   5    -87.0804331 -0.337801E-07  0.188E-03    1.09       7.9  T
   6    -87.0804332 -0.972364E-07  0.300E-04    1.09      49.1  T
   7    -87.0804332 -0.782578E-09  0.136E-04    1.09     108.6  T
   8    -87.0804332 -0.158963E-09  0.216E-05    1.09     683.8  T
     SCC iter.                  ...        0 min,  0.047 sec
     gradient                   ...        0 min,  0.066 sec
 * total energy  :   -86.2537337 Eh     change       -0.1775755E-02 Eh
   gradient norm :     0.0244141 Eh/α   predicted    -0.9862493E-03 ( -44.46%)
   displ. norm   :     0.6024033 α      lambda       -0.2815881E-02
   maximum displ.:     0.3107056 α      in ANC's #4, #5, #14, ...

........................................................................
.............................. CYCLE   17 ..............................
........................................................................
   1    -87.0835540 -0.870836E+02  0.123E-01    1.19       0.0  T
   2    -87.0842966 -0.742578E-03  0.315E-02    1.19       1.0  T
   3    -87.0843363 -0.396950E-04  0.152E-02    1.19       1.0  T
   4    -87.0843386 -0.234150E-05  0.794E-03    1.19       1.9  T
   5    -87.0843386  0.291510E-07  0.199E-03    1.19       7.4  T
   6    -87.0843388 -0.149416E-06  0.390E-04    1.19      37.8  T
   7    -87.0843388 -0.148408E-08  0.167E-04    1.19      88.3  T
   8    -87.0843388 -0.179938E-09  0.406E-05    1.19     363.2  T
     SCC iter.                  ...        0 min,  0.048 sec
     gradient                   ...        0 min,  0.068 sec
 * total energy  :   -86.2575774 Eh     change       -0.3843740E-02 Eh
   gradient norm :     0.0367881 Eh/α   predicted    -0.1918875E-02 ( -50.08%)
   displ. norm   :     0.5878772 α      lambda       -0.6586230E-02
   maximum displ.:     0.2433739 α      in ANC's #4, #5, #14, ...

........................................................................
.............................. CYCLE   18 ..............................
........................................................................
   1    -87.0924508 -0.870925E+02  0.179E-01    1.23       0.0  T
   2    -87.0940365 -0.158571E-02  0.418E-02    1.24       1.0  T
   3    -87.0940869 -0.504406E-04  0.215E-02    1.23       1.0  T
   4    -87.0940902 -0.328828E-05  0.106E-02    1.23       1.4  T
   5    -87.0940902 -0.196762E-07  0.236E-03    1.23       6.3  T
   6    -87.0940904 -0.213143E-06  0.674E-04    1.23      21.9  T
   7    -87.0940904 -0.533903E-08  0.228E-04    1.23      64.7  T
   8    -87.0940904 -0.301114E-09  0.535E-05    1.23     275.4  T
   9    -87.0940904 -0.321734E-10  0.143E-05    1.23    1027.7  T
     SCC iter.                  ...        0 min,  0.053 sec
     gradient                   ...        0 min,  0.066 sec
 * total energy  :   -86.2658909 Eh     change       -0.8313485E-02 Eh
   gradient norm :     0.0541254 Eh/α   predicted    -0.4431218E-02 ( -46.70%)
   displ. norm   :     0.5933463 α      lambda       -0.1175070E-01
   maximum displ.:     0.2071952 α      in ANC's #4, #14, #42, ...

........................................................................
.............................. CYCLE   19 ..............................
........................................................................
   1    -87.1056392 -0.871056E+02  0.196E-01    1.19       0.0  T
   2    -87.1074547 -0.181547E-02  0.535E-02    1.18       1.0  T
   3    -87.1075091 -0.544041E-04  0.262E-02    1.17       1.0  T
   4    -87.1075134 -0.427455E-05  0.123E-02    1.18       1.2  T
   5    -87.1075141 -0.745176E-06  0.285E-03    1.18       5.2  T
   6    -87.1075144 -0.242369E-06  0.926E-04    1.18      15.9  T
   7    -87.1075144 -0.848080E-08  0.285E-04    1.18      51.7  T
   8    -87.1075144 -0.416392E-09  0.786E-05    1.18     187.7  T
   9    -87.1075144 -0.636220E-10  0.192E-05    1.18     766.9  T
     SCC iter.                  ...        0 min,  0.053 sec
     gradient                   ...        0 min,  0.067 sec
 * total energy  :   -86.2779057 Eh     change       -0.1201484E-01 Eh
   gradient norm :     0.0590704 Eh/α   predicted    -0.7943838E-02 ( -33.88%)
   displ. norm   :     0.8256397 α      lambda       -0.2618414E-01
   maximum displ.:     0.3125336 α      in ANC's #42, #14, #44, ...

........................................................................
.............................. CYCLE   20 ..............................
........................................................................
   1    -87.1207555 -0.871208E+02  0.268E-01    1.02       0.0  T
   2    -87.1235325 -0.277706E-02  0.115E-01    1.00       1.0  T
   3    -87.1236901 -0.157535E-03  0.536E-02    0.97       1.0  T
   4    -87.1237074 -0.173211E-04  0.245E-02    0.98       1.0  T
   5    -87.1237127 -0.530976E-05  0.475E-03    0.99       3.1  T
   6    -87.1237130 -0.322011E-06  0.148E-03    0.99      10.0  T
   7    -87.1237130 -0.284100E-07  0.641E-04    0.99      23.0  T
   8    -87.1237130 -0.677379E-08  0.144E-04    0.99     102.2  T
   9    -87.1237130 -0.184116E-09  0.372E-05    0.99     396.5  T
     SCC iter.                  ...        0 min,  0.054 sec
     gradient                   ...        0 min,  0.067 sec
 * total energy  :   -86.2772582 Eh     change        0.6475180E-03 Eh
   gradient norm :     0.1325478 Eh/α   predicted    -0.2201673E-01 (*******%)
   displ. norm   :     0.3298973 α      lambda       -0.3236023E-01
   maximum displ.:     0.1212692 α      in ANC's #4, #42, #8, ...
 * RMSD in coord.:     1.1425076 α      energy gain  -0.8248348E-01 Eh

generating ANC from model Hessian ...
Using Lindh-Hessian (1995)
 Shifting diagonal of input Hessian by   9.836621344065939E-003
 Lowest  eigenvalues of input Hessian
    0.000000    0.000000    0.000000    0.000000    0.000000    0.000000
    0.010000    0.010196    0.010623    0.011355    0.011624    0.012170
    0.012425    0.013505    0.013864    0.015166    0.015459    0.016220
 Highest eigenvalues
    2.064496    2.121059    2.152419    2.366656    2.440832    2.449537
 

........................................................................
.............................. CYCLE   21 ..............................
........................................................................
   1    -87.1206380 -0.871206E+02  0.137E-01    1.05       0.0  T
   2    -87.1212719 -0.633915E-03  0.566E-02    1.05       1.0  T
   3    -87.1212946 -0.227333E-04  0.274E-02    1.06       1.0  T
   4    -87.1212981 -0.349712E-05  0.119E-02    1.05       1.2  T
   5    -87.1212994 -0.127564E-05  0.165E-03    1.05       8.9  T
   6    -87.1212995 -0.978559E-07  0.557E-04    1.05      26.5  T
   7    -87.1212995 -0.450514E-08  0.212E-04    1.05      69.4  T
   8    -87.1212995 -0.530520E-09  0.675E-05    1.05     218.5  T
   9    -87.1212995 -0.573976E-10  0.103E-05    1.05    1426.9  T
     SCC iter.                  ...        0 min,  0.053 sec
     gradient                   ...        0 min,  0.066 sec
 * total energy  :   -86.2899034 Eh     change       -0.1264515E-01 Eh
   gradient norm :     0.0339816 Eh/α   predicted     0.0000000E+00 (-100.00%)
   displ. norm   :     0.3219298 α      lambda       -0.5116783E-02
   maximum displ.:     0.1515613 α      in ANC's #27, #8, #24, ...

........................................................................
.............................. CYCLE   22 ..............................
........................................................................
   1    -87.1220252 -0.871220E+02  0.286E-02    1.00       0.0  T
   2    -87.1220537 -0.284588E-04  0.115E-02    0.99       1.3  T
   3    -87.1220550 -0.128455E-05  0.612E-03    1.00       2.4  T
   4    -87.1220551 -0.147974E-06  0.226E-03    1.00       6.5  T
   5    -87.1220552 -0.646823E-07  0.411E-04    1.00      35.8  T
   6    -87.1220552 -0.250459E-08  0.144E-04    1.00     102.1  T
   7    -87.1220552 -0.176442E-09  0.598E-05    1.00     246.6  T
     SCC iter.                  ...        0 min,  0.042 sec
     gradient                   ...        0 min,  0.067 sec
 * total energy  :   -86.2937146 Eh     change       -0.3811176E-02 Eh
   gradient norm :     0.0199431 Eh/α   predicted    -0.2823625E-02 ( -25.91%)
   displ. norm   :     0.4123993 α      lambda       -0.3476249E-02
   maximum displ.:     0.1569353 α      in ANC's #8, #27, #24, ...

........................................................................
.............................. CYCLE   23 ..............................
........................................................................
   1    -87.1208108 -0.871208E+02  0.362E-02    0.93       0.0  T
   2    -87.1208655 -0.547794E-04  0.147E-02    0.92       1.0  T
   3    -87.1208684 -0.289147E-05  0.750E-03    0.92       2.0  T
   4    -87.1208687 -0.249443E-06  0.325E-03    0.92       4.5  T
   5    -87.1208688 -0.108788E-06  0.580E-04    0.93      25.4  T
   6    -87.1208688 -0.438557E-08  0.204E-04    0.93      72.3  T
   7    -87.1208688 -0.414815E-09  0.900E-05    0.93     163.9  T
   8    -87.1208688 -0.123777E-09  0.203E-05    0.93     724.8  T
     SCC iter.                  ...        0 min,  0.048 sec
     gradient                   ...        0 min,  0.067 sec
 * total energy  :   -86.2960371 Eh     change       -0.2322499E-02 Eh
   gradient norm :     0.0192603 Eh/α   predicted    -0.2034480E-02 ( -12.40%)
   displ. norm   :     0.3043452 α      lambda       -0.1245526E-02
   maximum displ.:     0.1317102 α      in ANC's #8, #24, #20, ...

........................................................................
.............................. CYCLE   24 ..............................
........................................................................
   1    -87.1218667 -0.871219E+02  0.233E-02    0.90       0.0  T
   2    -87.1219001 -0.334453E-04  0.924E-03    0.89       1.6  T
   3    -87.1219017 -0.158865E-05  0.409E-03    0.89       3.6  T
   4    -87.1219018 -0.956089E-07  0.235E-03    0.89       6.3  T
   5    -87.1219018 -0.454562E-07  0.489E-04    0.89      30.2  T
   6    -87.1219018 -0.192450E-08  0.147E-04    0.89     100.5  T
   7    -87.1219019 -0.194362E-09  0.594E-05    0.89     248.0  T
     SCC iter.                  ...        0 min,  0.042 sec
     gradient                   ...        0 min,  0.067 sec
 * total energy  :   -86.2969131 Eh     change       -0.8760813E-03 Eh
   gradient norm :     0.0122585 Eh/α   predicted    -0.6804592E-03 ( -22.33%)
   displ. norm   :     0.2866058 α      lambda       -0.6991247E-03
   maximum displ.:     0.1239119 α      in ANC's #8, #2, #24, ...

........................................................................
.............................. CYCLE   25 ..............................
........................................................................
   1    -87.1226944 -0.871227E+02  0.166E-02    0.88       0.0  T
   2    -87.1227130 -0.186725E-04  0.658E-03    0.88       2.2  T
   3    -87.1227139 -0.901180E-06  0.278E-03    0.88       5.3  T
   4    -87.1227140 -0.469523E-07  0.172E-03    0.88       8.6  T
   5    -87.1227140 -0.245086E-07  0.362E-04    0.88      40.8  T
   6    -87.1227140 -0.951317E-09  0.982E-05    0.88     150.1  T
   7    -87.1227140 -0.823235E-10  0.404E-05    0.88     365.3  T
     SCC iter.                  ...        0 min,  0.042 sec
     gradient                   ...        0 min,  0.067 sec
 * total energy  :   -86.2974017 Eh     change       -0.4885302E-03 Eh
   gradient norm :     0.0084152 Eh/α   predicted    -0.3782886E-03 ( -22.57%)
   displ. norm   :     0.2500021 α      lambda       -0.3922196E-03
   maximum displ.:     0.1006687 α      in ANC's #2, #8, #5, ...

........................................................................
.............................. CYCLE   26 ..............................
........................................................................
   1    -87.1243095 -0.871243E+02  0.115E-02    0.89       0.0  T
   2    -87.1243190 -0.956592E-05  0.435E-03    0.88       3.4  T
   3    -87.1243195 -0.416212E-06  0.186E-03    0.88       7.9  T
   4    -87.1243195 -0.221337E-07  0.116E-03    0.88      12.7  T
   5    -87.1243195 -0.868096E-08  0.249E-04    0.88      59.2  T
   6    -87.1243195 -0.656811E-09  0.715E-05    0.88     206.1  T
   7    -87.1243195 -0.475637E-10  0.219E-05    0.88     673.6  T
     SCC iter.                  ...        0 min,  0.042 sec
     gradient                   ...        0 min,  0.076 sec
 * total energy  :   -86.2976791 Eh     change       -0.2774529E-03 Eh
   gradient norm :     0.0073069 Eh/α   predicted    -0.2083680E-03 ( -24.90%)
   displ. norm   :     0.2494066 α      lambda       -0.2776142E-03
   maximum displ.:     0.1157419 α      in ANC's #2, #5, #11, ...

........................................................................
.............................. CYCLE   27 ..............................
........................................................................
   1    -87.1243607 -0.871244E+02  0.748E-03    0.90       0.0  T
   2    -87.1243635 -0.273238E-05  0.258E-03    0.89       5.7  T
   3    -87.1243636 -0.969994E-07  0.132E-03    0.89      11.2  T
   4    -87.1243636 -0.925253E-08  0.624E-04    0.89      23.6  T
   5    -87.1243636 -0.279908E-08  0.136E-04    0.89     108.2  T
   6    -87.1243636 -0.252356E-09  0.410E-05    0.89     360.0  T
     SCC iter.                  ...        0 min,  0.042 sec
     gradient                   ...        0 min,  0.076 sec
 * total energy  :   -86.2978887 Eh     change       -0.2095518E-03 Eh
   gradient norm :     0.0079459 Eh/α   predicted    -0.1474422E-03 ( -29.64%)
   displ. norm   :     0.3138613 α      lambda       -0.3265267E-03
   maximum displ.:     0.1614282 α      in ANC's #2, #5, #3, ...

........................................................................
.............................. CYCLE   28 ..............................
........................................................................
   1    -87.1252186 -0.871252E+02  0.753E-03    0.92       0.0  T
   2    -87.1252213 -0.266622E-05  0.279E-03    0.91       5.3  T
   3    -87.1252214 -0.123048E-06  0.160E-03    0.91       9.2  T
   4    -87.1252214 -0.161300E-07  0.668E-04    0.91      22.1  T
   5    -87.1252214 -0.166906E-08  0.158E-04    0.91      93.0  T
   6    -87.1252214 -0.290115E-09  0.439E-05    0.91     336.2  T
     SCC iter.                  ...        0 min,  0.043 sec
     gradient                   ...        0 min,  0.075 sec
 * total energy  :   -86.2981417 Eh     change       -0.2530041E-03 Eh
   gradient norm :     0.0102225 Eh/α   predicted    -0.1793535E-03 ( -29.11%)
   displ. norm   :     0.3962734 α      lambda       -0.4130661E-03
   maximum displ.:     0.2089617 α      in ANC's #2, #3, #5, ...

........................................................................
.............................. CYCLE   29 ..............................
........................................................................
   1    -87.1242364 -0.871242E+02  0.738E-03    0.94       0.0  T
   2    -87.1242380 -0.159387E-05  0.408E-03    0.93       3.6  T
   3    -87.1242382 -0.151834E-06  0.216E-03    0.93       6.8  T
   4    -87.1242382 -0.159979E-07  0.614E-04    0.93      24.0  T
   5    -87.1242382 -0.477118E-08  0.161E-04    0.93      91.3  T
   6    -87.1242382 -0.379032E-09  0.521E-05    0.93     282.8  T
     SCC iter.                  ...        0 min,  0.042 sec
     gradient                   ...        0 min,  0.075 sec
 * total energy  :   -86.2984659 Eh     change       -0.3241924E-03 Eh
   gradient norm :     0.0100601 Eh/α   predicted    -0.2389972E-03 ( -26.28%)
   displ. norm   :     0.4500501 α      lambda       -0.5242482E-03
   maximum displ.:     0.2378635 α      in ANC's #2, #3, #5, ...

........................................................................
.............................. CYCLE   30 ..............................
........................................................................
   1    -87.1256239 -0.871256E+02  0.104E-02    0.96       0.0  T
   2    -87.1256296 -0.577125E-05  0.561E-03    0.96       2.6  T
   3    -87.1256301 -0.470711E-06  0.296E-03    0.96       5.0  T
   4    -87.1256301 -0.182110E-07  0.125E-03    0.96      11.8  T
   5    -87.1256301 -0.161025E-07  0.200E-04    0.96      73.6  T
   6    -87.1256301 -0.638281E-09  0.718E-05    0.96     205.3  T
   7    -87.1256301 -0.555787E-10  0.314E-05    0.96     469.4  T
     SCC iter.                  ...        0 min,  0.048 sec
     gradient                   ...        0 min,  0.077 sec
 * total energy  :   -86.2988470 Eh     change       -0.3810982E-03 Eh
   gradient norm :     0.0116311 Eh/α   predicted    -0.3152183E-03 ( -17.29%)
   displ. norm   :     0.4210965 α      lambda       -0.4437017E-03
   maximum displ.:     0.2174702 α      in ANC's #2, #3, #15, ...

........................................................................
.............................. CYCLE   31 ..............................
........................................................................
   1    -87.1227316 -0.871227E+02  0.106E-02    0.96       0.0  T
   2    -87.1227377 -0.609348E-05  0.513E-03    0.96       2.9  T
   3    -87.1227383 -0.522371E-06  0.237E-03    0.96       6.2  T
   4    -87.1227383 -0.183159E-07  0.106E-03    0.96      13.9  T
   5    -87.1227383 -0.728008E-08  0.225E-04    0.96      65.6  T
   6    -87.1227383 -0.583896E-09  0.707E-05    0.96     208.6  T
   7    -87.1227383 -0.575113E-10  0.240E-05    0.96     613.3  T
     SCC iter.                  ...        0 min,  0.048 sec
     gradient                   ...        0 min,  0.077 sec
 * total energy  :   -86.2991780 Eh     change       -0.3310435E-03 Eh
   gradient norm :     0.0129004 Eh/α   predicted    -0.2611940E-03 ( -21.10%)
   displ. norm   :     0.3870425 α      lambda       -0.6762990E-03
   maximum displ.:     0.1975738 α      in ANC's #3, #2, #15, ...

........................................................................
.............................. CYCLE   32 ..............................
........................................................................
   1    -87.1281327 -0.871281E+02  0.224E-02    0.95       0.0  T
   2    -87.1281576 -0.248563E-04  0.978E-03    0.94       1.5  T
   3    -87.1281595 -0.189755E-05  0.545E-03    0.95       2.7  T
   4    -87.1281596 -0.847484E-07  0.210E-03    0.95       7.0  T
   5    -87.1281596 -0.242297E-07  0.384E-04    0.95      38.4  T
   6    -87.1281596 -0.430093E-08  0.116E-04    0.95     126.6  T
   7    -87.1281596 -0.227672E-09  0.370E-05    0.95     399.0  T
     SCC iter.                  ...        0 min,  0.049 sec
     gradient                   ...        0 min,  0.078 sec
 * total energy  :   -86.2994521 Eh     change       -0.2740448E-03 Eh
   gradient norm :     0.0168919 Eh/α   predicted    -0.3888070E-03 (  41.88%)
   displ. norm   :     0.4272102 α      lambda       -0.6629278E-03
   maximum displ.:     0.2162910 α      in ANC's #2, #3, #15, ...

........................................................................
.............................. CYCLE   33 ..............................
........................................................................
   1    -87.1213625 -0.871214E+02  0.201E-02    0.93       0.0  T
   2    -87.1213736 -0.111402E-04  0.101E-02    0.92       1.5  T
   3    -87.1213748 -0.122062E-05  0.575E-03    0.92       2.6  T
   4    -87.1213749 -0.674443E-07  0.899E-04    0.92      16.4  T
   5    -87.1213749 -0.840980E-08  0.253E-04    0.92      58.3  T
   6    -87.1213749 -0.131331E-08  0.774E-05    0.92     190.5  T
   7    -87.1213749 -0.110575E-09  0.246E-05    0.92     599.7  T
     SCC iter.                  ...        0 min,  0.049 sec
     gradient                   ...        0 min,  0.077 sec
 * total energy  :   -86.2998178 Eh     change       -0.3657725E-03 Eh
   gradient norm :     0.0143133 Eh/α   predicted    -0.3919609E-03 (   7.16%)
   displ. norm   :     0.1108185 α      lambda       -0.4024702E-03
   maximum displ.:     0.0538257 α      in ANC's #8, #3, #9, ...

........................................................................
.............................. CYCLE   34 ..............................
........................................................................
   1    -87.1254942 -0.871255E+02  0.142E-02    0.91       0.0  T
   2    -87.1255005 -0.627477E-05  0.735E-03    0.91       2.0  T
   3    -87.1255010 -0.488497E-06  0.384E-03    0.91       3.8  T
   4    -87.1255010 -0.472462E-07  0.118E-03    0.91      12.5  T
   5    -87.1255010 -0.184339E-07  0.163E-04    0.91      90.2  T
   6    -87.1255010 -0.642601E-09  0.460E-05    0.91     320.5  T
     SCC iter.                  ...        0 min,  0.043 sec
     gradient                   ...        0 min,  0.077 sec
 * total energy  :   -86.3000464 Eh     change       -0.2285933E-03 Eh
   gradient norm :     0.0119583 Eh/α   predicted    -0.2037072E-03 ( -10.89%)
   displ. norm   :     0.3661918 α      lambda       -0.5424023E-03
   maximum displ.:     0.1871957 α      in ANC's #3, #2, #15, ...

........................................................................
.............................. CYCLE   35 ..............................
........................................................................
   1    -87.1265686 -0.871266E+02  0.166E-02    0.90       0.0  T
   2    -87.1265802 -0.115989E-04  0.808E-03    0.90       1.8  T
   3    -87.1265808 -0.597613E-06  0.451E-03    0.90       3.3  T
   4    -87.1265809 -0.473350E-07  0.141E-03    0.90      10.4  T
   5    -87.1265809 -0.233251E-07  0.276E-04    0.90      53.4  T
   6    -87.1265809 -0.209550E-08  0.981E-05    0.90     150.3  T
   7    -87.1265809 -0.185679E-09  0.335E-05    0.90     439.7  T
     SCC iter.                  ...        0 min,  0.049 sec
     gradient                   ...        0 min,  0.077 sec
 * total energy  :   -86.3002975 Eh     change       -0.2510797E-03 Eh
   gradient norm :     0.0147128 Eh/α   predicted    -0.3075731E-03 (  22.50%)
   displ. norm   :     0.3328005 α      lambda       -0.4434224E-03
   maximum displ.:     0.1723467 α      in ANC's #2, #3, #15, ...

........................................................................
.............................. CYCLE   36 ..............................
........................................................................
   1    -87.1249483 -0.871249E+02  0.134E-02    0.90       0.0  T
   2    -87.1249610 -0.127089E-04  0.552E-03    0.90       2.7  T
   3    -87.1249616 -0.513021E-06  0.287E-03    0.90       5.1  T
   4    -87.1249616 -0.183610E-07  0.140E-03    0.90      10.6  T
   5    -87.1249616 -0.121846E-07  0.262E-04    0.90      56.3  T
   6    -87.1249616 -0.105716E-08  0.911E-05    0.90     161.8  T
   7    -87.1249616 -0.137049E-09  0.253E-05    0.90     583.9  T
     SCC iter.                  ...        0 min,  0.048 sec
     gradient                   ...        0 min,  0.076 sec
 * total energy  :   -86.3005831 Eh     change       -0.2855696E-03 Eh
   gradient norm :     0.0140239 Eh/α   predicted    -0.2462717E-03 ( -13.76%)
   displ. norm   :     0.2805949 α      lambda       -0.5979488E-03
   maximum displ.:     0.1392888 α      in ANC's #2, #3, #1, ...

........................................................................
.............................. CYCLE   37 ..............................
........................................................................
   1    -87.1277945 -0.871278E+02  0.166E-02    0.92       0.0  T
   2    -87.1278038 -0.929754E-05  0.838E-03    0.92       1.8  T
   3    -87.1278045 -0.711582E-06  0.442E-03    0.92       3.3  T
   4    -87.1278046 -0.350637E-07  0.111E-03    0.92      13.3  T
   5    -87.1278046 -0.175447E-07  0.255E-04    0.92      57.8  T
   6    -87.1278046 -0.123839E-08  0.842E-05    0.92     175.2  T
   7    -87.1278046 -0.119584E-09  0.258E-05    0.92     571.8  T
     SCC iter.                  ...        0 min,  0.050 sec
     gradient                   ...        0 min,  0.077 sec
 * total energy  :   -86.3009231 Eh     change       -0.3400338E-03 Eh
   gradient norm :     0.0124335 Eh/α   predicted    -0.3225150E-03 (  -5.15%)
   displ. norm   :     0.5314273 α      lambda       -0.6061465E-03
   maximum displ.:     0.2646752 α      in ANC's #2, #3, #15, ...

........................................................................
.............................. CYCLE   38 ..............................
........................................................................
   1    -87.1238172 -0.871238E+02  0.139E-02    0.94       0.0  T
   2    -87.1238250 -0.786203E-05  0.611E-03    0.93       2.4  T
   3    -87.1238255 -0.455384E-06  0.328E-03    0.93       4.5  T
   4    -87.1238255 -0.317451E-07  0.104E-03    0.93      14.2  T
   5    -87.1238255 -0.156400E-07  0.264E-04    0.93      55.8  T
   6    -87.1238255 -0.554166E-09  0.922E-05    0.93     159.9  T
   7    -87.1238255 -0.162927E-09  0.249E-05    0.93     592.4  T
     SCC iter.                  ...        0 min,  0.049 sec
     gradient                   ...        0 min,  0.077 sec
 * total energy  :   -86.3013291 Eh     change       -0.4059530E-03 Eh
   gradient norm :     0.0160493 Eh/α   predicted    -0.3886677E-03 (  -4.26%)
   displ. norm   :     0.3496302 α      lambda       -0.6974494E-03
   maximum displ.:     0.2208838 α      in ANC's #8, #15, #20, ...

........................................................................
.............................. CYCLE   39 ..............................
........................................................................
   1    -87.1346715 -0.871347E+02  0.224E-02    0.95       0.0  T
   2    -87.1346905 -0.189624E-04  0.107E-02    0.96       1.4  T
   3    -87.1346919 -0.135534E-05  0.567E-03    0.95       2.6  T
   4    -87.1346920 -0.137199E-06  0.188E-03    0.95       7.8  T
   5    -87.1346920 -0.109630E-07  0.382E-04    0.95      38.6  T
   6    -87.1346920 -0.262739E-08  0.105E-04    0.95     140.0  T
   7    -87.1346920 -0.278831E-09  0.340E-05    0.95     434.0  T
     SCC iter.                  ...        0 min,  0.048 sec
     gradient                   ...        0 min,  0.077 sec
 * total energy  :   -86.3014518 Eh     change       -0.1227043E-03 Eh
   gradient norm :     0.0250438 Eh/α   predicted    -0.3913554E-03 ( 218.94%)
   displ. norm   :     0.2951707 α      lambda       -0.7238414E-03
   maximum displ.:     0.1341778 α      in ANC's #2, #15, #3, ...

........................................................................
.............................. CYCLE   40 ..............................
........................................................................
   1    -87.1280618 -0.871281E+02  0.145E-02    0.96       0.0  T
   2    -87.1280633 -0.146820E-05  0.771E-03    0.96       1.9  T
   3    -87.1280633 -0.613825E-07  0.352E-03    0.96       4.2  T
   4    -87.1280634 -0.825297E-07  0.543E-04    0.96      27.1  T
   5    -87.1280634 -0.413840E-08  0.141E-04    0.96     104.2  T
   6    -87.1280634 -0.387288E-09  0.403E-05    0.96     365.8  T
     SCC iter.                  ...        0 min,  0.041 sec
     gradient                   ...        0 min,  0.074 sec
 * total energy  :   -86.3018501 Eh     change       -0.3983194E-03 Eh
   gradient norm :     0.0141427 Eh/α   predicted    -0.3934558E-03 (  -1.22%)
   displ. norm   :     0.1063593 α      lambda       -0.4654102E-03
   maximum displ.:     0.0530809 α      in ANC's #3, #5, #9, ...

........................................................................
.............................. CYCLE   41 ..............................
........................................................................
   1    -87.1297932 -0.871298E+02  0.134E-02    0.94       0.0  T
   2    -87.1297961 -0.287446E-05  0.747E-03    0.94       2.0  T
   3    -87.1297963 -0.287658E-06  0.409E-03    0.94       3.6  T
   4    -87.1297964 -0.568124E-07  0.495E-04    0.95      29.8  T
   5    -87.1297964 -0.409382E-08  0.137E-04    0.95     107.5  T
   6    -87.1297964 -0.587477E-09  0.478E-05    0.95     308.3  T
     SCC iter.                  ...        0 min,  0.041 sec
     gradient                   ...        0 min,  0.074 sec
 * total energy  :   -86.3019795 Eh     change       -0.1294359E-03 Eh
   gradient norm :     0.0103593 Eh/α   predicted    -0.2353414E-03 (  81.82%)
   displ. norm   :     0.3284225 α      lambda       -0.3823088E-03
   maximum displ.:     0.1464744 α      in ANC's #15, #2, #1, ...

........................................................................
.............................. CYCLE   42 ..............................
........................................................................
   1    -87.1275664 -0.871276E+02  0.138E-02    0.95       0.0  T
   2    -87.1275738 -0.739095E-05  0.616E-03    0.94       2.4  T
   3    -87.1275742 -0.412279E-06  0.329E-03    0.95       4.5  T
   4    -87.1275742 -0.341374E-07  0.104E-03    0.95      14.1  T
   5    -87.1275743 -0.115164E-07  0.222E-04    0.95      66.3  T
   6    -87.1275743 -0.596884E-09  0.821E-05    0.95     179.7  T
   7    -87.1275743 -0.109779E-09  0.239E-05    0.95     616.4  T
     SCC iter.                  ...        0 min,  0.048 sec
     gradient                   ...        0 min,  0.075 sec
 * total energy  :   -86.3021860 Eh     change       -0.2065094E-03 Eh
   gradient norm :     0.0120086 Eh/α   predicted    -0.2117732E-03 (   2.55%)
   displ. norm   :     0.1771408 α      lambda       -0.3222655E-03
   maximum displ.:     0.0719822 α      in ANC's #20, #15, #1, ...
 * RMSD in coord.:     0.7811112 α      energy gain  -0.2492780E-01 Eh

generating ANC from model Hessian ...
Using Lindh-Hessian (1995)
 Shifting diagonal of input Hessian by   9.833994095457191E-003
 Lowest  eigenvalues of input Hessian
    0.000000    0.000000    0.000000    0.000000    0.000000    0.000000
    0.010000    0.010155    0.010530    0.011361    0.011644    0.011756
    0.012325    0.013382    0.013676    0.014261    0.015141    0.016280
 Highest eigenvalues
    2.069469    2.115548    2.161615    2.348951    2.429920    2.451688
 

........................................................................
.............................. CYCLE   43 ..............................
........................................................................
   1    -87.1290407 -0.871290E+02  0.124E-02    0.95       0.0  T
   2    -87.1290471 -0.641043E-05  0.600E-03    0.95       2.5  T
   3    -87.1290475 -0.314753E-06  0.334E-03    0.95       4.4  T
   4    -87.1290475 -0.204219E-07  0.109E-03    0.95      13.6  T
   5    -87.1290475 -0.871843E-08  0.166E-04    0.95      88.9  T
   6    -87.1290475 -0.781981E-09  0.566E-05    0.95     260.3  T
     SCC iter.                  ...        0 min,  0.041 sec
     gradient                   ...        0 min,  0.076 sec
 * total energy  :   -86.3023246 Eh     change       -0.1386141E-03 Eh
   gradient norm :     0.0103646 Eh/α   predicted     0.0000000E+00 (-100.00%)
   displ. norm   :     0.0850083 α      lambda       -0.2717250E-03
   maximum displ.:     0.0453644 α      in ANC's #15, #3, #8, ...

........................................................................
.............................. CYCLE   44 ..............................
........................................................................
   1    -87.1306534 -0.871307E+02  0.712E-03    0.95       0.0  T
   2    -87.1306541 -0.668061E-06  0.378E-03    0.95       3.9  T
   3    -87.1306541 -0.462083E-07  0.195E-03    0.95       7.5  T
   4    -87.1306541 -0.259277E-07  0.279E-04    0.95      52.8  T
   5    -87.1306541 -0.110452E-08  0.700E-05    0.95     210.5  T
   6    -87.1306541 -0.169635E-09  0.212E-05    0.95     697.0  T
     SCC iter.                  ...        0 min,  0.042 sec
     gradient                   ...        0 min,  0.077 sec
 * total energy  :   -86.3025296 Eh     change       -0.2049574E-03 Eh
   gradient norm :     0.0033085 Eh/α   predicted    -0.1373092E-03 ( -33.01%)
   displ. norm   :     0.1961615 α      lambda       -0.2919704E-03
   maximum displ.:     0.1074319 α      in ANC's #15, #3, #8, ...

........................................................................
.............................. CYCLE   45 ..............................
........................................................................
   1    -87.1315795 -0.871316E+02  0.726E-03    0.94       0.0  T
   2    -87.1315805 -0.978719E-06  0.353E-03    0.94       4.2  T
   3    -87.1315806 -0.780444E-07  0.186E-03    0.94       7.9  T
   4    -87.1315806 -0.233279E-07  0.401E-04    0.94      36.8  T
   5    -87.1315806 -0.178642E-08  0.106E-04    0.94     139.4  T
   6    -87.1315806 -0.341359E-09  0.348E-05    0.94     423.8  T
     SCC iter.                  ...        0 min,  0.041 sec
     gradient                   ...        0 min,  0.076 sec
 * total energy  :   -86.3027547 Eh     change       -0.2250808E-03 Eh
   gradient norm :     0.0050505 Eh/α   predicted    -0.1516137E-03 ( -32.64%)
   displ. norm   :     0.3579884 α      lambda       -0.3735077E-03
   maximum displ.:     0.1987441 α      in ANC's #15, #3, #8, ...

........................................................................
.............................. CYCLE   46 ..............................
........................................................................
   1    -87.1297682 -0.871298E+02  0.108E-02    0.93       0.0  T
   2    -87.1297702 -0.203418E-05  0.483E-03    0.93       3.0  T
   3    -87.1297703 -0.100700E-06  0.225E-03    0.93       6.5  T
   4    -87.1297704 -0.417617E-07  0.615E-04    0.93      24.0  T
   5    -87.1297704 -0.402730E-08  0.162E-04    0.93      91.0  T
   6    -87.1297704 -0.421821E-09  0.555E-05    0.93     265.9  T
     SCC iter.                  ...        0 min,  0.039 sec
     gradient                   ...        0 min,  0.069 sec
 * total energy  :   -86.3030227 Eh     change       -0.2680609E-03 Eh
   gradient norm :     0.0099319 Eh/α   predicted    -0.2106879E-03 ( -21.40%)
   displ. norm   :     0.2815507 α      lambda       -0.2566190E-03
   maximum displ.:     0.1408420 α      in ANC's #15, #3, #6, ...

........................................................................
.............................. CYCLE   47 ..............................
........................................................................
   1    -87.1281189 -0.871281E+02  0.726E-03    0.93       0.0  T
   2    -87.1281198 -0.850927E-06  0.324E-03    0.93       4.6  T
   3    -87.1281198 -0.274112E-07  0.130E-03    0.93      11.3  T
   4    -87.1281198 -0.379066E-08  0.323E-04    0.93      45.7  T
   5    -87.1281198 -0.983036E-09  0.105E-04    0.93     140.6  T
   6    -87.1281198 -0.156490E-09  0.334E-05    0.93     442.1  T
     SCC iter.                  ...        0 min,  0.039 sec
     gradient                   ...        0 min,  0.069 sec
 * total energy  :   -86.3031894 Eh     change       -0.1666945E-03 Eh
   gradient norm :     0.0100058 Eh/α   predicted    -0.1384806E-03 ( -16.93%)
   displ. norm   :     0.1585332 α      lambda       -0.2940753E-03
   maximum displ.:     0.0798636 α      in ANC's #6, #3, #17, ...

........................................................................
.............................. CYCLE   48 ..............................
........................................................................
   1    -87.1302510 -0.871303E+02  0.918E-03    0.93       0.0  T
   2    -87.1302518 -0.801534E-06  0.494E-03    0.93       3.0  T
   3    -87.1302519 -0.276478E-07  0.236E-03    0.93       6.2  T
   4    -87.1302519 -0.462086E-07  0.294E-04    0.93      50.1  T
   5    -87.1302519 -0.971625E-09  0.776E-05    0.93     190.1  T
   6    -87.1302519 -0.124544E-09  0.262E-05    0.93     563.2  T
     SCC iter.                  ...        0 min,  0.038 sec
     gradient                   ...        0 min,  0.069 sec
 * total energy  :   -86.3033511 Eh     change       -0.1616462E-03 Eh
   gradient norm :     0.0047667 Eh/α   predicted    -0.1507334E-03 (  -6.75%)
   displ. norm   :     0.1563697 α      lambda       -0.7710553E-04
   maximum displ.:     0.0797121 α      in ANC's #6, #3, #15, ...

........................................................................
.............................. CYCLE   49 ..............................
........................................................................
   1    -87.1301114 -0.871301E+02  0.372E-03    0.93       0.0  T
   2    -87.1301118 -0.334772E-06  0.152E-03    0.94       9.7  T
   3    -87.1301118 -0.106076E-07  0.721E-04    0.93      20.4  T
   4    -87.1301118 -0.369441E-08  0.234E-04    0.93      62.9  T
   5    -87.1301118 -0.783459E-09  0.610E-05    0.93     241.9  T
   6    -87.1301118 -0.311644E-10  0.195E-05    0.93     755.4  T
     SCC iter.                  ...        0 min,  0.035 sec
     gradient                   ...        0 min,  0.077 sec
 * total energy  :   -86.3034079 Eh     change       -0.5679463E-04 Eh
   gradient norm :     0.0050339 Eh/α   predicted    -0.3950187E-04 ( -30.45%)
   displ. norm   :     0.1852303 α      lambda       -0.1098554E-03
   maximum displ.:     0.1155842 α      in ANC's #6, #3, #15, ...

........................................................................
.............................. CYCLE   50 ..............................
........................................................................
   1    -87.1316759 -0.871317E+02  0.581E-03    0.94       0.0  T
   2    -87.1316772 -0.126000E-05  0.242E-03    0.94       6.1  T
   3    -87.1316772 -0.358367E-07  0.126E-03    0.94      11.7  T
   4    -87.1316772 -0.343573E-08  0.438E-04    0.94      33.7  T
   5    -87.1316772 -0.257697E-08  0.835E-05    0.94     176.5  T
   6    -87.1316772 -0.836735E-10  0.240E-05    0.94     615.4  T
     SCC iter.                  ...        0 min,  0.039 sec
     gradient                   ...        0 min,  0.063 sec
 * total energy  :   -86.3034816 Eh     change       -0.7373367E-04 Eh
   gradient norm :     0.0034386 Eh/α   predicted    -0.5682071E-04 ( -22.94%)
   displ. norm   :     0.1474975 α      lambda       -0.5572059E-04
   maximum displ.:     0.0946100 α      in ANC's #6, #3, #15, ...

........................................................................
.............................. CYCLE   51 ..............................
........................................................................
   1    -87.1319990 -0.871320E+02  0.378E-03    0.94       0.0  T
   2    -87.1319995 -0.548400E-06  0.158E-03    0.94       9.3  T
   3    -87.1319995 -0.226409E-07  0.819E-04    0.94      18.0  T
   4    -87.1319995 -0.208603E-08  0.309E-04    0.94      47.8  T
   5    -87.1319995 -0.837048E-09  0.586E-05    0.94     251.5  T
   6    -87.1319995 -0.436131E-10  0.190E-05    0.94     776.3  T
     SCC iter.                  ...        0 min,  0.036 sec
     gradient                   ...        0 min,  0.066 sec
 * total energy  :   -86.3035235 Eh     change       -0.4189593E-04 Eh
   gradient norm :     0.0022750 Eh/α   predicted    -0.2846970E-04 ( -32.05%)
   displ. norm   :     0.1731761 α      lambda       -0.5224549E-04
   maximum displ.:     0.1085900 α      in ANC's #6, #3, #20, ...

........................................................................
.............................. CYCLE   52 ..............................
........................................................................
   1    -87.1322136 -0.871322E+02  0.421E-03    0.94       0.0  T
   2    -87.1322142 -0.591093E-06  0.169E-03    0.94       8.7  T
   3    -87.1322142 -0.356356E-07  0.872E-04    0.94      16.9  T
   4    -87.1322142 -0.365385E-08  0.319E-04    0.94      46.2  T
   5    -87.1322142 -0.871268E-09  0.667E-05    0.94     221.2  T
   6    -87.1322142 -0.643752E-10  0.229E-05    0.94     643.1  T
     SCC iter.                  ...        0 min,  0.037 sec
     gradient                   ...        0 min,  0.067 sec
 * total energy  :   -86.3035617 Eh     change       -0.3817114E-04 Eh
   gradient norm :     0.0020900 Eh/α   predicted    -0.2690732E-04 ( -29.51%)
   displ. norm   :     0.1876156 α      lambda       -0.4176600E-04
   maximum displ.:     0.1104555 α      in ANC's #6, #3, #10, ...

........................................................................
.............................. CYCLE   53 ..............................
........................................................................
   1    -87.1317909 -0.871318E+02  0.344E-03    0.94       0.0  T
   2    -87.1317913 -0.388653E-06  0.138E-03    0.94      10.7  T
   3    -87.1317913 -0.287065E-07  0.714E-04    0.94      20.6  T
   4    -87.1317913 -0.278614E-08  0.250E-04    0.94      59.0  T
   5    -87.1317913 -0.666333E-09  0.602E-05    0.94     245.1  T
   6    -87.1317913 -0.403872E-10  0.212E-05    0.94     695.8  T
     SCC iter.                  ...        0 min,  0.037 sec
     gradient                   ...        0 min,  0.070 sec
 * total energy  :   -86.3035910 Eh     change       -0.2929704E-04 Eh
   gradient norm :     0.0024559 Eh/α   predicted    -0.2162118E-04 ( -26.20%)
   displ. norm   :     0.1536052 α      lambda       -0.4439532E-04
   maximum displ.:     0.0711691 α      in ANC's #6, #10, #5, ...

........................................................................
.............................. CYCLE   54 ..............................
........................................................................
   1    -87.1332445 -0.871332E+02  0.470E-03    0.94       0.0  T
   2    -87.1332448 -0.377863E-06  0.213E-03    0.94       6.9  T
   3    -87.1332449 -0.215760E-07  0.108E-03    0.94      13.6  T
   4    -87.1332449 -0.920899E-08  0.297E-04    0.94      49.7  T
   5    -87.1332449 -0.788276E-09  0.573E-05    0.94     257.1  T
   6    -87.1332449 -0.598703E-10  0.160E-05    0.94     921.2  T
     SCC iter.                  ...        0 min,  0.036 sec
     gradient                   ...        0 min,  0.068 sec
 * total energy  :   -86.3036150 Eh     change       -0.2398377E-04 Eh
   gradient norm :     0.0036333 Eh/α   predicted    -0.2272489E-04 (  -5.25%)
   displ. norm   :     0.1746628 α      lambda       -0.4520494E-04
   maximum displ.:     0.0842193 α      in ANC's #6, #10, #17, ...

........................................................................
.............................. CYCLE   55 ..............................
........................................................................
   1    -87.1317973 -0.871318E+02  0.334E-03    0.93       0.0  T
   2    -87.1317975 -0.149032E-06  0.169E-03    0.93       8.7  T
   3    -87.1317975 -0.593288E-08  0.775E-04    0.93      19.0  T
   4    -87.1317975 -0.425490E-08  0.177E-04    0.93      83.3  T
   5    -87.1317975 -0.498332E-09  0.529E-05    0.93     278.5  T
     SCC iter.                  ...        0 min,  0.030 sec
     gradient                   ...        0 min,  0.064 sec
 * total energy  :   -86.3036432 Eh     change       -0.2828419E-04 Eh
   gradient norm :     0.0028147 Eh/α   predicted    -0.2329408E-04 ( -17.64%)
   displ. norm   :     0.1120341 α      lambda       -0.5038016E-04
   maximum displ.:     0.0509586 α      in ANC's #5, #10, #19, ...

........................................................................
.............................. CYCLE   56 ..............................
........................................................................
   1    -87.1326034 -0.871326E+02  0.378E-03    0.93       0.0  T
   2    -87.1326039 -0.520724E-06  0.154E-03    0.93       9.6  T
   3    -87.1326040 -0.285506E-07  0.881E-04    0.93      16.7  T
   4    -87.1326040 -0.294719E-08  0.288E-04    0.93      51.2  T
   5    -87.1326040 -0.378819E-09  0.525E-05    0.93     281.1  T
   6    -87.1326040 -0.503633E-10  0.192E-05    0.93     766.6  T
     SCC iter.                  ...        0 min,  0.035 sec
     gradient                   ...        0 min,  0.064 sec
 * total energy  :   -86.3036800 Eh     change       -0.3672238E-04 Eh
   gradient norm :     0.0023425 Eh/α   predicted    -0.2550791E-04 ( -30.54%)
   displ. norm   :     0.2508354 α      lambda       -0.6426698E-04
   maximum displ.:     0.0974857 α      in ANC's #5, #10, #9, ...

........................................................................
.............................. CYCLE   57 ..............................
........................................................................
   1    -87.1309258 -0.871309E+02  0.554E-03    0.93       0.0  T
   2    -87.1309266 -0.885428E-06  0.249E-03    0.92       5.9  T
   3    -87.1309267 -0.747378E-07  0.140E-03    0.93      10.5  T
   4    -87.1309267 -0.875555E-08  0.348E-04    0.93      42.4  T
   5    -87.1309267 -0.761915E-09  0.907E-05    0.93     162.6  T
   6    -87.1309267 -0.111072E-09  0.323E-05    0.93     456.2  T
     SCC iter.                  ...        0 min,  0.036 sec
     gradient                   ...        0 min,  0.067 sec
 * total energy  :   -86.3037142 Eh     change       -0.3423877E-04 Eh
   gradient norm :     0.0043079 Eh/α   predicted    -0.3415677E-04 (  -0.24%)
   displ. norm   :     0.1096580 α      lambda       -0.5334694E-04
   maximum displ.:     0.0462772 α      in ANC's #6, #15, #3, ...

........................................................................
.............................. CYCLE   58 ..............................
........................................................................
   1    -87.1327091 -0.871327E+02  0.491E-03    0.93       0.0  T
   2    -87.1327099 -0.716601E-06  0.223E-03    0.93       6.6  T
   3    -87.1327099 -0.858832E-07  0.120E-03    0.93      12.3  T
   4    -87.1327100 -0.602121E-08  0.315E-04    0.93      46.8  T
   5    -87.1327100 -0.844864E-09  0.688E-05    0.93     214.2  T
   6    -87.1327100 -0.701164E-10  0.237E-05    0.93     623.0  T
     SCC iter.                  ...        0 min,  0.037 sec
     gradient                   ...        0 min,  0.063 sec
 * total energy  :   -86.3037424 Eh     change       -0.2818121E-04 Eh
   gradient norm :     0.0031301 Eh/α   predicted    -0.2699436E-04 (  -4.21%)
   displ. norm   :     0.1093951 α      lambda       -0.2972370E-04
   maximum displ.:     0.0403402 α      in ANC's #9, #6, #19, ...

........................................................................
.............................. CYCLE   59 ..............................
[...]
O10-C8-C6=126.88               N11-C8-C6=113.80               N11-C8-O10=119.05              H31-C9-C6=108.34               
H32-C9-C6=110.83               H32-C9-H31=109.94              H33-C9-C6=107.81               H33-C9-H31=109.69              
H33-C9-H32=110.18              
 
 selected dihedral angles (degree)
 ---------------------------------
C3-O2-C1-H27= 54.63           C3-O2-C1-H28=174.43           C3-O2-C1-H29=294.23           O4-C3-O2-C1=  1.62            
C5-C3-O2-C1=182.15            C6-C5-C3-O2=340.76            C6-C5-C3-O4=161.27            N26-C5-C3-O2=155.80           
N26-C5-C3-O4=336.31           O7-C6-C5-C3=323.41            O7-C6-C5-N26=148.68           C8-C6-C5-C3=199.03            
C8-C6-C5-N26= 24.30           C9-C6-C5-C3= 86.60            C9-C6-C5-N26=271.87           H30-O7-C6-C5= 63.48           
H30-O7-C6-C8=189.03           H30-O7-C6-C9=303.66           O10-C8-C6-C5=154.81           O10-C8-C6-O7= 26.71           
O10-C8-C6-C9=267.66           N11-C8-C6-C5=328.69           N11-C8-C6-O7=200.59           N11-C8-C6-C9= 81.54           
H31-C9-C6-C5=297.36           H31-C9-C6-O7= 63.13           H31-C9-C6-C8=180.38           H32-C9-C6-C5= 58.07           
H32-C9-C6-O7=183.83           H32-C9-C6-C8=301.09           H33-C9-C6-C5=178.73           H33-C9-C6-O7=304.49           
H33-C9-C6-C8= 61.74           
           -------------------------------------------------
          |                Final Singlepoint                |
           -------------------------------------------------

          ...................................................
          :                      SETUP                      :
          :.................................................:
          :  # basis functions                 144          :
          :  # atomic orbitals                 144          :
          :  # shells                           92          :
          :  # electrons                       140          :
          :  # halogen bonds                     0          :
          :  max. iterations                   250          :
          :  Hamiltonian                  GFN1-xTB          :
          :  restarted?                      false          :
          :  GBSA solvation                   true          :
          :  PC potential                    false          :
          :  electronic temp.          300.0000000     K    :
          :  accuracy                    1.0000000          :
          :  -> integral cutoff          0.2500000E+02      :
          :  -> integral neglect         0.1000000E-07      :
          :  -> SCF convergence          0.1000000E-05 Eh   :
          :  -> wf. convergence          0.2000000E-04 e    :
          :  Broyden damping             0.4000000          :
          ...................................................

 iter      E             dE          RMSdq      gap      omega  full diag
   1    -87.1338535 -0.871339E+02  0.374E-06    0.96       0.0  T
   2    -87.1338535 -0.284217E-12  0.164E-06    0.96    8980.4  T
   3    -87.1338535 -0.341061E-12  0.747E-07    0.96   19745.5  T

   *** convergence criteria satisfied after 3 iterations ***

         #    Occupation            Energy/Eh            Energy/eV
      -------------------------------------------------------------
         1        2.0000           -0.9006926             -24.5091
       ...           ...                  ...                  ...
        64        2.0000           -0.5133202             -13.9682
        65        2.0000           -0.4956846             -13.4883
        66        2.0000           -0.4916510             -13.3785
        67        2.0000           -0.4841586             -13.1746
        68        2.0000           -0.4784583             -13.0195
        69        2.0000           -0.4648819             -12.6501
        70        2.0000           -0.4630893             -12.6013 (HOMO)
        71                         -0.4277805             -11.6405 (LUMO)
        72                         -0.3550218              -9.6606
        73                         -0.3288200              -8.9476
        74                         -0.3141015              -8.5471
        75                         -0.2674444              -7.2775
       ...                                ...                  ...
       144                          0.7234697              19.6866
      -------------------------------------------------------------
                  HL-Gap            0.0353088 Eh            0.9608 eV
             Fermi-level           -0.4453679 Eh          -12.1191 eV

 SCC (total)                   0 d,  0 h,  0 min,  0.125 sec
 SCC setup                      ...        0 min,  0.002 sec (  1.585%)
 Dispersion                     ...        0 min,  0.000 sec (  0.229%)
 classical contributions        ...        0 min,  0.000 sec (  0.092%)
 integral evaluation            ...        0 min,  0.031 sec ( 24.454%)
 iterations                     ...        0 min,  0.020 sec ( 16.396%)
 molecular gradient             ...        0 min,  0.070 sec ( 56.004%)
 printout                       ...        0 min,  0.002 sec (  1.222%)

         :::::::::::::::::::::::::::::::::::::::::::::::::::::
         ::                     SUMMARY                     ::
         :::::::::::::::::::::::::::::::::::::::::::::::::::::
         :: total energy             -86.304343531862 Eh    ::
         :: total w/o Gsasa/hb       -86.281083942784 Eh    ::
         :: gradient norm              0.000342307439 Eh/a0 ::
         :: HOMO-LUMO gap              0.960801765933 eV    ::
         ::.................................................::
         :: SCC energy               -87.133853509090 Eh    ::
         :: -> electrostatic           0.418561772605 Eh    ::
         :: -> Gsolv                  -0.109414827197 Eh    ::
         ::    -> Gelec               -0.086155238119 Eh    ::
         ::    -> Gsasa               -0.024425066026 Eh    ::
         ::    -> Ghb                 -0.006458802057 Eh    ::
         ::    -> Gshift               0.007624279005 Eh    ::
         :: repulsion energy           0.859472709201 Eh    ::
         :: dispersion energy         -0.029962731973 Eh    ::
         :: halogen bond corr.         0.000000000000 Eh    ::
         :: add. restraining           0.000000000000 Eh    ::
         :: total charge               1.000000000004 e     ::
         :::::::::::::::::::::::::::::::::::::::::::::::::::::

           -------------------------------------------------
          |                Property Printout                |
           -------------------------------------------------

    * Orbital Energies and Occupations

         #    Occupation            Energy/Eh            Energy/eV
      -------------------------------------------------------------
         1        2.0000           -0.9006926             -24.5091
       ...           ...                  ...                  ...
        58        2.0000           -0.5364060             -14.5964
        59        2.0000           -0.5325938             -14.4926
        60        2.0000           -0.5285691             -14.3831
        61        2.0000           -0.5257155             -14.3054
        62        2.0000           -0.5241370             -14.2625
        63        2.0000           -0.5175504             -14.0833
        64        2.0000           -0.5133202             -13.9682
        65        2.0000           -0.4956846             -13.4883
        66        2.0000           -0.4916510             -13.3785
        67        2.0000           -0.4841586             -13.1746
        68        2.0000           -0.4784583             -13.0195
        69        2.0000           -0.4648819             -12.6501
        70        2.0000           -0.4630893             -12.6013 (HOMO)
        71                         -0.4277805             -11.6405 (LUMO)
        72                         -0.3550218              -9.6606
        73                         -0.3288200              -8.9476
        74                         -0.3141015              -8.5471
        75                         -0.2674444              -7.2775
        76                         -0.2666753              -7.2566
        77                         -0.2159335              -5.8758
        78                         -0.1709213              -4.6510
        79                         -0.1597377              -4.3467
        80                         -0.1522831              -4.1438
        81                         -0.1478167              -4.0223
       ...                                ...                  ...
       144                          0.7234697              19.6866
      -------------------------------------------------------------
                  HL-Gap            0.0353088 Eh            0.9608 eV
             Fermi-level           -0.4453679 Eh          -12.1191 eV

  Mulliken/CM5 charges         n(s)   n(p)   n(d)
     1C     0.15686  0.03460   0.992  2.851  0.000
     2O    -0.40136 -0.49794   1.688  4.713  0.000
     3C     0.59731  0.66551   0.956  2.447  0.000
     4O    -0.50339 -0.54828   1.716  4.787  0.000
     5C     0.19860  0.28923   1.113  2.689  0.000
     6C     0.22775  0.24803   1.031  2.741  0.000
     7O    -0.55279 -0.75151   1.687  4.866  0.000
     8C     0.49376  0.58783   1.028  2.478  0.000
     9C    -0.10343 -0.24480   1.042  3.062  0.000
    10O    -0.43782 -0.48532   1.714  4.724  0.000
    11N    -0.16282 -0.41495   1.468  3.694  0.000
    12C     0.04154 -0.04620   1.005  2.953  0.000
    13C     0.33314  0.48091   1.058  2.609  0.000
    14C     0.16009  0.20111   1.065  2.775  0.000
    15C    -0.09785 -0.23817   1.028  3.070  0.000
    16C    -0.10597 -0.24393   1.024  3.082  0.000
    17N    -0.36751 -0.72462   1.441  3.927  0.000
    18C     0.48121  0.58675   0.980  2.539  0.000
    19O    -0.54174 -0.58866   1.722  4.820  0.000
    20C     0.33319  0.45854   1.001  2.666  0.000
    21N    -0.23617 -0.34811   1.567  3.669  0.000
    22N    -0.25388 -0.36086   1.563  3.691  0.000
    23C     0.39326  0.50119   1.011  2.596  0.000
    24C    -0.11146 -0.24884   1.013  3.099  0.000
    25O    -0.33157 -0.38340   1.689  4.642  0.000
    26N    -0.30004 -0.49225   1.516  3.784  0.000
    27H     0.07370  0.13578   0.926  0.000  0.000
    28H     0.07651  0.13694   0.923  0.000  0.000
    29H     0.07401  0.13521   0.926  0.000  0.000
    30H     0.40232  0.58392   0.598  0.000  0.000
    31H     0.09214  0.15129   0.908  0.000  0.000
    32H     0.06924  0.12770   0.931  0.000  0.000
    33H     0.09922  0.15608   0.901  0.000  0.000
    34H     0.08346  0.15657   0.917  0.000  0.000
    35H     0.10388  0.17196   0.896  0.000  0.000
    36H     0.10129  0.16734   0.899  0.000  0.000
    37H     0.09382  0.15489   0.906  0.000  0.000
    38H     0.06341  0.12177   0.937  0.000  0.000
    39H     0.06073  0.11683   0.939  0.000  0.000
    40H     0.05995  0.11824   0.940  0.000  0.000
    41H     0.06202  0.12108   0.938  0.000  0.000
    42H     0.07584  0.13515   0.924  0.000  0.000
    43H     0.25929  0.46835   0.741  0.000  0.000
    44H     0.07324  0.12903   0.927  0.000  0.000
    45H     0.08305  0.13766   0.917  0.000  0.000
    46H     0.08394  0.13834   0.916  0.000  0.000

Wiberg/Mayer (AO) data.
largest (>0.10) Wiberg bond orders for each atom

 ---------------------------------------------------------------------------
     #   Z sym  total        # sym  WBO       # sym  WBO       # sym  WBO
 ---------------------------------------------------------------------------
     1   6 C    3.833 --    28 H    0.984    27 H    0.976    29 H    0.975
                             2 O    0.861
     2   8 O    2.241 --     3 C    1.150     1 C    0.861     4 O    0.154
     3   6 C    3.863 --     4 O    1.709     2 O    1.150     5 C    0.936
     4   8 O    1.982 --     3 C    1.709     2 O    0.154
     5   6 C    3.907 --    26 N    1.661     6 C    0.988     3 C    0.936
     6   6 C    3.941 --     7 O    1.003     5 C    0.988     8 C    0.957
                             9 C    0.867
     7   8 O    1.924 --     6 C    1.003    30 H    0.820
     8   6 C    3.853 --    10 O    1.817     6 C    0.957    11 N    0.938
     9   6 C    3.963 --    32 H    0.984    31 H    0.974    33 H    0.971
                             6 C    0.867
    10   8 O    2.062 --     8 C    1.817
    11   7 N    3.569 --    13 C    1.461     8 C    0.938    12 C    0.906
    12   6 C    3.882 --    34 H    0.974    35 H    0.967    36 H    0.959
                            11 N    0.906
    13   6 C    3.884 --    11 N    1.461    26 N    1.180    14 C    1.000
    14   6 C    3.931 --    13 C    1.000    16 C    0.978    17 N    0.940
                            15 C    0.937
    15   6 C    3.972 --    39 H    0.982    38 H    0.980    37 H    0.964
                            14 C    0.937
    16   6 C    3.980 --    40 H    0.983    41 H    0.982    42 H    0.979
                            14 C    0.978
    17   7 N    3.294 --    18 C    1.181    14 C    0.940    43 H    0.891
                            19 O    0.159
    18   6 C    3.907 --    19 O    1.635    17 N    1.181    20 C    1.000
    19   8 O    1.944 --    18 C    1.635    17 N    0.159
    20   6 C    3.880 --    21 N    1.597    25 O    1.068    18 C    1.000
    21   7 N    3.025 --    20 C    1.597    22 N    1.212
    22   7 N    2.982 --    23 C    1.591    21 N    1.212
    23   6 C    3.866 --    22 N    1.591    25 O    1.086    24 C    1.033
    24   6 C    3.984 --    23 C    1.033    44 H    0.982    45 H    0.963
                            46 H    0.960
    25   8 O    2.337 --    23 C    1.086    20 C    1.068
    26   7 N    3.057 --     5 C    1.661    13 C    1.180
    27   1 H    1.000 --     1 C    0.976
    28   1 H    1.004 --     1 C    0.984
    29   1 H    1.000 --     1 C    0.975
    30   1 H    0.850 --     7 O    0.820
    31   1 H    0.998 --     9 C    0.974
    32   1 H    0.993 --     9 C    0.984
    33   1 H    0.991 --     9 C    0.971
    34   1 H    1.005 --    12 C    0.974
    35   1 H    0.993 --    12 C    0.967
    36   1 H    0.993 --    12 C    0.959
    37   1 H    1.006 --    15 C    0.964
    38   1 H    0.997 --    15 C    0.980
    39   1 H    0.997 --    15 C    0.982
    40   1 H    0.999 --    16 C    0.983
    41   1 H    1.006 --    16 C    0.982
    42   1 H    0.999 --    16 C    0.979
    43   1 H    0.948 --    17 N    0.891
    44   1 H    0.997 --    24 C    0.982
    45   1 H    0.995 --    24 C    0.963
    46   1 H    0.995 --    24 C    0.960
 ---------------------------------------------------------------------------

Topologies differ in total number of bonds
Writing topology from bond orders to xtbtopo.mol

 dipole moment from electron density (au)
     X       Y       Z   
  -3.0356   1.0172  -0.8644  total (Debye):    8.429

           -------------------------------------------------
          |                Geometry Summary                 |
           -------------------------------------------------

      molecular mass/u    :      366.3497991
   center of mass at/Å    :        0.1318287      -0.2000992      -0.0524890
  moments of inertia/u·Å² :        0.1085329E+04   0.5452550E+04   0.5841722E+04
rotational constants/cm⁻¹ :        0.1553228E-01   0.3091697E-02   0.2885730E-02

 * 38 selected distances

     #   Z          #   Z                                           value/Å
     1   6 C        2   8 O                                       1.4424626
     2   8 O        3   6 C                                       1.3175910
     3   6 C        4   8 O                                       1.1984408
     6   6 C        7   8 O                                       1.3832690
     8   6 C       10   8 O                                       1.1881631
    11   7 N       12   6 C                                       1.4658794
    11   7 N       13   6 C                                       1.3162041
    14   6 C       16   6 C                                       1.5355635 (max)
    14   6 C       17   7 N                                       1.4576847
    17   7 N       18   6 C                                       1.3690541
    18   6 C       19   8 O                                       1.2111253
    20   6 C       21   7 N                                       1.3008010
    22   7 N       23   6 C                                       1.3014735
    23   6 C       24   6 C                                       1.4787696
    20   6 C       25   8 O                                       1.3433321
    23   6 C       25   8 O                                       1.3400801
     5   6 C       26   7 N                                       1.2855865
    13   6 C       26   7 N                                       1.3651999
     1   6 C       27   1 H                                       1.0910629
     1   6 C       28   1 H                                       1.0865494
     1   6 C       29   1 H                                       1.0911050
     7   8 O       30   1 H                                       0.9684690 (min)
     9   6 C       31   1 H                                       1.0872029
     9   6 C       32   1 H                                       1.0867519
     9   6 C       33   1 H                                       1.0883292
    12   6 C       34   1 H                                       1.0825179
    12   6 C       35   1 H                                       1.0887640
    12   6 C       36   1 H                                       1.0894701
    15   6 C       37   1 H                                       1.0879897
    15   6 C       38   1 H                                       1.0868634
    15   6 C       39   1 H                                       1.0885540
    16   6 C       40   1 H                                       1.0882033
    16   6 C       41   1 H                                       1.0877086
    16   6 C       42   1 H                                       1.0887381
    17   7 N       43   1 H                                       1.0103093
    24   6 C       44   1 H                                       1.0872116
    24   6 C       45   1 H                                       1.0897858
    24   6 C       46   1 H                                       1.0902458

 * 6 distinct bonds (by element types)

   Z      Z             #   av. dist./Å        max./Å        min./Å
   1 H    6 C          18     1.0881696     1.0911050     1.0825179
   6 C    6 C           2     1.5071665     1.5355635     1.4787696
   1 H    7 N           1     1.0103093     1.0103093     1.0103093
   6 C    7 N           8     1.3577354     1.4658794     1.2855865
   1 H    8 O           1     0.9684690     0.9684690     0.9684690
   6 C    8 O           8     1.3030580     1.4424626     1.1881631


optimized geometry written to: xtbopt.xyz


           -------------------------------------------------
          | TOTAL ENERGY              -86.304343531862 Eh   |
          | GRADIENT NORM               0.000342307439 Eh/α |
          | HOMO-LUMO GAP               0.960801765933 eV   |
           -------------------------------------------------

------------------------------------------------------------------------
 * finished run on 2023/06/20 at 15:50:26.647     
------------------------------------------------------------------------
 total:
 * wall-time:     0 d,  0 h,  0 min, 14.197 sec
 *  cpu-time:     0 d,  0 h,  0 min, 14.112 sec
 * ratio c/w:     0.994 speedup
 SCF:
 * wall-time:     0 d,  0 h,  0 min,  0.254 sec
 *  cpu-time:     0 d,  0 h,  0 min,  0.254 sec
 * ratio c/w:     1.000 speedup
 ANC optimizer:
 * wall-time:     0 d,  0 h,  0 min, 13.854 sec
 *  cpu-time:     0 d,  0 h,  0 min, 13.815 sec
 * ratio c/w:     0.997 speedup

