      -----------------------------------------------------------      
     |                   =====================                   |     
     |                           x T B                           |     
     |                   =====================                   |     
     |                         S. Grimme                         |     
     |          Mulliken Center for Theoretical Chemistry        |     
     |                    University of Bonn                     |     
      -----------------------------------------------------------      

   * xtb version 6.5.1 (579679a) compiled by 'ehlert@majestix' on 2022-07-11

   xtb is free software: you can redistribute it and/or modify it under
   the terms of the GNU Lesser General Public License as published by
   the Free Software Foundation, either version 3 of the License, or
   (at your option) any later version.
   
   xtb is distributed in the hope that it will be useful,
   but WITHOUT ANY WARRANTY; without even the implied warranty of
   MERCHANTABILITY or FITNESS FOR A PARTICULAR PURPOSE.  See the
   GNU Lesser General Public License for more details.
   
   Cite this work as:
   * C. Bannwarth, E. Caldeweyher, S. Ehlert, A. Hansen, P. Pracht,
     J. Seibert, S. Spicher, S. Grimme, WIREs Comput. Mol. Sci., 2020, 11,
     e01493. DOI: 10.1002/wcms.1493
   
   for GFN2-xTB:
   * C. Bannwarth, S. Ehlert and S. Grimme., J. Chem. Theory Comput., 2019,
     15, 1652-1671. DOI: 10.1021/acs.jctc.8b01176
   for GFN1-xTB:
   * S. Grimme, C. Bannwarth, P. Shushkov, J. Chem. Theory Comput., 2017,
     13, 1989-2009. DOI: 10.1021/acs.jctc.7b00118
   for GFN0-xTB:
   * P. Pracht, E. Caldeweyher, S. Ehlert, S. Grimme, ChemRxiv, 2019, preprint.
     DOI: 10.26434/chemrxiv.8326202.v1
   for GFN-FF:
   * S. Spicher and S. Grimme, Angew. Chem. Int. Ed., 2020, 59, 15665-15673.
     DOI: 10.1002/anie.202004239
   
   for ALPB and GBSA implicit solvation:
   * S. Ehlert, M. Stahn, S. Spicher, S. Grimme, J. Chem. Theory Comput.,
     2021, 17, 4250-4261. DOI: 10.1021/acs.jctc.1c00471
   
   for DFT-D4:
   * E. Caldeweyher, C. Bannwarth and S. Grimme, J. Chem. Phys., 2017,
     147, 034112. DOI: 10.1063/1.4993215
   * E. Caldeweyher, S. Ehlert, A. Hansen, H. Neugebauer, S. Spicher,
     C. Bannwarth and S. Grimme, J. Chem. Phys., 2019, 150, 154122.
     DOI: 10.1063/1.5090222
   * E. Caldeweyher, J.-M. Mewes, S. Ehlert and S. Grimme, Phys. Chem. Chem. Phys.
     2020, 22, 8499-8512. DOI: 10.1039/D0CP00502A
   
   for sTDA-xTB:
   * S. Grimme and C. Bannwarth, J. Chem. Phys., 2016, 145, 054103.
     DOI: 10.1063/1.4959605
   
   in the mass-spec context:
   * V. Asgeirsson, C. Bauer and S. Grimme, Chem. Sci., 2017, 8, 4879.
     DOI: 10.1039/c7sc00601b
   * J. Koopman and S. Grimme, ACS Omega 2019, 4, 12, 15120-15133.
     DOI: 10.1021/acsomega.9b02011
   
   for metadynamics refer to:
   * S. Grimme, J. Chem. Theory Comput., 2019, 155, 2847-2862
     DOI: 10.1021/acs.jctc.9b00143
   
   for SPH calculations refer to:
   * S. Spicher and S. Grimme, J. Chem. Theory Comput., 2021, 17, 1701-1714
     DOI: 10.1021/acs.jctc.0c01306
   
   with help from (in alphabetical order)
   P. Atkinson, C. Bannwarth, F. Bohle, G. Brandenburg, E. Caldeweyher
   M. Checinski, S. Dohm, S. Ehlert, S. Ehrlich, I. Gerasimov, C. Hölzer
   A. Katbashev, J. Koopman, C. Lavigne, S. Lehtola, F. März, M. Müller,
   F. Musil, H. Neugebauer, J. Pisarek, C. Plett, P. Pracht, F. Pultar,
   J. Seibert, P. Shushkov, S. Spicher, M. Stahn, M. Steiner, T. Strunk,
   J. Stückrath, T. Rose, and J. Unsleber
   
 * started run on 2023/06/21 at 17:27:15.029     

           -------------------------------------------------
          |                Calculation Setup                |
           -------------------------------------------------

          program call               : /lustre/hpc/kemi/ree/PhD/git/ReactivityQM/dep/xtb-6.5.1/bin/xtb --gfn 1 /lustre/hpc/kemi/ree/PhD/git/ReactivityQM/calculations/R02oxygendeprot/reac01prodN12/conf07/R02oxygendeprot_reac01prodN12_conf07_gfn1.xyz --opt --vfukui --chrg 0 --uhf 0 --alpb DMSO
          hostname                   : node070
          coordinate file            : /lustre/hpc/kemi/ree/PhD/git/ReactivityQM/calculations/R02oxygendeprot/reac01prodN12/conf07/R02oxygendeprot_reac01prodN12_conf07_gfn1.xyz
          omp threads                :                     1

   ID    Z sym.   atoms
    1    6 C      1, 3, 5, 7-10, 12, 14, 15, 18, 19, 22, 24
    2    8 O      2, 4, 13, 20, 23, 25
    3    7 N      6, 11, 16, 17, 21
    4    1 H      26-42

           -------------------------------------------------
          |                 G F N 1 - x T B                 |
           -------------------------------------------------

        Reference                      10.1021/acs.jctc.7b00118
      * Hamiltonian:
        H0-scaling (s, p, d)           1.850000    2.250000    2.000000
        zeta-weighting                 0.000000
      * Dispersion:
        s8                             2.400000
        a1                             0.630000
        a2                             5.000000
        s9                             0.000000
      * Repulsion:
        kExp                           1.500000
        rExp                           1.000000
      * Coulomb:
        alpha                          2.000000
        third order                    atomic
        anisotropic                    false
      * Halogen bond correction:
        rad-scale                      1.300000
        damping                        0.440000

      * Solvation model:               ALPB
        Solvent                        DMSO
        Parameter file                 internal GFN1-xTB/ALPB
        Dielectric constant                4.6680E+01
        Reference state                gsolv [1 M gas/solution]
        Free energy shift                  7.6243E-03 Eh       4.7843E+00 kcal/mol
        Temperature                        2.9815E+02 K
        Density                            1.1000E+00 kg/L
        Solvent mass                       7.8130E+01 g/mol
        Interaction kernel             P16
        Born radius scaling (c1)           1.7672E+00
        Born radii integrator          GBOBC
        Born offset                        0.0000E+00 a0       0.0000E+00 AA
        H-bond correction              true
        Ion screening                  false
        Surface tension                    1.0000E-05 Eh       1.5569E+01 dyn/cm
        Grid points                               230 per atom

          ...................................................
          :                      SETUP                      :
          :.................................................:
          :  # basis functions                 134          :
          :  # atomic orbitals                 134          :
          :  # shells                           84          :
          :  # electrons                       134          :
          :  # halogen bonds                     0          :
          :  max. iterations                   250          :
          :  Hamiltonian                  GFN1-xTB          :
          :  restarted?                      false          :
          :  GBSA solvation                   true          :
          :  PC potential                    false          :
          :  electronic temp.          300.0000000     K    :
          :  accuracy                    1.0000000          :
          :  -> integral cutoff          0.2500000E+02      :
          :  -> integral neglect         0.1000000E-07      :
          :  -> SCF convergence          0.1000000E-05 Eh   :
          :  -> wf. convergence          0.2000000E-04 e    :
          :  Broyden damping             0.4000000          :
          ...................................................

 iter      E             dE          RMSdq      gap      omega  full diag
   1    -83.2377072 -0.832377E+02  0.851E+00    1.52       0.0  T
   2    -83.4010523 -0.163345E+00  0.525E+00    0.30       1.0  T
   3    -83.3831372  0.179150E-01  0.329E+00    0.13       1.0  T
   4    -83.6224375 -0.239300E+00  0.107E+00    1.91       1.0  T
   5    -83.6572403 -0.348028E-01  0.585E-01    0.26       1.0  T
   6    -83.4214728  0.235768E+00  0.163E+00    0.45       1.0  T
   7    -83.6536578 -0.232185E+00  0.611E-01    0.31       1.0  T
   8    -83.6290951  0.245628E-01  0.731E-01    0.04       1.0  T
   9    -83.6513069 -0.222118E-01  0.633E-01    0.36       1.0  T
  10    -83.6590373 -0.773046E-02  0.547E-01    0.20       1.0  T
  11    -83.6924552 -0.334179E-01  0.582E-02    0.06       1.0  T
  12    -83.6920289  0.426287E-03  0.838E-02    0.06       1.0  T
  13    -83.6918012  0.227712E-03  0.949E-02    0.04       1.0  T
  14    -83.6923611 -0.559887E-03  0.651E-02    0.06       1.0  T
  15    -83.6926689 -0.307846E-03  0.403E-02    0.05       1.0  T
  16    -83.6928331 -0.164126E-03  0.152E-02    0.05       1.0  T
  17    -83.6928526 -0.195191E-04  0.818E-03    0.05       1.9  T
  18    -83.6928602 -0.762171E-05  0.144E-03    0.05      10.7  T
  19    -83.6928602 -0.511823E-07  0.129E-03    0.05      11.9  T
  20    -83.6928604 -0.193142E-06  0.146E-04    0.05     105.4  T
  21    -83.6928604 -0.237313E-08  0.394E-05    0.05     391.6  T

   *** convergence criteria satisfied after 21 iterations ***

         #    Occupation            Energy/Eh            Energy/eV
      -------------------------------------------------------------
         1        2.0000           -0.8758318             -23.8326
       ...           ...                  ...                  ...
        61        2.0000           -0.4815573             -13.1038
        62        2.0000           -0.4724163             -12.8551
        63        2.0000           -0.4706305             -12.8065
        64        2.0000           -0.4689976             -12.7621
        65        2.0000           -0.4606853             -12.5359
        66        2.0000           -0.4179892             -11.3741
        67        1.4675           -0.4019297             -10.9371 (HOMO)
        68        0.5325           -0.4000036             -10.8847 (LUMO)
        69                         -0.3100866              -8.4379
        70                         -0.2956590              -8.0453
        71                         -0.2886144              -7.8536
        72                         -0.2838494              -7.7239
       ...                                ...                  ...
       134                          0.7736146              21.0511
      -------------------------------------------------------------
                  HL-Gap            0.0019261 Eh            0.0524 eV
             Fermi-level           -0.4009666 Eh          -10.9109 eV

 SCC (total)                   0 d,  0 h,  0 min,  0.185 sec
 SCC setup                      ...        0 min,  0.002 sec (  0.851%)
 Dispersion                     ...        0 min,  0.000 sec (  0.145%)
 classical contributions        ...        0 min,  0.000 sec (  0.049%)
 integral evaluation            ...        0 min,  0.020 sec ( 11.076%)
 iterations                     ...        0 min,  0.102 sec ( 55.431%)
 molecular gradient             ...        0 min,  0.059 sec ( 31.784%)
 printout                       ...        0 min,  0.001 sec (  0.652%)

         :::::::::::::::::::::::::::::::::::::::::::::::::::::
         ::                     SUMMARY                     ::
         :::::::::::::::::::::::::::::::::::::::::::::::::::::
         :: total energy             -82.929139318999 Eh    ::
         :: total w/o Gsasa/hb       -82.908446313395 Eh    ::
         :: gradient norm              0.099081733780 Eh/a0 ::
         :: HOMO-LUMO gap              0.052411817442 eV    ::
         ::.................................................::
         :: SCC energy               -83.692860444122 Eh    ::
         :: -> electrostatic           0.391476214963 Eh    ::
         :: -> Gsolv                  -0.074044552709 Eh    ::
         ::    -> Gelec               -0.053351547104 Eh    ::
         ::    -> Gsasa               -0.024038562033 Eh    ::
         ::    -> Ghb                 -0.004278722577 Eh    ::
         ::    -> Gshift               0.007624279005 Eh    ::
         :: repulsion energy           0.789999004391 Eh    ::
         :: dispersion energy         -0.026277879269 Eh    ::
         :: halogen bond corr.         0.000000000000 Eh    ::
         :: add. restraining           0.000000000000 Eh    ::
         :: total charge              -0.000000000000 e     ::
         :::::::::::::::::::::::::::::::::::::::::::::::::::::

      ----------------------------------------------------------- 
     |                   =====================                   |
     |                        A N C O P T                        |
     |                   =====================                   |
     |               Approximate Normal Coordinate               |
     |                Rational Function Optimizer                |
      ----------------------------------------------------------- 

          ...................................................
          :                      SETUP                      :
          :.................................................:
          :   optimization level            normal          :
          :   max. optcycles                   200          :
          :   ANC micro-cycles                  20          :
          :   degrees of freedom               120          :
          :.................................................:
          :   RF solver                   davidson          :
          :   write xtbopt.log                true          :
          :   linear?                        false          :
          :   energy convergence         0.5000000E-05 Eh   :
          :   grad. convergence          0.1000000E-02 Eh/α :
          :   maximium RF displ.         1.0000000          :
          :   Hlow (freq-cutoff)         0.1000000E-01      :
          :   Hmax (freq-cutoff)         5.0000000          :
          :   S6 in model hess.         20.0000000          :
          ...................................................

generating ANC from model Hessian ...
Using Lindh-Hessian (1995)
 Shifting diagonal of input Hessian by   9.838535760338434E-003
 Lowest  eigenvalues of input Hessian
    0.000000    0.000000    0.000000    0.000000    0.000000    0.000000
    0.010000    0.010191    0.010497    0.010577    0.011892    0.012409
    0.012989    0.013327    0.014593    0.015569    0.016345    0.017737
 Highest eigenvalues
    2.021894    2.096873    2.235777    2.291098    2.359779    2.458411
 

........................................................................
.............................. CYCLE    1 ..............................
........................................................................
   1    -83.6928604 -0.836929E+02  0.310E-05    0.05       0.0  T
   2    -83.6928604  0.396883E-07  0.583E-04    0.05      26.5  T
   3    -83.6928604 -0.398012E-07  0.214E-06    0.05    7211.1  T
   4    -83.6928604 -0.468958E-12  0.157E-07    0.05   98032.1  T
     SCC iter.                  ...        0 min,  0.020 sec
     gradient                   ...        0 min,  0.058 sec
 * total energy  :   -82.9291393 Eh     change       -0.1800942E-09 Eh
   gradient norm :     0.0990837 Eh/α   predicted     0.0000000E+00 (-100.00%)
   displ. norm   :     0.3245647 α      lambda       -0.1464233E-01
   maximum displ.:     0.1607185 α      in ANC's #23, #27, #7, ...

........................................................................
.............................. CYCLE    2 ..............................
........................................................................
   1    -83.6779325 -0.836779E+02  0.460E-01    0.17       0.0  T
   2    -83.4149093  0.263023E+00  0.171E+00    0.43       1.0  T
   3    -83.5191025 -0.104193E+00  0.125E+00    0.11       1.0  T
   4    -83.7011585 -0.182056E+00  0.123E-01    0.07       1.0  T
   5    -83.7025158 -0.135733E-02  0.592E-02    0.07       1.0  T
   6    -83.7029352 -0.419341E-03  0.551E-03    0.06       2.8  T
   7    -83.7029216  0.136028E-04  0.110E-02    0.06       1.4  T
   8    -83.7029328 -0.112462E-04  0.479E-03    0.06       3.2  T
   9    -83.7029320  0.857906E-06  0.549E-03    0.06       2.8  T
  10    -83.7029352 -0.325746E-05  0.156E-03    0.06       9.9  T
  11    -83.7029355 -0.257409E-06  0.428E-04    0.06      36.0  T
  12    -83.7029355 -0.197995E-07  0.118E-04    0.06     131.0  T
  13    -83.7029355 -0.128453E-08  0.523E-05    0.06     295.3  T
     SCC iter.                  ...        0 min,  0.063 sec
     gradient                   ...        0 min,  0.051 sec
 * total energy  :   -82.9397584 Eh     change       -0.1061910E-01 Eh
   gradient norm :     0.0499440 Eh/α   predicted    -0.8100010E-02 ( -23.72%)
   displ. norm   :     0.3407392 α      lambda       -0.6464145E-02
   maximum displ.:     0.1502901 α      in ANC's #23, #7, #27, ...

........................................................................
.............................. CYCLE    3 ..............................
........................................................................
   1    -83.6887896 -0.836888E+02  0.423E-01    0.16       0.0  T
   2    -83.4126946  0.276095E+00  0.172E+00    0.41       1.0  T
   3    -83.5725459 -0.159851E+00  0.108E+00    0.08       1.0  T
   4    -83.6978379 -0.125292E+00  0.321E-01    0.12       1.0  T
   5    -83.7049198 -0.708184E-02  0.201E-01    0.09       1.0  T
   6    -83.7082266 -0.330688E-02  0.110E-01    0.05       1.0  T
   7    -83.7096265 -0.139990E-02  0.920E-03    0.06       1.7  T
   8    -83.7096352 -0.864869E-05  0.372E-03    0.06       4.1  T
   9    -83.7096331  0.212340E-05  0.559E-03    0.06       2.8  T
  10    -83.7096365 -0.344506E-05  0.132E-03    0.06      11.7  T
  11    -83.7096367 -0.193411E-06  0.316E-04    0.06      48.8  T
  12    -83.7096367 -0.114430E-07  0.266E-05    0.06     580.7  T
  13    -83.7096367 -0.738112E-10  0.477E-06    0.06    3236.9  T
     SCC iter.                  ...        0 min,  0.064 sec
     gradient                   ...        0 min,  0.056 sec
 * total energy  :   -82.9436058 Eh     change       -0.3847350E-02 Eh
   gradient norm :     0.0139772 Eh/α   predicted    -0.3608406E-02 (  -6.21%)
   displ. norm   :     0.2270362 α      lambda       -0.9684281E-03
   maximum displ.:     0.1203604 α      in ANC's #7, #6, #5, ...

........................................................................
.............................. CYCLE    4 ..............................
........................................................................
   1    -83.7079192 -0.837079E+02  0.145E-01    0.09       0.0  T
   2    -83.4413990  0.266520E+00  0.154E+00    0.29       1.0  T
   3    -83.7093134 -0.267914E+00  0.980E-02    0.05       1.0  T
   4    -83.7101212 -0.807826E-03  0.506E-02    0.07       1.0  T
   5    -83.7104150 -0.293784E-03  0.462E-03    0.07       3.3  T
   6    -83.7104028  0.122086E-04  0.110E-02    0.06       1.4  T
   7    -83.7104157 -0.128573E-04  0.324E-03    0.07       4.8  T
   8    -83.7104169 -0.120528E-05  0.978E-05    0.07     157.8  T
   9    -83.7104169  0.275719E-08  0.177E-04    0.07      87.2  T
  10    -83.7104169 -0.361253E-08  0.164E-05    0.07     942.8  T
     SCC iter.                  ...        0 min,  0.048 sec
     gradient                   ...        0 min,  0.056 sec
 * total energy  :   -82.9443320 Eh     change       -0.7261917E-03 Eh
   gradient norm :     0.0092082 Eh/α   predicted    -0.5091830E-03 ( -29.88%)
   displ. norm   :     0.3341957 α      lambda       -0.8564601E-03
   maximum displ.:     0.1773478 α      in ANC's #7, #6, #5, ...

........................................................................
.............................. CYCLE    5 ..............................
........................................................................
   1    -83.7106467 -0.837106E+02  0.730E-02    0.08       0.0  T
   2    -83.5165603  0.194086E+00  0.129E+00    0.12       1.0  T
   3    -83.7112678 -0.194708E+00  0.670E-03    0.07       2.3  T
   4    -83.7112600  0.786365E-05  0.969E-03    0.07       1.6  T
   5    -83.7112696 -0.966748E-05  0.195E-03    0.07       7.9  T
   6    -83.7112698 -0.133214E-06  0.997E-04    0.07      15.5  T
   7    -83.7112699 -0.107457E-06  0.130E-04    0.07     118.5  T
   8    -83.7112699 -0.136501E-08  0.438E-05    0.07     352.0  T
     SCC iter.                  ...        0 min,  0.041 sec
     gradient                   ...        0 min,  0.057 sec
 * total energy  :   -82.9449355 Eh     change       -0.6035819E-03 Eh
   gradient norm :     0.0077390 Eh/α   predicted    -0.4760586E-03 ( -21.13%)
   displ. norm   :     0.3045924 α      lambda       -0.4575877E-03
   maximum displ.:     0.1516746 α      in ANC's #7, #5, #6, ...

........................................................................
.............................. CYCLE    6 ..............................
........................................................................
   1    -83.7126040 -0.837126E+02  0.903E-03    0.07       0.0  T
   2    -83.7125861  0.178472E-04  0.150E-02    0.07       1.0  T
   3    -83.7122773  0.308801E-03  0.534E-02    0.08       1.0  T
   4    -83.7126058 -0.328453E-03  0.562E-03    0.07       2.7  T
   5    -83.7126088 -0.302986E-05  0.102E-03    0.07      15.1  T
   6    -83.7126089 -0.291349E-07  0.135E-04    0.07     114.2  T
   7    -83.7126089  0.551523E-10  0.901E-05    0.07     171.2  T
     SCC iter.                  ...        0 min,  0.036 sec
     gradient                   ...        0 min,  0.043 sec
 * total energy  :   -82.9452653 Eh     change       -0.3297474E-03 Eh
   gradient norm :     0.0073030 Eh/α   predicted    -0.2500289E-03 ( -24.18%)
   displ. norm   :     0.2731292 α      lambda       -0.2909581E-03
   maximum displ.:     0.1336614 α      in ANC's #5, #7, #6, ...

........................................................................
.............................. CYCLE    7 ..............................
........................................................................
   1    -83.7142345 -0.837142E+02  0.321E-02    0.07       0.0  T
   2    -83.7005346  0.137000E-01  0.350E-01    0.14       1.0  T
   3    -83.7142743 -0.137397E-01  0.267E-02    0.07       1.0  T
   4    -83.7143340 -0.597730E-04  0.143E-02    0.07       1.1  T
   5    -83.7143264  0.761160E-05  0.163E-02    0.07       1.0  T
   6    -83.7143560 -0.295397E-04  0.365E-03    0.07       4.2  T
   7    -83.7143575 -0.153090E-05  0.208E-04    0.07      74.3  T
   8    -83.7143575 -0.323176E-08  0.117E-04    0.07     131.8  T
   9    -83.7143575 -0.158443E-08  0.522E-06    0.07    2954.2  T
     SCC iter.                  ...        0 min,  0.031 sec
     gradient                   ...        0 min,  0.056 sec
 * total energy  :   -82.9454713 Eh     change       -0.2059618E-03 Eh
   gradient norm :     0.0057597 Eh/α   predicted    -0.1563438E-03 ( -24.09%)
   displ. norm   :     0.2096269 α      lambda       -0.1585550E-03
   maximum displ.:     0.1097330 α      in ANC's #5, #8, #4, ...

........................................................................
.............................. CYCLE    8 ..............................
........................................................................
   1    -83.7154619 -0.837155E+02  0.398E-02    0.07       0.0  T
   2    -83.6981205  0.173414E-01  0.396E-01    0.16       1.0  T
   3    -83.7154752 -0.173547E-01  0.391E-02    0.08       1.0  T
   4    -83.7155988 -0.123633E-03  0.213E-02    0.07       1.0  T
   5    -83.7156358 -0.369839E-04  0.119E-02    0.07       1.3  T
   6    -83.7156520 -0.161893E-04  0.140E-03    0.07      11.0  T
   7    -83.7156522 -0.212799E-06  0.268E-04    0.07      57.6  T
   8    -83.7156522 -0.572501E-08  0.145E-04    0.07     106.4  T
   9    -83.7156522 -0.225326E-08  0.421E-05    0.07     366.3  T
     SCC iter.                  ...        0 min,  0.046 sec
     gradient                   ...        0 min,  0.059 sec
 * total energy  :   -82.9455799 Eh     change       -0.1086553E-03 Eh
   gradient norm :     0.0038754 Eh/α   predicted    -0.8279059E-04 ( -23.80%)
   displ. norm   :     0.1320274 α      lambda       -0.7193548E-04
   maximum displ.:     0.0700992 α      in ANC's #5, #4, #8, ...

........................................................................
.............................. CYCLE    9 ..............................
........................................................................
   1    -83.7160406 -0.837160E+02  0.269E-02    0.07       0.0  T
   2    -83.7049282  0.111124E-01  0.315E-01    0.13       1.0  T
   3    -83.7160880 -0.111598E-01  0.184E-02    0.07       1.0  T
   4    -83.7161254 -0.374223E-04  0.277E-03    0.07       5.6  T
   5    -83.7161250  0.383858E-06  0.338E-03    0.07       4.6  T
   6    -83.7161261 -0.109736E-05  0.118E-03    0.07      13.0  T
   7    -83.7161263 -0.160161E-06  0.161E-04    0.07      95.6  T
   8    -83.7161263 -0.300659E-08  0.980E-06    0.07    1575.0  T
     SCC iter.                  ...        0 min,  0.040 sec
     gradient                   ...        0 min,  0.057 sec
 * total energy  :   -82.9456320 Eh     change       -0.5212627E-04 Eh
   gradient norm :     0.0027632 Eh/α   predicted    -0.3659873E-04 ( -29.79%)
   displ. norm   :     0.1203512 α      lambda       -0.5299682E-04
   maximum displ.:     0.0672608 α      in ANC's #4, #5, #8, ...

........................................................................
.............................. CYCLE   10 ..............................
........................................................................
   1    -83.7160782 -0.837161E+02  0.178E-02    0.07       0.0  T
   2    -83.7100707  0.600750E-02  0.231E-01    0.11       1.0  T
   3    -83.7161083 -0.603766E-02  0.784E-03    0.07       2.0  T
   4    -83.7161138 -0.551767E-05  0.294E-03    0.07       5.2  T
   5    -83.7161147 -0.814774E-06  0.814E-04    0.07      18.9  T
   6    -83.7161147 -0.260366E-07  0.425E-04    0.07      36.3  T
   7    -83.7161147 -0.177002E-07  0.172E-04    0.07      89.7  T
   8    -83.7161147 -0.309845E-08  0.536E-05    0.07     287.8  T
     SCC iter.                  ...        0 min,  0.041 sec
     gradient                   ...        0 min,  0.059 sec
 * total energy  :   -82.9456722 Eh     change       -0.4019303E-04 Eh
   gradient norm :     0.0025731 Eh/α   predicted    -0.2688337E-04 ( -33.11%)
   displ. norm   :     0.1425378 α      lambda       -0.5270500E-04
   maximum displ.:     0.0842746 α      in ANC's #4, #5, #8, ...

........................................................................
.............................. CYCLE   11 ..............................
........................................................................
   1    -83.7158178 -0.837158E+02  0.789E-03    0.07       0.0  T
   2    -83.7146060  0.121187E-02  0.103E-01    0.09       1.0  T
   3    -83.7158241 -0.121811E-02  0.219E-03    0.07       7.1  T
   4    -83.7158233  0.739234E-06  0.315E-03    0.07       4.9  T
   5    -83.7158243 -0.100432E-05  0.572E-04    0.07      27.0  T
   6    -83.7158243 -0.159523E-07  0.510E-05    0.07     302.6  T
   7    -83.7158243  0.157570E-09  0.483E-05    0.07     319.5  T
     SCC iter.                  ...        0 min,  0.035 sec
     gradient                   ...        0 min,  0.058 sec
 * total energy  :   -82.9457137 Eh     change       -0.4146530E-04 Eh
   gradient norm :     0.0030589 Eh/α   predicted    -0.2689016E-04 ( -35.15%)
   displ. norm   :     0.1840736 α      lambda       -0.6055967E-04
   maximum displ.:     0.1127910 α      in ANC's #4, #1, #5, ...

........................................................................
.............................. CYCLE   12 ..............................
........................................................................
   1    -83.7154506 -0.837155E+02  0.538E-03    0.07       0.0  T
   2    -83.7147992  0.651351E-03  0.752E-02    0.06       1.0  T
   3    -83.7154533 -0.654046E-03  0.215E-03    0.07       7.2  T
   4    -83.7154535 -0.276516E-06  0.101E-03    0.07      15.3  T
   5    -83.7154536 -0.472902E-07  0.462E-04    0.07      33.4  T
   6    -83.7154536 -0.535576E-08  0.219E-04    0.07      70.4  T
   7    -83.7154536 -0.480030E-08  0.630E-05    0.07     245.0  T
   8    -83.7154536 -0.426027E-09  0.709E-06    0.07    2176.5  T
     SCC iter.                  ...        0 min,  0.041 sec
     gradient                   ...        0 min,  0.061 sec
 * total energy  :   -82.9457627 Eh     change       -0.4899025E-04 Eh
   gradient norm :     0.0037421 Eh/α   predicted    -0.3130645E-04 ( -36.10%)
   displ. norm   :     0.2296518 α      lambda       -0.7169349E-04
   maximum displ.:     0.1443961 α      in ANC's #4, #1, #5, ...

........................................................................
.............................. CYCLE   13 ..............................
........................................................................
   1    -83.7151087 -0.837151E+02  0.179E-02    0.08       0.0  T
   2    -83.7015526  0.135561E-01  0.342E-01    0.05       1.0  T
   3    -83.7151435 -0.135909E-01  0.605E-03    0.07       2.6  T
   4    -83.7151463 -0.282857E-05  0.320E-03    0.07       4.8  T
   5    -83.7151470 -0.711510E-06  0.180E-03    0.07       8.6  T
   6    -83.7151474 -0.339553E-06  0.187E-04    0.07      82.4  T
   7    -83.7151474 -0.315454E-08  0.658E-05    0.07     234.7  T
     SCC iter.                  ...        0 min,  0.037 sec
     gradient                   ...        0 min,  0.062 sec
 * total energy  :   -82.9458226 Eh     change       -0.5987527E-04 Eh
   gradient norm :     0.0041570 Eh/α   predicted    -0.3774094E-04 ( -36.97%)
   displ. norm   :     0.2813843 α      lambda       -0.8736979E-04
   maximum displ.:     0.1819579 α      in ANC's #4, #1, #5, ...

........................................................................
.............................. CYCLE   14 ..............................
........................................................................
   1    -83.7149530 -0.837150E+02  0.275E-02    0.08       0.0  T
   2    -83.6802416  0.347114E-01  0.547E-01    0.04       1.0  T
   3    -83.7150394 -0.347978E-01  0.707E-03    0.08       2.2  T
   4    -83.7150382  0.120514E-05  0.751E-03    0.08       2.1  T
   5    -83.7150427 -0.454779E-05  0.379E-03    0.08       4.1  T
   6    -83.7150443 -0.153984E-05  0.475E-04    0.08      32.5  T
   7    -83.7150443 -0.247497E-07  0.368E-05    0.08     419.5  T
   8    -83.7150443  0.115392E-10  0.300E-05    0.08     514.0  T
     SCC iter.                  ...        0 min,  0.049 sec
     gradient                   ...        0 min,  0.064 sec
 * total energy  :   -82.9458930 Eh     change       -0.7040136E-04 Eh
   gradient norm :     0.0041717 Eh/α   predicted    -0.4714793E-04 ( -33.03%)
   displ. norm   :     0.2468426 α      lambda       -0.7626510E-04
   maximum displ.:     0.1645083 α      in ANC's #4, #1, #5, ...

........................................................................
.............................. CYCLE   15 ..............................
........................................................................
   1    -83.7155436 -0.837155E+02  0.246E-02    0.08       0.0  T
   2    -83.6891550  0.263887E-01  0.477E-01    0.05       1.0  T
   3    -83.7156127 -0.264577E-01  0.639E-03    0.08       2.4  T
   4    -83.7156095  0.322971E-05  0.802E-03    0.08       1.9  T
   5    -83.7156148 -0.526487E-05  0.398E-03    0.08       3.9  T
   6    -83.7156164 -0.169498E-05  0.457E-04    0.08      33.8  T
   7    -83.7156165 -0.230346E-07  0.258E-05    0.08     597.8  T
   8    -83.7156165 -0.372324E-11  0.222E-05    0.08     694.6  T
     SCC iter.                  ...        0 min,  0.048 sec
     gradient                   ...        0 min,  0.063 sec
 * total energy  :   -82.9459555 Eh     change       -0.6252318E-04 Eh
   gradient norm :     0.0034296 Eh/α   predicted    -0.4045642E-04 ( -35.29%)
   displ. norm   :     0.2535825 α      lambda       -0.7436689E-04
   maximum displ.:     0.1725667 α      in ANC's #4, #1, #5, ...

........................................................................
.............................. CYCLE   16 ..............................
........................................................................
   1    -83.7160180 -0.837160E+02  0.170E-02    0.08       0.0  T
   2    -83.7050032  0.110148E-01  0.309E-01    0.06       1.0  T
   3    -83.7160493 -0.110461E-01  0.578E-03    0.08       2.7  T
   4    -83.7160478  0.153544E-05  0.653E-03    0.08       2.4  T
   5    -83.7160515 -0.374155E-05  0.283E-03    0.08       5.5  T
   6    -83.7160524 -0.850231E-06  0.103E-04    0.08     150.0  T
   7    -83.7160524 -0.668734E-09  0.441E-05    0.08     350.1  T
     SCC iter.                  ...        0 min,  0.042 sec
     gradient                   ...        0 min,  0.063 sec
 * total energy  :   -82.9460162 Eh     change       -0.6068309E-04 Eh
   gradient norm :     0.0026600 Eh/α   predicted    -0.3957928E-04 ( -34.78%)
   displ. norm   :     0.2442633 α      lambda       -0.6480951E-04
   maximum displ.:     0.1677741 α      in ANC's #4, #1, #5, ...

........................................................................
.............................. CYCLE   17 ..............................
........................................................................
   1    -83.7168533 -0.837169E+02  0.545E-03    0.08       0.0  T
   2    -83.7163801  0.473163E-03  0.643E-02    0.08       1.0  T
   3    -83.7168555 -0.475322E-03  0.192E-03    0.08       8.0  T
   4    -83.7168551  0.322322E-06  0.214E-03    0.08       7.2  T
   5    -83.7168556 -0.424648E-06  0.409E-04    0.08      37.7  T
   6    -83.7168556 -0.363318E-08  0.188E-04    0.08      82.0  T
   7    -83.7168556 -0.360642E-08  0.305E-05    0.08     505.1  T
     SCC iter.                  ...        0 min,  0.037 sec
     gradient                   ...        0 min,  0.056 sec
 * total energy  :   -82.9460676 Eh     change       -0.5146953E-04 Eh
   gradient norm :     0.0028886 Eh/α   predicted    -0.3433992E-04 ( -33.28%)
   displ. norm   :     0.2550644 α      lambda       -0.5840562E-04
   maximum displ.:     0.1753050 α      in ANC's #4, #1, #5, ...

........................................................................
.............................. CYCLE   18 ..............................
........................................................................
   1    -83.7163769 -0.837164E+02  0.863E-03    0.08       0.0  T
   2    -83.7149909  0.138607E-02  0.110E-01    0.10       1.0  T
   3    -83.7163845 -0.139360E-02  0.146E-03    0.08      10.6  T
   4    -83.7163845 -0.122358E-07  0.976E-04    0.08      15.8  T
   5    -83.7163845 -0.273089E-07  0.394E-04    0.08      39.2  T
   6    -83.7163845 -0.118500E-07  0.758E-05    0.08     203.7  T
   7    -83.7163845 -0.174794E-09  0.491E-05    0.08     314.6  T
     SCC iter.                  ...        0 min,  0.042 sec
     gradient                   ...        0 min,  0.065 sec
 * total energy  :   -82.9461134 Eh     change       -0.4577104E-04 Eh
   gradient norm :     0.0028542 Eh/α   predicted    -0.3110339E-04 ( -32.05%)
   displ. norm   :     0.2356309 α      lambda       -0.5536521E-04
   maximum displ.:     0.1630024 α      in ANC's #4, #1, #5, ...

........................................................................
.............................. CYCLE   19 ..............................
........................................................................
   1    -83.7170738 -0.837171E+02  0.153E-02    0.08       0.0  T
   2    -83.7128589  0.421487E-02  0.193E-01    0.11       1.0  T
   3    -83.7170953 -0.423638E-02  0.717E-03    0.09       2.2  T
   4    -83.7171003 -0.495121E-05  0.208E-03    0.09       7.4  T
   5    -83.7171006 -0.307066E-06  0.890E-04    0.09      17.3  T
   6    -83.7171006 -0.621520E-07  0.333E-04    0.09      46.4  T
   7    -83.7171006 -0.117482E-07  0.295E-05    0.09     522.7  T
   8    -83.7171006 -0.160014E-10  0.249E-05    0.09     620.1  T
     SCC iter.                  ...        0 min,  0.042 sec
     gradient                   ...        0 min,  0.057 sec
 * total energy  :   -82.9461575 Eh     change       -0.4411922E-04 Eh
   gradient norm :     0.0031150 Eh/α   predicted    -0.2922131E-04 ( -33.77%)
   displ. norm   :     0.2589715 α      lambda       -0.5469483E-04
   maximum displ.:     0.1791939 α      in ANC's #4, #1, #5, ...

........................................................................
.............................. CYCLE   20 ..............................
........................................................................
   1    -83.7169558 -0.837170E+02  0.177E-02    0.09       0.0  T
   2    -83.7115986  0.535717E-02  0.218E-01    0.12       1.0  T
   3    -83.7169843 -0.538565E-02  0.876E-03    0.09       1.8  T
   4    -83.7169919 -0.765135E-05  0.236E-03    0.09       6.5  T
   5    -83.7169923 -0.375601E-06  0.126E-03    0.09      12.2  T
   6    -83.7169924 -0.133493E-06  0.414E-04    0.09      37.3  T
   7    -83.7169925 -0.183534E-07  0.724E-05    0.09     213.3  T
   8    -83.7169925 -0.276899E-09  0.550E-05    0.09     280.4  T
     SCC iter.                  ...        0 min,  0.039 sec
     gradient                   ...        0 min,  0.052 sec
 * total energy  :   -82.9462030 Eh     change       -0.4542878E-04 Eh
   gradient norm :     0.0028449 Eh/α   predicted    -0.2918262E-04 ( -35.76%)
   displ. norm   :     0.2690795 α      lambda       -0.5791667E-04
   maximum displ.:     0.1861789 α      in ANC's #4, #1, #5, ...
 * RMSD in coord.:     0.5596811 α      energy gain  -0.1706363E-01 Eh

generating ANC from model Hessian ...
Using Lindh-Hessian (1995)
 Shifting diagonal of input Hessian by   9.830224797282268E-003
 Lowest  eigenvalues of input Hessian
    0.000000    0.000000    0.000000    0.000000    0.000000    0.000000
    0.010000    0.010226    0.010535    0.010597    0.011910    0.012200
    0.013246    0.013452    0.014489    0.015588    0.016711    0.018338
 Highest eigenvalues
    2.026919    2.102231    2.236550    2.372394    2.381158    2.400045
 

........................................................................
.............................. CYCLE   21 ..............................
........................................................................
   1    -83.7171582 -0.837172E+02  0.102E-02    0.09       0.0  T
   2    -83.7151374  0.202081E-02  0.134E-01    0.11       1.0  T
   3    -83.7171691 -0.203168E-02  0.326E-03    0.09       4.7  T
   4    -83.7171694 -0.349898E-06  0.241E-03    0.09       6.4  T
   5    -83.7171700 -0.571482E-06  0.515E-04    0.09      30.0  T
   6    -83.7171700 -0.868445E-08  0.291E-04    0.09      53.0  T
   7    -83.7171700 -0.897177E-08  0.361E-05    0.09     427.0  T
   8    -83.7171700 -0.932516E-10  0.195E-05    0.09     791.5  T
     SCC iter.                  ...        0 min,  0.038 sec
     gradient                   ...        0 min,  0.051 sec
 * total energy  :   -82.9462498 Eh     change       -0.4681259E-04 Eh
   gradient norm :     0.0024900 Eh/α   predicted     0.0000000E+00 (-100.00%)
   displ. norm   :     0.0271615 α      lambda       -0.1705158E-04
   maximum displ.:     0.0113534 α      in ANC's #13, #3, #1, ...

........................................................................
.............................. CYCLE   22 ..............................
........................................................................
   1    -83.7169784 -0.837170E+02  0.154E-02    0.09       0.0  T
   2    -83.7083499  0.862848E-02  0.274E-01    0.07       1.0  T
   3    -83.7170040 -0.865413E-02  0.579E-03    0.09       2.7  T
   4    -83.7170049 -0.873821E-06  0.488E-03    0.09       3.2  T
   5    -83.7170072 -0.228055E-05  0.165E-03    0.09       9.3  T
   6    -83.7170075 -0.289673E-06  0.967E-05    0.09     159.6  T
   7    -83.7170075 -0.981260E-09  0.787E-06    0.09    1961.6  T
     SCC iter.                  ...        0 min,  0.033 sec
     gradient                   ...        0 min,  0.052 sec
 * total energy  :   -82.9462666 Eh     change       -0.1687651E-04 Eh
   gradient norm :     0.0013723 Eh/α   predicted    -0.9847798E-05 ( -41.65%)
   displ. norm   :     0.1716989 α      lambda       -0.5675453E-04
   maximum displ.:     0.0765932 α      in ANC's #3, #13, #1, ...

........................................................................
.............................. CYCLE   23 ..............................
........................................................................
   1    -83.7157879 -0.837158E+02  0.692E-02    0.10       0.0  T
   2    -83.5443671  0.171421E+00  0.121E+00    0.12       1.0  T
   3    -83.7163412 -0.171974E+00  0.176E-02    0.09       1.0  T
   4    -83.7163204  0.208349E-04  0.216E-02    0.09       1.0  T
   5    -83.7163663 -0.459245E-04  0.670E-03    0.09       2.3  T
   6    -83.7163711 -0.476769E-05  0.690E-04    0.09      22.3  T
   7    -83.7163712 -0.464344E-07  0.977E-05    0.09     157.9  T
   8    -83.7163712 -0.524125E-09  0.523E-05    0.09     294.9  T
     SCC iter.                  ...        0 min,  0.039 sec
     gradient                   ...        0 min,  0.052 sec
 * total energy  :   -82.9463025 Eh     change       -0.3587044E-04 Eh
   gradient norm :     0.0039400 Eh/α   predicted    -0.2875180E-04 ( -19.85%)
   displ. norm   :     0.0243769 α      lambda       -0.1662763E-04
   maximum displ.:     0.0126219 α      in ANC's #3, #1, #16, ...

........................................................................
.............................. CYCLE   24 ..............................
........................................................................
   1    -83.7167224 -0.837167E+02  0.459E-03    0.09       0.0  T
   2    -83.7162053  0.517051E-03  0.675E-02    0.10       1.0  T
   3    -83.7167221 -0.516784E-03  0.526E-03    0.09       2.9  T
   4    -83.7167243 -0.217181E-05  0.269E-03    0.09       5.7  T
   5    -83.7167250 -0.735262E-06  0.417E-04    0.09      37.0  T
   6    -83.7167250 -0.130640E-07  0.138E-04    0.09     112.2  T
   7    -83.7167250 -0.210386E-08  0.793E-06    0.09    1945.8  T
     SCC iter.                  ...        0 min,  0.033 sec
     gradient                   ...        0 min,  0.050 sec
 * total energy  :   -82.9463167 Eh     change       -0.1414961E-04 Eh
   gradient norm :     0.0027001 Eh/α   predicted    -0.8319900E-05 ( -41.20%)
   displ. norm   :     0.1023704 α      lambda       -0.4210055E-04
   maximum displ.:     0.0529674 α      in ANC's #3, #1, #16, ...

........................................................................
.............................. CYCLE   25 ..............................
........................................................................
   1    -83.7173674 -0.837174E+02  0.165E-02    0.09       0.0  T
   2    -83.7124160  0.495146E-02  0.210E-01    0.12       1.0  T
   3    -83.7173711 -0.495518E-02  0.168E-02    0.09       1.0  T
   4    -83.7173980 -0.268360E-04  0.570E-03    0.09       2.7  T
   5    -83.7174008 -0.279222E-05  0.208E-03    0.09       7.4  T
   6    -83.7174011 -0.366458E-06  0.652E-04    0.09      23.7  T
   7    -83.7174012 -0.469954E-07  0.123E-04    0.09     125.8  T
   8    -83.7174012 -0.166877E-08  0.301E-05    0.09     512.7  T
     SCC iter.                  ...        0 min,  0.038 sec
     gradient                   ...        0 min,  0.051 sec
 * total energy  :   -82.9463432 Eh     change       -0.2650261E-04 Eh
   gradient norm :     0.0013810 Eh/α   predicted    -0.2127103E-04 ( -19.74%)
   displ. norm   :     0.1336063 α      lambda       -0.1442038E-04
   maximum displ.:     0.0683382 α      in ANC's #3, #1, #16, ...

........................................................................
.............................. CYCLE   26 ..............................
........................................................................
   1    -83.7172492 -0.837172E+02  0.818E-03    0.09       0.0  T
   2    -83.7158252  0.142406E-02  0.112E-01    0.10       1.0  T
   3    -83.7172559 -0.143074E-02  0.348E-03    0.09       4.4  T
   4    -83.7172562 -0.250877E-06  0.293E-03    0.09       5.3  T
   5    -83.7172571 -0.882802E-06  0.438E-04    0.09      35.2  T
   6    -83.7172571 -0.132667E-07  0.694E-05    0.09     222.5  T
   7    -83.7172571 -0.484619E-09  0.101E-05    0.09    1527.8  T
     SCC iter.                  ...        0 min,  0.035 sec
     gradient                   ...        0 min,  0.055 sec
 * total energy  :   -82.9463581 Eh     change       -0.1496953E-04 Eh
   gradient norm :     0.0019322 Eh/α   predicted    -0.7273102E-05 ( -51.41%)
   displ. norm   :     0.1072357 α      lambda       -0.1144431E-04
   maximum displ.:     0.0556813 α      in ANC's #3, #1, #2, ...

........................................................................
.............................. CYCLE   27 ..............................
........................................................................
   1    -83.7170937 -0.837171E+02  0.667E-03    0.09       0.0  T
   2    -83.7161995  0.894131E-03  0.886E-02    0.10       1.0  T
   3    -83.7170974 -0.897852E-03  0.299E-03    0.09       5.2  T
   4    -83.7170983 -0.892896E-06  0.794E-04    0.09      19.4  T
   5    -83.7170983 -0.377664E-07  0.415E-04    0.09      37.2  T
   6    -83.7170983 -0.127417E-07  0.183E-04    0.09      84.3  T
   7    -83.7170983 -0.358479E-08  0.391E-05    0.09     394.9  T
     SCC iter.                  ...        0 min,  0.032 sec
     gradient                   ...        0 min,  0.054 sec
 * total energy  :   -82.9463707 Eh     change       -0.1252732E-04 Eh
   gradient norm :     0.0010032 Eh/α   predicted    -0.5755431E-05 ( -54.06%)
   displ. norm   :     0.0924675 α      lambda       -0.8050027E-05
   maximum displ.:     0.0503282 α      in ANC's #1, #3, #2, ...

........................................................................
.............................. CYCLE   28 ..............................
........................................................................
   1    -83.7170879 -0.837171E+02  0.376E-03    0.09       0.0  T
   2    -83.7168187  0.269181E-03  0.485E-02    0.09       1.0  T
   3    -83.7170880 -0.269299E-03  0.348E-03    0.09       4.4  T
   4    -83.7170889 -0.847785E-06  0.198E-03    0.09       7.8  T
   5    -83.7170893 -0.398592E-06  0.340E-04    0.09      45.4  T
   6    -83.7170893 -0.831088E-08  0.118E-04    0.09     130.3  T
   7    -83.7170893 -0.149950E-08  0.137E-05    0.09    1126.5  T
     SCC iter.                  ...        0 min,  0.033 sec
     gradient                   ...        0 min,  0.054 sec
 * total energy  :   -82.9463799 Eh     change       -0.9214970E-05 Eh
   gradient norm :     0.0007842 Eh/α   predicted    -0.4049510E-05 ( -56.06%)
   displ. norm   :     0.0930103 α      lambda       -0.7514883E-05
   maximum displ.:     0.0528962 α      in ANC's #1, #2, #3, ...

........................................................................
.............................. CYCLE   29 ..............................
........................................................................
   1    -83.7171961 -0.837172E+02  0.222E-03    0.09       0.0  T
   2    -83.7170768  0.119362E-03  0.324E-02    0.09       1.0  T
   3    -83.7171964 -0.119659E-03  0.169E-03    0.09       9.1  T
   4    -83.7171965 -0.289465E-07  0.151E-03    0.09      10.2  T
   5    -83.7171967 -0.234159E-06  0.271E-04    0.09      57.0  T
   6    -83.7171967 -0.622222E-08  0.502E-05    0.09     307.6  T
   7    -83.7171967 -0.246089E-09  0.641E-06    0.09    2405.4  T
     SCC iter.                  ...        0 min,  0.033 sec
     gradient                   ...        0 min,  0.055 sec
 * total energy  :   -82.9463888 Eh     change       -0.8942157E-05 Eh
   gradient norm :     0.0008845 Eh/α   predicted    -0.3773246E-05 ( -57.80%)
   displ. norm   :     0.1145698 α      lambda       -0.8526481E-05
   maximum displ.:     0.0659436 α      in ANC's #1, #2, #3, ...

........................................................................
.............................. CYCLE   30 ..............................
........................................................................
   1    -83.7171338 -0.837171E+02  0.124E-02    0.09       0.0  T
   2    -83.7120299  0.510390E-02  0.211E-01    0.07       1.0  T
   3    -83.7171515 -0.512160E-02  0.247E-03    0.09       6.2  T
   4    -83.7171514  0.986268E-07  0.254E-03    0.09       6.1  T
   5    -83.7171520 -0.600635E-06  0.958E-04    0.09      16.1  T
   6    -83.7171521 -0.958835E-07  0.299E-05    0.09     516.3  T
   7    -83.7171521 -0.537597E-10  0.100E-05    0.09    1536.6  T
     SCC iter.                  ...        0 min,  0.034 sec
     gradient                   ...        0 min,  0.055 sec
 * total energy  :   -82.9463991 Eh     change       -0.1028677E-04 Eh
   gradient norm :     0.0009504 Eh/α   predicted    -0.4292317E-05 ( -58.27%)
   displ. norm   :     0.1463301 α      lambda       -0.9931392E-05
   maximum displ.:     0.0838431 α      in ANC's #1, #2, #3, ...

........................................................................
.............................. CYCLE   31 ..............................
........................................................................
   1    -83.7172087 -0.837172E+02  0.141E-02    0.09       0.0  T
   2    -83.7105429  0.666586E-02  0.241E-01    0.07       1.0  T
   3    -83.7172321 -0.668928E-02  0.391E-04    0.09      39.5  T
   4    -83.7172321  0.173102E-07  0.472E-04    0.09      32.7  T
   5    -83.7172321 -0.105528E-07  0.284E-04    0.09      54.4  T
   6    -83.7172321 -0.806556E-08  0.439E-05    0.09     351.7  T
   7    -83.7172321 -0.180833E-09  0.689E-06    0.09    2239.9  T
     SCC iter.                  ...        0 min,  0.034 sec
     gradient                   ...        0 min,  0.055 sec
 * total energy  :   -82.9464113 Eh     change       -0.1223951E-04 Eh
   gradient norm :     0.0008822 Eh/α   predicted    -0.5016416E-05 ( -59.01%)
   displ. norm   :     0.1958388 α      lambda       -0.1246032E-04
   maximum displ.:     0.1116237 α      in ANC's #1, #2, #3, ...

........................................................................
.............................. CYCLE   32 ..............................
........................................................................
   1    -83.7170915 -0.837171E+02  0.165E-02    0.09       0.0  T
   2    -83.7077438  0.934767E-02  0.285E-01    0.07       1.0  T
   3    -83.7171234 -0.937962E-02  0.657E-04    0.09      23.5  T
   4    -83.7171234  0.684093E-08  0.605E-04    0.09      25.5  T
   5    -83.7171234 -0.331738E-09  0.542E-04    0.09      28.5  T
   6    -83.7171235 -0.296796E-07  0.108E-04    0.09     143.4  T
   7    -83.7171235 -0.126285E-08  0.706E-06    0.09    2184.7  T
     SCC iter.                  ...        0 min,  0.033 sec
     gradient                   ...        0 min,  0.055 sec
 * total energy  :   -82.9464265 Eh     change       -0.1517569E-04 Eh
   gradient norm :     0.0009259 Eh/α   predicted    -0.6337648E-05 ( -58.24%)
   displ. norm   :     0.2442213 α      lambda       -0.1436846E-04
   maximum displ.:     0.1383497 α      in ANC's #1, #2, #3, ...

........................................................................
.............................. CYCLE   33 ..............................
........................................................................
   1    -83.7170354 -0.837170E+02  0.101E-02    0.09       0.0  T
   2    -83.7139882  0.304714E-02  0.163E-01    0.08       1.0  T
   3    -83.7170471 -0.305889E-02  0.656E-04    0.09      23.5  T
   4    -83.7170471  0.645429E-07  0.897E-04    0.09      17.2  T
   5    -83.7170471 -0.814090E-07  0.172E-04    0.09      89.6  T
   6    -83.7170471  0.347640E-09  0.105E-04    0.09     146.6  T
     SCC iter.                  ...        0 min,  0.031 sec
     gradient                   ...        0 min,  0.056 sec
 * total energy  :   -82.9464438 Eh     change       -0.1724674E-04 Eh
   gradient norm :     0.0009641 Eh/α   predicted    -0.7379002E-05 ( -57.22%)
   displ. norm   :     0.2552418 α      lambda       -0.1371802E-04
   maximum displ.:     0.1442606 α      in ANC's #1, #2, #3, ...

........................................................................
.............................. CYCLE   34 ..............................
........................................................................
   1    -83.7170043 -0.837170E+02  0.199E-03    0.09       0.0  T
   2    -83.7169431  0.611587E-04  0.231E-02    0.09       1.0  T
   3    -83.7170045 -0.614262E-04  0.103E-03    0.09      15.0  T
   4    -83.7170046 -0.460484E-07  0.722E-04    0.09      21.4  T
   5    -83.7170046 -0.505499E-07  0.111E-04    0.09     138.8  T
   6    -83.7170046  0.346327E-08  0.179E-04    0.09      86.1  T
     SCC iter.                  ...        0 min,  0.031 sec
     gradient                   ...        0 min,  0.059 sec
 * total energy  :   -82.9464601 Eh     change       -0.1635896E-04 Eh
   gradient norm :     0.0009802 Eh/α   predicted    -0.7059138E-05 ( -56.85%)
   displ. norm   :     0.2163991 α      lambda       -0.1080406E-04
   maximum displ.:     0.1221433 α      in ANC's #1, #2, #4, ...

........................................................................
.............................. CYCLE   35 ..............................
........................................................................
   1    -83.7171852 -0.837172E+02  0.574E-03    0.09       0.0  T
   2    -83.7165392  0.646013E-03  0.754E-02    0.10       1.0  T
   3    -83.7171883 -0.649168E-03  0.176E-03    0.09       8.7  T
   4    -83.7171886 -0.312341E-06  0.515E-04    0.09      30.0  T
   5    -83.7171887 -0.159829E-07  0.260E-04    0.09      59.2  T
   6    -83.7171887 -0.425695E-08  0.142E-04    0.09     108.9  T
   7    -83.7171887 -0.210763E-08  0.365E-05    0.09     422.2  T
     SCC iter.                  ...        0 min,  0.037 sec
     gradient                   ...        0 min,  0.058 sec
 * total energy  :   -82.9464722 Eh     change       -0.1212014E-04 Eh
   gradient norm :     0.0008180 Eh/α   predicted    -0.5515487E-05 ( -54.49%)
   displ. norm   :     0.1171124 α      lambda       -0.6371805E-05
   maximum displ.:     0.0698861 α      in ANC's #2, #1, #4, ...

........................................................................
.............................. CYCLE   36 ..............................
........................................................................
   1    -83.7174715 -0.837175E+02  0.432E-03    0.09       0.0  T
   2    -83.7171255  0.346046E-03  0.551E-02    0.10       1.0  T
   3    -83.7174719 -0.346440E-03  0.361E-03    0.09       4.3  T
   4    -83.7174733 -0.138979E-05  0.685E-04    0.09      22.5  T
   5    -83.7174733 -0.299308E-07  0.324E-04    0.09      47.6  T
   6    -83.7174733 -0.888070E-08  0.115E-04    0.09     134.3  T
   7    -83.7174734 -0.142900E-08  0.210E-05    0.09     736.2  T
     SCC iter.                  ...        0 min,  0.038 sec
     gradient                   ...        0 min,  0.058 sec
 * total energy  :   -82.9464801 Eh     change       -0.7817393E-05 Eh
   gradient norm :     0.0005220 Eh/α   predicted    -0.3209102E-05 ( -58.95%)
   displ. norm   :     0.1049324 α      lambda       -0.6657567E-05
   maximum displ.:     0.0653168 α      in ANC's #2, #1, #4, ...

........................................................................
.............................. CYCLE   37 ..............................
........................................................................
   1    -83.7176057 -0.837176E+02  0.531E-03    0.09       0.0  T
   2    -83.7170657  0.539971E-03  0.689E-02    0.10       1.0  T
   3    -83.7176078 -0.542082E-03  0.276E-03    0.09       5.6  T
   4    -83.7176086 -0.754778E-06  0.809E-04    0.09      19.1  T
   5    -83.7176086 -0.476729E-07  0.386E-04    0.09      40.0  T
   6    -83.7176086 -0.138869E-07  0.811E-05    0.09     190.2  T
   7    -83.7176086 -0.640426E-09  0.240E-05    0.09     642.6  T
     SCC iter.                  ...        0 min,  0.037 sec
     gradient                   ...        0 min,  0.058 sec
 * total energy  :   -82.9464883 Eh     change       -0.8269900E-05 Eh
   gradient norm :     0.0005097 Eh/α   predicted    -0.3349332E-05 ( -59.50%)
   displ. norm   :     0.1187303 α      lambda       -0.7539037E-05
   maximum displ.:     0.0748490 α      in ANC's #2, #4, #1, ...

........................................................................
.............................. CYCLE   38 ..............................
........................................................................
   1    -83.7175797 -0.837176E+02  0.261E-03    0.09       0.0  T
   2    -83.7174735  0.106252E-03  0.305E-02    0.10       1.0  T
   3    -83.7175791 -0.105626E-03  0.333E-03    0.09       4.6  T
   4    -83.7175803 -0.115489E-05  0.792E-04    0.09      19.5  T
   5    -83.7175803 -0.535323E-07  0.266E-04    0.09      58.0  T
   6    -83.7175803 -0.572554E-08  0.850E-05    0.09     181.6  T
   7    -83.7175803 -0.757765E-09  0.151E-05    0.09    1024.8  T
     SCC iter.                  ...        0 min,  0.037 sec
     gradient                   ...        0 min,  0.057 sec
 * total energy  :   -82.9464975 Eh     change       -0.9119122E-05 Eh
   gradient norm :     0.0007310 Eh/α   predicted    -0.3794140E-05 ( -58.39%)
   displ. norm   :     0.1359026 α      lambda       -0.7884564E-05
   maximum displ.:     0.0856909 α      in ANC's #2, #4, #1, ...

........................................................................
.............................. CYCLE   39 ..............................
........................................................................
   1    -83.7175692 -0.837176E+02  0.119E-03    0.09       0.0  T
   2    -83.7175674  0.177534E-05  0.406E-03    0.09       3.8  T
   3    -83.7175682 -0.775917E-06  0.309E-03    0.09       5.0  T
   4    -83.7175693 -0.106919E-05  0.419E-04    0.09      36.9  T
   5    -83.7175693 -0.977948E-08  0.174E-04    0.09      88.4  T
   6    -83.7175693 -0.278612E-08  0.224E-05    0.09     688.6  T
     SCC iter.                  ...        0 min,  0.034 sec
     gradient                   ...        0 min,  0.067 sec
 * total energy  :   -82.9465069 Eh     change       -0.9457847E-05 Eh
   gradient norm :     0.0008897 Eh/α   predicted    -0.3977566E-05 ( -57.94%)
   displ. norm   :     0.1454364 α      lambda       -0.7542839E-05
   maximum displ.:     0.0923890 α      in ANC's #2, #1, #4, ...

........................................................................
.............................. CYCLE   40 ..............................
........................................................................
   1    -83.7174480 -0.837174E+02  0.740E-03    0.10       0.0  T
   2    -83.7159008  0.154712E-02  0.116E-01    0.08       1.0  T
   3    -83.7174543 -0.155343E-02  0.102E-03    0.09      15.1  T
   4    -83.7174544 -0.879524E-07  0.374E-04    0.09      41.3  T
   5    -83.7174544  0.691841E-09  0.297E-04    0.09      51.9  T
   6    -83.7174544 -0.948853E-08  0.149E-05    0.09    1033.4  T
   7    -83.7174544 -0.204636E-11  0.513E-06    0.09    3005.0  T
     SCC iter.                  ...        0 min,  0.037 sec
     gradient                   ...        0 min,  0.057 sec
 * total energy  :   -82.9465154 Eh     change       -0.8520164E-05 Eh
   gradient norm :     0.0008025 Eh/α   predicted    -0.3811916E-05 ( -55.26%)
   displ. norm   :     0.1164387 α      lambda       -0.5267732E-05
   maximum displ.:     0.0753506 α      in ANC's #2, #1, #4, ...

........................................................................
.............................. CYCLE   41 ..............................
........................................................................
   1    -83.7175097 -0.837175E+02  0.950E-03    0.10       0.0  T
   2    -83.7149058  0.260390E-02  0.151E-01    0.08       1.0  T
   3    -83.7175201 -0.261431E-02  0.513E-04    0.09      30.1  T
   4    -83.7175201 -0.119477E-07  0.213E-04    0.09      72.3  T
   5    -83.7175201  0.754767E-08  0.281E-04    0.09      54.9  T
   6    -83.7175201 -0.770420E-08  0.353E-05    0.09     436.7  T
   7    -83.7175201 -0.110575E-09  0.900E-06    0.09    1714.7  T
     SCC iter.                  ...        0 min,  0.035 sec
     gradient                   ...        0 min,  0.058 sec
 * total energy  :   -82.9465212 Eh     change       -0.5758709E-05 Eh
   gradient norm :     0.0005224 Eh/α   predicted    -0.2652964E-05 ( -53.93%)
   displ. norm   :     0.0762042 α      lambda       -0.2939540E-05
   maximum displ.:     0.0507259 α      in ANC's #2, #1, #9, ...

........................................................................
.............................. CYCLE   42 ..............................
........................................................................
   1    -83.7175147 -0.837175E+02  0.837E-03    0.10       0.0  T
   2    -83.7155380  0.197670E-02  0.131E-01    0.08       1.0  T
   3    -83.7175228 -0.198479E-02  0.379E-04    0.09      40.7  T
   4    -83.7175228 -0.680815E-08  0.150E-04    0.09     102.9  T
   5    -83.7175228  0.525702E-09  0.122E-04    0.09     126.8  T
     SCC iter.                  ...        0 min,  0.026 sec
     gradient                   ...        0 min,  0.057 sec
 * total energy  :   -82.9465245 Eh     change       -0.3285810E-05 Eh
   gradient norm :     0.0003237 Eh/α   predicted    -0.1475482E-05 ( -55.10%)
   displ. norm   :     0.0593963 α      lambda       -0.2051876E-05
   maximum displ.:     0.0402012 α      in ANC's #2, #1, #9, ...

   *** GEOMETRY OPTIMIZATION CONVERGED AFTER 42 ITERATIONS ***

------------------------------------------------------------------------
 total energy gain   :        -0.0173852 Eh      -10.9093 kcal/mol
 total RMSD          :         0.8242067 a0        0.4362 Å
 total power (kW/mol):        -1.0867790 (step)   -8.7777 (real)
------------------------------------------------------------------------

 ANCopt (total)                0 d,  0 h,  0 min,  5.200 sec
 optimizer setup                ...        0 min,  0.001 sec (  0.013%)
 model hessian                  ...        0 min,  0.041 sec (  0.785%)
 ANC generation                 ...        0 min,  0.006 sec (  0.108%)
 coordinate transformation      ...        0 min,  0.001 sec (  0.018%)
 single point calculation       ...        0 min,  5.137 sec ( 98.782%)
 optimization log               ...        0 min,  0.008 sec (  0.156%)
 hessian update                 ...        0 min,  0.001 sec (  0.018%)
 rational function              ...        0 min,  0.004 sec (  0.072%)

================
 final structure:
================
42
 xtb: 6.5.1 (579679a)
C           -5.35775016996565        0.06262593120900        2.65340587200126
O           -4.32800575807792        0.10623382949641        1.66668990081486
C           -4.52124418788673       -0.66323329990690        0.57705454892599
O           -5.51200786142448       -1.34976796142793        0.44306954294430
C           -3.40529136359323       -0.55509838721868       -0.38422433461699
N           -2.38255781964378        0.25672065098750       -0.01194102060073
C           -1.36456075565576        0.43884327028838       -0.79013336990178
C           -0.23566330914718        1.34653234336175       -0.36395647445523
C           -0.42513943024855        1.77208466916002        1.09246822799673
C           -0.14823760738187        2.56095987913312       -1.29688222431677
N            1.00268867077093        0.54453158287489       -0.49403295516999
C            2.20542303652513        1.01301077989685       -0.18851477921123
O            2.49739929560534        2.10705078188832        0.22749243219285
C            3.36310488516814       -0.04426028576838       -0.46983535712182
C            4.25251087855251        0.54493629011192       -1.56319302872094
N            2.82595370919164       -1.31876664360385       -0.78286164931368
N            3.15541736734783       -2.15364052049184        0.15032878582063
C            3.90927066370718       -1.50265248581040        1.04599148382268
C            4.49877314395585       -2.08564910030536        2.25980158609970
O            4.08100632668296       -0.24604722263964        0.73222303807919
N           -1.26303594863782       -0.17190594853646       -2.00874742550102
C           -2.21474893750189       -1.03497479343938       -2.52125505909618
O           -2.05287203448096       -1.53874974245925       -3.61756063365157
C           -3.41453431725699       -1.27366804200012       -1.62698753674062
O           -4.30048104850555       -2.04158112068620       -2.00300284890575
H           -5.45565493523768       -0.94951858032870        3.05542453256608
H           -6.31350720579641        0.37085294220818        2.22031856460276
H           -5.06460002724358        0.75194569775000        3.44274405260966
H           -0.43662563518244        0.89569988729805        1.73833599140449
H           -1.37586690238002        2.29396413918903        1.18987922047565
H            0.38007725449909        2.43563926137682        1.39951608221012
H            0.65556125352119        3.22077675423703       -0.97694451579439
H           -1.08920799382019        3.10788699062110       -1.26787907805935
H            0.04526469862119        2.23792423064610       -2.31776422122963
H            0.93318861583824       -0.40328333275999       -0.83752238830392
H            5.10320847077307       -0.11279563250224       -1.72519543937150
H            4.59789217965514        1.52554229432193       -1.24121860994361
H            3.67747167348531        0.63748421889501       -2.48088606321699
H            4.95482515545734       -1.30956320349249        2.86935094693080
H            5.25745984312171       -2.81747310140324        1.97585574516170
H            3.73257139660523       -2.61332829769846        2.82804788200024
H           -0.46747427002053        0.01259527752175       -2.59745842341934
 
 Bond Distances (Angstroems)
 ---------------------------
C1-O2=1.4268         C1-H26=1.0935        C1-H27=1.0936        C1-H28=1.0882        O2-C1=1.4268         O2-C3=1.3479         
C3-O2=1.3479         C3-O4=1.2128         C3-C5=1.4769         O4-C3=1.2128         C5-C3=1.4769         C5-N6=1.3578         
C5-C24=1.4356        N6-C5=1.3578         N6-C7=1.2942         C7-N6=1.2942         C7-C8=1.5099         C7-N21=1.3669        
C8-C7=1.5099         C8-C9=1.5291         C8-C10=1.5339        C8-N11=1.4811        C9-C8=1.5291         C9-H29=1.0887        
C9-H30=1.0889        C9-H31=1.0876        C10-C8=1.5339        C10-H32=1.0880       C10-H33=1.0888       C10-H34=1.0881       
N11-C8=1.4811        N11-C12=1.3264       N11-H35=1.0105       C12-N11=1.3264       C12-O13=1.2063       C12-C14=1.5929       
O13-C12=1.2063       C14-C12=1.5929       C14-C15=1.5276       C14-N16=1.4181       C14-O20=1.4146       C15-C14=1.5276       
C15-H36=1.0874       C15-H37=1.0884       C15-H38=1.0869       N16-C14=1.4181       N16-N17=1.2948       N17-N16=1.2948       
N17-C18=1.3395       C18-N17=1.3395       C18-C19=1.4699       C18-O20=1.3065       C19-C18=1.4699       C19-H39=1.0871       
C19-H40=1.0917       C19-H41=1.0901       O20-C14=1.4146       O20-C18=1.3065       N21-C7=1.3669        N21-C22=1.3832       
N21-H42=1.0067       C22-N21=1.3832       C22-O23=1.2173       C22-C24=1.5153       O23-C22=1.2173       C24-C5=1.4356        
C24-C22=1.5153       C24-O25=1.2313       O25-C24=1.2313       H26-C1=1.0935        H27-C1=1.0936        H28-C1=1.0882        
H29-C9=1.0887        H30-C9=1.0889        H31-C9=1.0876        H32-C10=1.0880       H33-C10=1.0888       H34-C10=1.0881       
H35-N11=1.0105       H36-C15=1.0874       H37-C15=1.0884       H38-C15=1.0869       H39-C19=1.0871       H40-C19=1.0917       
H41-C19=1.0901       H42-N21=1.0067       
 C  H  Rav=1.0891 sigma=0.0021  Rmin=1.0869  Rmax=1.0936    15
 C  C  Rav=1.5101 sigma=0.0427  Rmin=1.4356  Rmax=1.5929     9
 N  H  Rav=1.0086 sigma=0.0019  Rmin=1.0067  Rmax=1.0105     2
 N  C  Rav=1.3709 sigma=0.0543  Rmin=1.2942  Rmax=1.4811     8
 N  N  Rav=1.2948 sigma=0.0000  Rmin=1.2948  Rmax=1.2948     1
 O  C  Rav=1.2954 sigma=0.0861  Rmin=1.2063  Rmax=1.4268     8
 
 selected bond angles (degree)
 --------------------
H26-C1-O2=110.31               H27-C1-O2=110.38               H27-C1-H26=109.16              H28-C1-O2=106.73               
H28-C1-H26=110.11              H28-C1-H27=110.13              C3-O2-C1=115.99                O4-C3-O2=121.98                
C5-C3-O2=112.09                C5-C3-O4=125.93                N6-C5-C3=115.75                C24-C5-C3=121.46               
C24-C5-N6=122.78               C7-N6-C5=120.78                C8-C7-N6=120.20                N21-C7-N6=122.11               
N21-C7-C8=117.69               C9-C8-C7=110.09                C10-C8-C7=110.30               C10-C8-C9=111.47               
N11-C8-C7=105.95               N11-C8-C9=109.75               N11-C8-C10=109.13              H29-C9-C8=110.02               
H30-C9-C8=109.07               H30-C9-H29=108.88              H31-C9-C8=110.30               H31-C9-H29=109.36              
H31-C9-H30=109.19              H32-C10-C8=110.08              H33-C10-C8=109.41              H33-C10-H32=109.03             
H34-C10-C8=110.23              H34-C10-H32=108.94             H34-C10-H33=109.14             
 
 selected dihedral angles (degree)
 ---------------------------------
C3-O2-C1-H26= 61.97           C3-O2-C1-H27=301.25           C3-O2-C1-H28=181.58           O4-C3-O2-C1=  0.10            
C5-C3-O2-C1=180.12            N6-C5-C3-O2=  1.29            N6-C5-C3-O4=181.31            C24-C5-C3-O2=181.06           
C24-C5-C3-O4=  1.08           C7-N6-C5-C3=181.09            C7-N6-C5-C24=  1.33           C8-C7-N6-C5=179.89            
N21-C7-N6-C5=359.72           C9-C8-C7-N6=  8.04            C9-C8-C7-N21=188.20           C10-C8-C7-N6=244.62           
C10-C8-C7-N21= 64.78          N11-C8-C7-N6=126.65           N11-C8-C7-N21=306.81          H29-C9-C8-C7= 59.95           
H29-C9-C8-C10=182.68          H29-C9-C8-N11=303.70          H30-C9-C8-C7=300.59           H30-C9-C8-C10= 63.32          
H30-C9-C8-N11=184.34          H31-C9-C8-C7=180.67           H31-C9-C8-C10=303.40          H31-C9-C8-N11= 64.42          
H32-C10-C8-C7=179.07          H32-C10-C8-C9= 56.45          H32-C10-C8-N11=295.07         H33-C10-C8-C7= 59.28          
H33-C10-C8-C9=296.66          H33-C10-C8-N11=175.28         H34-C10-C8-C7=299.27          H34-C10-C8-C9=176.65          
H34-C10-C8-N11= 55.27         
           -------------------------------------------------
          |                Final Singlepoint                |
           -------------------------------------------------

          ...................................................
          :                      SETUP                      :
          :.................................................:
          :  # basis functions                 134          :
          :  # atomic orbitals                 134          :
          :  # shells                           84          :
          :  # electrons                       134          :
          :  # halogen bonds                     0          :
          :  max. iterations                   250          :
          :  Hamiltonian                  GFN1-xTB          :
          :  restarted?                      false          :
          :  GBSA solvation                   true          :
          :  PC potential                    false          :
          :  electronic temp.          300.0000000     K    :
          :  accuracy                    1.0000000          :
          :  -> integral cutoff          0.2500000E+02      :
          :  -> integral neglect         0.1000000E-07      :
          :  -> SCF convergence          0.1000000E-05 Eh   :
          :  -> wf. convergence          0.2000000E-04 e    :
          :  Broyden damping             0.4000000          :
          ...................................................

 iter      E             dE          RMSdq      gap      omega  full diag
   1    -83.7175228 -0.837175E+02  0.382E-05    0.09       0.0  T
   2    -83.7175228  0.260266E-07  0.478E-04    0.09      32.3  T
   3    -83.7175228 -0.260506E-07  0.314E-05    0.09     491.2  T
   4    -83.7175228 -0.103029E-09  0.639E-06    0.09    2415.9  T

   *** convergence criteria satisfied after 4 iterations ***

         #    Occupation            Energy/Eh            Energy/eV
      -------------------------------------------------------------
         1        2.0000           -0.8903217             -24.2269
       ...           ...                  ...                  ...
        61        2.0000           -0.4788184             -13.0293
        62        2.0000           -0.4755830             -12.9413
        63        2.0000           -0.4736437             -12.8885
        64        2.0000           -0.4686857             -12.7536
        65        2.0000           -0.4548405             -12.3768
        66        2.0000           -0.4149493             -11.2913
        67        1.7237           -0.4016059             -10.9283 (HOMO)
        68        0.2763           -0.3981270             -10.8336 (LUMO)
        69                         -0.3034248              -8.2566
        70                         -0.2926828              -7.9643
        71                         -0.2807795              -7.6404
        72                         -0.2781539              -7.5690
       ...                                ...                  ...
       134                          0.7542198              20.5234
      -------------------------------------------------------------
                  HL-Gap            0.0034789 Eh            0.0947 eV
             Fermi-level           -0.3998664 Eh          -10.8809 eV

 SCC (total)                   0 d,  0 h,  0 min,  0.106 sec
 SCC setup                      ...        0 min,  0.002 sec (  1.499%)
 Dispersion                     ...        0 min,  0.000 sec (  0.219%)
 classical contributions        ...        0 min,  0.000 sec (  0.077%)
 integral evaluation            ...        0 min,  0.024 sec ( 22.898%)
 iterations                     ...        0 min,  0.021 sec ( 19.801%)
 molecular gradient             ...        0 min,  0.058 sec ( 54.383%)
 printout                       ...        0 min,  0.001 sec (  1.102%)

         :::::::::::::::::::::::::::::::::::::::::::::::::::::
         ::                     SUMMARY                     ::
         :::::::::::::::::::::::::::::::::::::::::::::::::::::
         :: total energy             -82.946524475301 Eh    ::
         :: total w/o Gsasa/hb       -82.925648836808 Eh    ::
         :: gradient norm              0.000326258572 Eh/a0 ::
         :: HOMO-LUMO gap              0.094666725352 eV    ::
         ::.................................................::
         :: SCC energy               -83.717522809532 Eh    ::
         :: -> electrostatic           0.395306553173 Eh    ::
         :: -> Gsolv                  -0.078774243933 Eh    ::
         ::    -> Gelec               -0.057898605440 Eh    ::
         ::    -> Gsasa               -0.024366174140 Eh    ::
         ::    -> Ghb                 -0.004133743358 Eh    ::
         ::    -> Gshift               0.007624279005 Eh    ::
         :: repulsion energy           0.797213677000 Eh    ::
         :: dispersion energy         -0.026215342770 Eh    ::
         :: halogen bond corr.         0.000000000000 Eh    ::
         :: add. restraining           0.000000000000 Eh    ::
         :: total charge              -0.000000000000 e     ::
         :::::::::::::::::::::::::::::::::::::::::::::::::::::

           -------------------------------------------------
          |                Property Printout                |
           -------------------------------------------------

    * Orbital Energies and Occupations

         #    Occupation            Energy/Eh            Energy/eV
      -------------------------------------------------------------
         1        2.0000           -0.8903217             -24.2269
       ...           ...                  ...                  ...
        55        2.0000           -0.5113343             -13.9141
        56        2.0000           -0.5096635             -13.8686
        57        2.0000           -0.5063866             -13.7795
        58        2.0000           -0.4961908             -13.5020
        59        2.0000           -0.4877986             -13.2737
        60        2.0000           -0.4874902             -13.2653
        61        2.0000           -0.4788184             -13.0293
        62        2.0000           -0.4755830             -12.9413
        63        2.0000           -0.4736437             -12.8885
        64        2.0000           -0.4686857             -12.7536
        65        2.0000           -0.4548405             -12.3768
        66        2.0000           -0.4149493             -11.2913
        67        1.7237           -0.4016059             -10.9283 (HOMO)
        68        0.2763           -0.3981270             -10.8336 (LUMO)
        69                         -0.3034248              -8.2566
        70                         -0.2926828              -7.9643
        71                         -0.2807795              -7.6404
        72                         -0.2781539              -7.5690
        73                         -0.2286141              -6.2209
        74                         -0.1596048              -4.3431
        75                         -0.1487215              -4.0469
        76                         -0.1427949              -3.8856
        77                         -0.1364924              -3.7141
        78                         -0.1332092              -3.6248
       ...                                ...                  ...
       134                          0.7542198              20.5234
      -------------------------------------------------------------
                  HL-Gap            0.0034789 Eh            0.0947 eV
             Fermi-level           -0.3998664 Eh          -10.8809 eV

  Mulliken/CM5 charges         n(s)   n(p)   n(d)
     1C     0.16620  0.04604   0.977  2.857  0.000
     2O    -0.42705 -0.50830   1.689  4.738  0.000
     3C     0.56460  0.63058   0.970  2.465  0.000
     4O    -0.57093 -0.61627   1.727  4.844  0.000
     5C     0.04997  0.13008   1.058  2.892  0.000
     6N    -0.35374 -0.54015   1.526  3.828  0.000
     7C     0.26500  0.41508   1.014  2.721  0.000
     8C     0.14941  0.18762   1.070  2.780  0.000
     9C    -0.09891 -0.23694   1.016  3.083  0.000
    10C    -0.11051 -0.25032   1.022  3.089  0.000
    11N    -0.32932 -0.68343   1.436  3.894  0.000
    12C     0.49171  0.60403   0.988  2.520  0.000
    13O    -0.51905 -0.56908   1.722  4.797  0.000
    14C     0.31844  0.40548   1.050  2.631  0.000
    15C    -0.09100 -0.22763   1.025  3.066  0.000
    16N    -0.18243 -0.28639   1.584  3.598  0.000
    17N    -0.19092 -0.29094   1.551  3.640  0.000
    18C     0.43633  0.53874   1.031  2.533  0.000
    19C    -0.11123 -0.24837   1.017  3.094  0.000
    20O    -0.34079 -0.39900   1.690  4.651  0.000
    21N    -0.30146 -0.64898   1.438  3.863  0.000
    22C     0.44402  0.54645   1.010  2.546  0.000
    23O    -0.55482 -0.59333   1.729  4.826  0.000
    24C     0.31210  0.35855   1.036  2.651  0.000
    25O    -0.55722 -0.59631   1.737  4.820  0.000
    26H     0.04606  0.10761   0.954  0.000  0.000
    27H     0.04690  0.10874   0.953  0.000  0.000
    28H     0.04655  0.10691   0.953  0.000  0.000
    29H     0.04722  0.10614   0.953  0.000  0.000
    30H     0.05163  0.10947   0.948  0.000  0.000
    31H     0.05919  0.11926   0.941  0.000  0.000
    32H     0.06777  0.12750   0.932  0.000  0.000
    33H     0.05595  0.11056   0.944  0.000  0.000
    34H     0.05017  0.10865   0.950  0.000  0.000
    35H     0.26132  0.47669   0.739  0.000  0.000
    36H     0.07891  0.13646   0.921  0.000  0.000
    37H     0.08332  0.14159   0.917  0.000  0.000
    38H     0.07270  0.12951   0.927  0.000  0.000
    39H     0.09342  0.14937   0.907  0.000  0.000
    40H     0.10619  0.16058   0.894  0.000  0.000
    41H     0.09939  0.15417   0.901  0.000  0.000
    42H     0.27494  0.47954   0.725  0.000  0.000

Wiberg/Mayer (AO) data.
largest (>0.10) Wiberg bond orders for each atom

 ---------------------------------------------------------------------------
     #   Z sym  total        # sym  WBO       # sym  WBO       # sym  WBO
 ---------------------------------------------------------------------------
     1   6 C    3.881 --    28 H    0.986    26 H    0.980    27 H    0.979
                             2 O    0.908
     2   8 O    2.167 --     3 C    1.077     1 C    0.908     4 O    0.126
     3   6 C    3.841 --     4 O    1.638     2 O    1.077     5 C    1.043
     4   8 O    1.883 --     3 C    1.638     2 O    0.126
     5   6 C    3.740 --     6 N    1.257    24 C    1.186     3 C    1.043
     6   7 N    3.000 --     7 C    1.524     5 C    1.257
     7   6 C    3.836 --     6 N    1.524    21 N    1.154     8 C    0.984
     8   6 C    3.918 --     9 C    0.995     7 C    0.984    10 C    0.981
                            11 N    0.891
     9   6 C    3.988 --     8 C    0.995    29 H    0.984    30 H    0.983
                            31 H    0.981
    10   6 C    3.983 --    33 H    0.984    34 H    0.983     8 C    0.981
                            32 H    0.979
    11   7 N    3.359 --    12 C    1.328     8 C    0.891    35 H    0.881
                            13 O    0.178
    12   6 C    3.870 --    13 O    1.644    11 N    1.328    14 C    0.796
    13   8 O    1.989 --    12 C    1.644    11 N    0.178
    14   6 C    3.847 --    16 N    1.074    15 C    0.935    20 O    0.902
                            12 C    0.796
    15   6 C    3.938 --    38 H    0.981    36 H    0.979    37 H    0.978
                            14 C    0.935
    16   7 N    2.754 --    17 N    1.477    14 C    1.074
    17   7 N    2.953 --    16 N    1.477    18 C    1.326
    18   6 C    3.702 --    17 N    1.326    20 O    1.197    19 C    1.052
    19   6 C    3.972 --    18 C    1.052    39 H    0.978    41 H    0.950
                            40 H    0.938
    20   8 O    2.257 --    18 C    1.197    14 C    0.902
    21   7 N    3.421 --     7 C    1.154    22 C    1.117    42 H    0.887
                            23 O    0.119
    22   6 C    3.846 --    23 O    1.639    21 N    1.117    24 C    0.952
    23   8 O    1.872 --    22 C    1.639    21 N    0.119
    24   6 C    3.884 --    25 O    1.597     5 C    1.186    22 C    0.952
    25   8 O    1.797 --    24 C    1.597
    26   1 H    1.008 --     1 C    0.980
    27   1 H    1.009 --     1 C    0.979
    28   1 H    1.013 --     1 C    0.986
    29   1 H    1.006 --     9 C    0.984
    30   1 H    1.008 --     9 C    0.983
    31   1 H    1.006 --     9 C    0.981
    32   1 H    1.003 --    10 C    0.979
    33   1 H    0.999 --    10 C    0.984
    34   1 H    1.000 --    10 C    0.983
    35   1 H    0.948 --    11 N    0.881
    36   1 H    0.994 --    15 C    0.979
    37   1 H    0.998 --    15 C    0.978
    38   1 H    0.995 --    15 C    0.981
    39   1 H    0.992 --    19 C    0.978
    40   1 H    0.979 --    19 C    0.938
    41   1 H    0.984 --    19 C    0.950
    42   1 H    0.932 --    21 N    0.887
 ---------------------------------------------------------------------------

Topologies differ in total number of bonds
Writing topology from bond orders to xtbtopo.mol

 dipole moment from electron density (au)
     X       Y       Z   
   8.7746   1.9902   2.7944  total (Debye):   23.947

           -------------------------------------------------
          |                Geometry Summary                 |
           -------------------------------------------------

      molecular mass/u    :      351.3152409
   center of mass at/Å    :       -0.3762814      -0.2018363      -0.2746771
  moments of inertia/u·Å² :        0.1411811E+04   0.4464431E+04   0.4678116E+04
rotational constants/cm⁻¹ :        0.1194043E-01   0.3775987E-02   0.3603509E-02

 * 37 selected distances

     #   Z          #   Z                                           value/Å
     1   6 C        2   8 O                                       1.4268441
     2   8 O        3   6 C                                       1.3478599
     3   6 C        4   8 O                                       1.2128045
     5   6 C        6   7 N                                       1.3578031
     6   7 N        7   6 C                                       1.2942451
     8   6 C        9   6 C                                       1.5291074
     8   6 C       10   6 C                                       1.5338932 (max)
    11   7 N       12   6 C                                       1.3264179
    12   6 C       13   8 O                                       1.2063316
    14   6 C       15   6 C                                       1.5276214
    14   6 C       16   7 N                                       1.4180563
    16   7 N       17   7 N                                       1.2947607
    17   7 N       18   6 C                                       1.3395119
    18   6 C       19   6 C                                       1.4699434
    14   6 C       20   8 O                                       1.4145830
    18   6 C       20   8 O                                       1.3065224
     7   6 C       21   7 N                                       1.3668732
    21   7 N       22   6 C                                       1.3832244
    22   6 C       23   8 O                                       1.2173247
    24   6 C       25   8 O                                       1.2312514
     1   6 C       26   1 H                                       1.0934537
     1   6 C       27   1 H                                       1.0936362
     1   6 C       28   1 H                                       1.0881883
     9   6 C       29   1 H                                       1.0887275
     9   6 C       30   1 H                                       1.0889123
     9   6 C       31   1 H                                       1.0876384
    10   6 C       32   1 H                                       1.0880309
    10   6 C       33   1 H                                       1.0887589
    10   6 C       34   1 H                                       1.0881155
    11   7 N       35   1 H                                       1.0105288
    15   6 C       36   1 H                                       1.0874478
    15   6 C       37   1 H                                       1.0883676
    15   6 C       38   1 H                                       1.0869204
    19   6 C       39   1 H                                       1.0871262
    19   6 C       40   1 H                                       1.0916947
    19   6 C       41   1 H                                       1.0901443
    21   7 N       42   1 H                                       1.0067472 (min)

 * 6 distinct bonds (by element types)

   Z      Z             #   av. dist./Å        max./Å        min./Å
   1 H    6 C          15     1.0891442     1.0936362     1.0869204
   6 C    6 C           4     1.5151413     1.5338932     1.4699434
   1 H    7 N           2     1.0086380     1.0105288     1.0067472
   6 C    7 N           7     1.3551617     1.4180563     1.2942451
   7 N    7 N           1     1.2947607     1.2947607     1.2947607
   6 C    8 O           8     1.2954402     1.4268441     1.2063316


optimized geometry written to: xtbopt.xyz


           -------------------------------------------------
          | TOTAL ENERGY              -82.946524475301 Eh   |
          | GRADIENT NORM               0.000326258572 Eh/α |
          | HOMO-LUMO GAP               0.094666725352 eV   |
           -------------------------------------------------

------------------------------------------------------------------------
 * finished run on 2023/06/21 at 17:27:20.578     
------------------------------------------------------------------------
 total:
 * wall-time:     0 d,  0 h,  0 min,  5.549 sec
 *  cpu-time:     0 d,  0 h,  0 min,  5.524 sec
 * ratio c/w:     0.996 speedup
 SCF:
 * wall-time:     0 d,  0 h,  0 min,  0.185 sec
 *  cpu-time:     0 d,  0 h,  0 min,  0.184 sec
 * ratio c/w:     0.994 speedup
 ANC optimizer:
 * wall-time:     0 d,  0 h,  0 min,  5.312 sec
 *  cpu-time:     0 d,  0 h,  0 min,  5.304 sec
 * ratio c/w:     0.999 speedup

