
                                 *****************
                                 * O   R   C   A *
                                 *****************

                                            #,                                       
                                            ###                                      
                                            ####                                     
                                            #####                                    
                                            ######                                   
                                           ########,                                 
                                     ,,################,,,,,                         
                               ,,#################################,,                 
                          ,,##########################################,,             
                       ,#########################################, ''#####,          
                    ,#############################################,,   '####,        
                  ,##################################################,,,,####,       
                ,###########''''           ''''###############################       
              ,#####''   ,,,,##########,,,,          '''####'''          '####       
            ,##' ,,,,###########################,,,                        '##       
           ' ,,###''''                  '''############,,,                           
         ,,##''                                '''############,,,,        ,,,,,,###''
      ,#''                                            '''#######################'''  
     '                                                          ''''####''''         
             ,#######,   #######,   ,#######,      ##                                
            ,#'     '#,  ##    ##  ,#'     '#,    #''#        ######   ,####,        
            ##       ##  ##   ,#'  ##            #'  '#       #        #'  '#        
            ##       ##  #######   ##           ,######,      #####,   #    #        
            '#,     ,#'  ##    ##  '#,     ,#' ,#      #,         ##   #,  ,#        
             '#######'   ##     ##  '#######'  #'      '#     #####' # '####'        



                  #######################################################
                  #                        -***-                        #
                  #          Department of theory and spectroscopy      #
                  #    Directorship and core code : Frank Neese         #
                  #        Max Planck Institute fuer Kohlenforschung    #
                  #                Kaiser Wilhelm Platz 1               #
                  #                 D-45470 Muelheim/Ruhr               #
                  #                      Germany                        #
                  #                                                     #
                  #                  All rights reserved                #
                  #                        -***-                        #
                  #######################################################


                         Program Version 5.0.1 -  RELEASE  -


 With contributions from (in alphabetic order):
   Daniel Aravena         : Magnetic Suceptibility
   Michael Atanasov       : Ab Initio Ligand Field Theory (pilot matlab implementation)
   Alexander A. Auer      : GIAO ZORA, VPT2 properties, NMR spectrum
   Ute Becker             : Parallelization
   Giovanni Bistoni       : ED, misc. LED, open-shell LED, HFLD
   Martin Brehm           : Molecular dynamics
   Dmytro Bykov           : SCF Hessian
   Vijay G. Chilkuri      : MRCI spin determinant printing, contributions to CSF-ICE
   Dipayan Datta          : RHF DLPNO-CCSD density
   Achintya Kumar Dutta   : EOM-CC, STEOM-CC
   Dmitry Ganyushin       : Spin-Orbit,Spin-Spin,Magnetic field MRCI
   Miquel Garcia          : C-PCM and meta-GGA Hessian, CC/C-PCM, Gaussian charge scheme
   Yang Guo               : DLPNO-NEVPT2, F12-NEVPT2, CIM, IAO-localization
   Andreas Hansen         : Spin unrestricted coupled pair/coupled cluster methods
   Benjamin Helmich-Paris : MC-RPA, TRAH-SCF, COSX integrals
   Lee Huntington         : MR-EOM, pCC
   Robert Izsak           : Overlap fitted RIJCOSX, COSX-SCS-MP3, EOM
   Marcus Kettner         : VPT2
   Christian Kollmar      : KDIIS, OOCD, Brueckner-CCSD(T), CCSD density, CASPT2, CASPT2-K
   Simone Kossmann        : Meta GGA functionals, TD-DFT gradient, OOMP2, MP2 Hessian
   Martin Krupicka        : Initial AUTO-CI
   Lucas Lang             : DCDCAS
   Marvin Lechner         : AUTO-CI (C++ implementation), FIC-MRCC
   Dagmar Lenk            : GEPOL surface, SMD
   Dimitrios Liakos       : Extrapolation schemes; Compound Job, initial MDCI parallelization
   Dimitrios Manganas     : Further ROCIS development; embedding schemes
   Dimitrios Pantazis     : SARC Basis sets
   Anastasios Papadopoulos: AUTO-CI, single reference methods and gradients
   Taras Petrenko         : DFT Hessian,TD-DFT gradient, ASA, ECA, R-Raman, ABS, FL, XAS/XES, NRVS
   Peter Pinski           : DLPNO-MP2, DLPNO-MP2 Gradient
   Christoph Reimann      : Effective Core Potentials
   Marius Retegan         : Local ZFS, SOC
   Christoph Riplinger    : Optimizer, TS searches, QM/MM, DLPNO-CCSD(T), (RO)-DLPNO pert. Triples
   Tobias Risthaus        : Range-separated hybrids, TD-DFT gradient, RPA, STAB
   Michael Roemelt        : Original ROCIS implementation
   Masaaki Saitow         : Open-shell DLPNO-CCSD energy and density
   Barbara Sandhoefer     : DKH picture change effects
   Avijit Sen             : IP-ROCIS
   Kantharuban Sivalingam : CASSCF convergence, NEVPT2, FIC-MRCI
   Bernardo de Souza      : ESD, SOC TD-DFT
   Georgi Stoychev        : AutoAux, RI-MP2 NMR, DLPNO-MP2 response
   Willem Van den Heuvel  : Paramagnetic NMR
   Boris Wezisla          : Elementary symmetry handling
   Frank Wennmohs         : Technical directorship


 We gratefully acknowledge several colleagues who have allowed us to
 interface, adapt or use parts of their codes:
   Stefan Grimme, W. Hujo, H. Kruse, P. Pracht,  : VdW corrections, initial TS optimization,
                  C. Bannwarth, S. Ehlert          DFT functionals, gCP, sTDA/sTD-DF
   Ed Valeev, F. Pavosevic, A. Kumar             : LibInt (2-el integral package), F12 methods
   Garnet Chan, S. Sharma, J. Yang, R. Olivares  : DMRG
   Ulf Ekstrom                                   : XCFun DFT Library
   Mihaly Kallay                                 : mrcc  (arbitrary order and MRCC methods)
   Jiri Pittner, Ondrej Demel                    : Mk-CCSD
   Frank Weinhold                                : gennbo (NPA and NBO analysis)
   Christopher J. Cramer and Donald G. Truhlar   : smd solvation model
   Lars Goerigk                                  : TD-DFT with DH, B97 family of functionals
   V. Asgeirsson, H. Jonsson                     : NEB implementation
   FAccTs GmbH                                   : IRC, NEB, NEB-TS, DLPNO-Multilevel, CI-OPT
                                                   MM, QMMM, 2- and 3-layer-ONIOM, Crystal-QMMM,
                                                   LR-CPCM, SF, NACMEs, symmetry and pop. for TD-DFT,
                                                   nearIR, NL-DFT gradient (VV10), updates on ESD,
                                                   ML-optimized integration grids
   S Lehtola, MJT Oliveira, MAL Marques          : LibXC Library
   Liviu Ungur et al                             : ANISO software


 Your calculation uses the libint2 library for the computation of 2-el integrals
 For citations please refer to: http://libint.valeyev.net

 Your ORCA version has been built with support for libXC version: 5.1.0
 For citations please refer to: https://tddft.org/programs/libxc/

 This ORCA versions uses:
   CBLAS   interface :  Fast vector & matrix operations
   LAPACKE interface :  Fast linear algebra routines
   SCALAPACK package :  Parallel linear algebra routines
   Shared memory     :  Shared parallel matrices
   BLAS/LAPACK       :  OpenBLAS 0.3.15  USE64BITINT DYNAMIC_ARCH NO_AFFINITY Zen SINGLE_THREADED
        Core in use  :  Zen
   Copyright (c) 2011-2014, The OpenBLAS Project


Your calculation utilizes the geometrical counterpoise correction gCP
Please cite in your paper:
H.Kruse, S. Grimme J.Chem.Phys., 136, (2012), 154101 
   

Your calculation utilizes the atom-pairwise dispersion correction
based on tight binding partial charges (D4)
Cite in your paper:
E.Caldeweyher, C.Bannwarth, S.Grimme, J.Chem.Phys., (2017), 147, 034112.
E.Caldeweyher, S.Ehlert, A.Hansen, H.Neugebauer, S.Grimme, J.Chem.Phys., (2018), in progress.
   

Your calculation utilizes the SMD solvation module
Please cite in your paper:
A.V. Marenich, C.J. Cramer, D.G. Truhlar J. Phys. Chem. B, 113, (2009), 6378 

================================================================================

----- Orbital basis set information -----
Your calculation utilizes the basis: def2-mTZVPP
   Stefan Grimme, Andreas Hansen, Sebastian Ehlert, and Jan-Michael Mewes 
   J. Chem. Phys. 154, 000000 (2021). DOI: 10.1063/5.0040021

----- AuxJ basis set information -----
Your calculation utilizes the basis: def2-mTZVPP/J
   Stefan Grimme, Andreas Hansen, Sebastian Ehlert, and Jan-Michael Mewes 
   J. Chem. Phys. 154, 000000 (2021). DOI: 10.1063/5.0040021

================================================================================
                                        WARNINGS
                       Please study these warnings very carefully!
================================================================================

Using LibXC functional ID 497 : Re-regularized SCAN exchange by Furness et al
[ 1]  J. W. Furness, A. D. Kaplan, J. Ning, J. P. Perdew, and J. Sun, J. Phys. Chem. Lett. 11, 8208 (2020)
[ 2]  J. W. Furness, A. D. Kaplan, J. Ning, J. P. Perdew, and J. Sun, J. Phys. Chem. Lett. 11, 9248 (2020)
Using LibXC functional ID 498 : Re-regularized SCAN correlation by Furness et al
[ 1]  J. W. Furness, A. D. Kaplan, J. Ning, J. P. Perdew, and J. Sun, J. Phys. Chem. Lett. 11, 8208 (2020)
[ 2]  J. W. Furness, A. D. Kaplan, J. Ning, J. P. Perdew, and J. Sun, J. Phys. Chem. Lett. 11, 9248 (2020)
Using LibXC functional ID 497 : Re-regularized SCAN exchange by Furness et al
[ 1]  J. W. Furness, A. D. Kaplan, J. Ning, J. P. Perdew, and J. Sun, J. Phys. Chem. Lett. 11, 8208 (2020)
[ 2]  J. W. Furness, A. D. Kaplan, J. Ning, J. P. Perdew, and J. Sun, J. Phys. Chem. Lett. 11, 9248 (2020)
Using LibXC functional ID 498 : Re-regularized SCAN correlation by Furness et al
[ 1]  J. W. Furness, A. D. Kaplan, J. Ning, J. P. Perdew, and J. Sun, J. Phys. Chem. Lett. 11, 8208 (2020)
[ 2]  J. W. Furness, A. D. Kaplan, J. Ning, J. P. Perdew, and J. Sun, J. Phys. Chem. Lett. 11, 9248 (2020)

INFO   : the flag for use of the SHARK integral package has been found!

================================================================================
                                       INPUT FILE
================================================================================
NAME = /lustre/hpc/kemi/ree/PhD/git/ReactivityQM/calculations/R03/reac02prodE11/conf06/gfn1/orca_calc.inp
|  1> # ORCA input file 
|  2> ! SP r2SCAN-3c CPCM 
|  3> 
|  4> %maxcore 1875.0 
|  5> %pal nprocs 4 end 
|  6> %cpcm smd true SMDsolvent "DMSO" end 
|  7> 
|  8> *xyz -1 1
|  9> C      -5.257191    2.219113    3.772997
| 10> O      -4.627585    1.885955    2.535342
| 11> C      -3.609807    1.022668    2.598513
| 12> O      -3.221842    0.539230    3.640241
| 13> C      -3.011596    0.717237    1.270939
| 14> N      -1.977328   -0.174237    1.318142
| 15> C      -1.351214   -0.561551    0.252461
| 16> C      -0.253555   -1.604474    0.456230
| 17> C      -0.753965   -2.946305   -0.105305
| 18> C       0.016486   -1.752883    1.964364
| 19> N       0.950060   -1.147402   -0.233620
| 20> C       2.156192   -1.884453   -0.127070
| 21> O       2.168495   -3.088508    0.194719
| 22> C       3.294226   -1.129878   -0.475700
| 23> N       4.555202   -1.545205   -0.503877
| 24> N       5.355892   -0.586404   -0.845117
| 25> C       4.544212    0.618606   -1.074389
| 26> C       4.700355    1.079658   -2.531850
| 27> C       4.970885    1.726197   -0.098644
| 28> O       3.198691    0.230814   -0.822258
| 29> N      -1.700172   -0.093141   -0.992181
| 30> C      -1.080061   -0.500615   -2.255819
| 31> C      -2.737944    0.803494   -1.151477
| 32> O      -3.082317    1.219312   -2.258470
| 33> C      -3.409031    1.226249    0.063498
| 34> O      -4.411198    2.103281   -0.108957
| 35> H      -6.015219    2.966288    3.546914
| 36> H      -5.721692    1.332038    4.211122
| 37> H      -4.523953    2.624733    4.474772
| 38> H      -1.733201   -3.170319    0.316110
| 39> H      -0.838970   -2.911417   -1.188834
| 40> H      -0.063904   -3.744026    0.163678
| 41> H      -0.886525   -2.085241    2.474181
| 42> H       0.325307   -0.797318    2.385960
| 43> H       0.803858   -2.487879    2.123834
| 44> H       1.101462   -0.150255   -0.141258
| 45> H       5.742881    1.319974   -2.730915
| 46> H       4.085612    1.958490   -2.716625
| 47> H       4.385726    0.278922   -3.198964
| 48> H       4.346413    2.606977   -0.235447
| 49> H       4.862597    1.368164    0.923898
| 50> H       6.011533    1.990649   -0.275429
| 51> H      -0.958305    0.388806   -2.874131
| 52> H      -1.743869   -1.197137   -2.768535
| 53> H      -0.112442   -0.960083   -2.077322
| 54> H      -4.493195    2.291880   -1.062569
| 55> **                         ****END OF INPUT****
================================================================================

                       ****************************
                       * Single Point Calculation *
                       ****************************

---------------------------------
CARTESIAN COORDINATES (ANGSTROEM)
---------------------------------
  C     -5.257191    2.219113    3.772997
  O     -4.627585    1.885955    2.535342
  C     -3.609807    1.022668    2.598513
  O     -3.221842    0.539230    3.640241
  C     -3.011596    0.717237    1.270939
  N     -1.977328   -0.174237    1.318142
  C     -1.351214   -0.561551    0.252461
  C     -0.253555   -1.604474    0.456230
  C     -0.753965   -2.946305   -0.105305
  C      0.016486   -1.752883    1.964364
  N      0.950060   -1.147402   -0.233620
  C      2.156192   -1.884453   -0.127070
  O      2.168495   -3.088508    0.194719
  C      3.294226   -1.129878   -0.475700
  N      4.555202   -1.545205   -0.503877
  N      5.355892   -0.586404   -0.845117
  C      4.544212    0.618606   -1.074389
  C      4.700355    1.079658   -2.531850
  C      4.970885    1.726197   -0.098644
  O      3.198691    0.230814   -0.822258
  N     -1.700172   -0.093141   -0.992181
  C     -1.080061   -0.500615   -2.255819
  C     -2.737944    0.803494   -1.151477
  O     -3.082317    1.219312   -2.258470
  C     -3.409031    1.226249    0.063498
  O     -4.411198    2.103281   -0.108957
  H     -6.015219    2.966288    3.546914
  H     -5.721692    1.332038    4.211122
  H     -4.523953    2.624733    4.474772
  H     -1.733201   -3.170319    0.316110
  H     -0.838970   -2.911417   -1.188834
  H     -0.063904   -3.744026    0.163678
  H     -0.886525   -2.085241    2.474181
  H      0.325307   -0.797318    2.385960
  H      0.803858   -2.487879    2.123834
  H      1.101462   -0.150255   -0.141258
  H      5.742881    1.319974   -2.730915
  H      4.085612    1.958490   -2.716625
  H      4.385726    0.278922   -3.198964
  H      4.346413    2.606977   -0.235447
  H      4.862597    1.368164    0.923898
  H      6.011533    1.990649   -0.275429
  H     -0.958305    0.388806   -2.874131
  H     -1.743869   -1.197137   -2.768535
  H     -0.112442   -0.960083   -2.077322
  H     -4.493195    2.291880   -1.062569

----------------------------
CARTESIAN COORDINATES (A.U.)
----------------------------
  NO LB      ZA    FRAG     MASS         X           Y           Z
   0 C     6.0000    0    12.011   -9.934651    4.193516    7.129931
   1 O     8.0000    0    15.999   -8.744868    3.563938    4.791102
   2 C     6.0000    0    12.011   -6.821547    1.932562    4.910478
   3 O     8.0000    0    15.999   -6.088399    1.018997    6.879059
   4 C     6.0000    0    12.011   -5.691092    1.355382    2.401727
   5 N     7.0000    0    14.007   -3.736608   -0.329260    2.490927
   6 C     6.0000    0    12.011   -2.553424   -1.061178    0.477082
   7 C     6.0000    0    12.011   -0.479150   -3.032016    0.862150
   8 C     6.0000    0    12.011   -1.424787   -5.567710   -0.198998
   9 C     6.0000    0    12.011    0.031154   -3.312469    3.712110
  10 N     7.0000    0    14.007    1.795353   -2.168276   -0.441478
  11 C     6.0000    0    12.011    4.074612   -3.561100   -0.240127
  12 O     8.0000    0    15.999    4.097862   -5.836434    0.367966
  13 C     6.0000    0    12.011    6.225185   -2.135160   -0.898943
  14 N     7.0000    0    14.007    8.608084   -2.920014   -0.952190
  15 N     7.0000    0    14.007   10.121169   -1.108143   -1.597040
  16 C     6.0000    0    12.011    8.587316    1.168996   -2.030301
  17 C     6.0000    0    12.011    8.882384    2.040258   -4.784503
  18 C     6.0000    0    12.011    9.393611    3.262040   -0.186410
  19 O     8.0000    0    15.999    6.044650    0.436175   -1.553842
  20 N     7.0000    0    14.007   -3.212859   -0.176011   -1.874950
  21 C     6.0000    0    12.011   -2.041019   -0.946025   -4.262880
  22 C     6.0000    0    12.011   -5.173964    1.518384   -2.175976
  23 O     8.0000    0    15.999   -5.824735    2.304166   -4.267890
  24 C     6.0000    0    12.011   -6.442135    2.317275    0.119994
  25 O     8.0000    0    15.999   -8.335956    3.974625   -0.205899
  26 H     1.0000    0     1.008  -11.367117    5.605472    6.702696
  27 H     1.0000    0     1.008  -10.812431    2.517187    7.957867
  28 H     1.0000    0     1.008   -8.549032    4.960027    8.456094
  29 H     1.0000    0     1.008   -3.275275   -5.991035    0.597361
  30 H     1.0000    0     1.008   -1.585424   -5.501781   -2.246571
  31 H     1.0000    0     1.008   -0.120761   -7.075184    0.309307
  32 H     1.0000    0     1.008   -1.675289   -3.940534    4.675524
  33 H     1.0000    0     1.008    0.614741   -1.506713    4.508811
  34 H     1.0000    0     1.008    1.519071   -4.701410    4.013465
  35 H     1.0000    0     1.008    2.081462   -0.283941   -0.266939
  36 H     1.0000    0     1.008   10.852472    2.494389   -5.160681
  37 H     1.0000    0     1.008    7.720688    3.701010   -5.133677
  38 H     1.0000    0     1.008    8.287821    0.527086   -6.045166
  39 H     1.0000    0     1.008    8.213530    4.926473   -0.444930
  40 H     1.0000    0     1.008    9.188977    2.585455    1.745914
  41 H     1.0000    0     1.008   11.360151    3.761781   -0.520485
  42 H     1.0000    0     1.008   -1.810934    0.734737   -5.431320
  43 H     1.0000    0     1.008   -3.295435   -2.262261   -5.231773
  44 H     1.0000    0     1.008   -0.212485   -1.814294   -3.925570
  45 H     1.0000    0     1.008   -8.490908    4.331026   -2.007964

--------------------------------
INTERNAL COORDINATES (ANGSTROEM)
--------------------------------
 C      0   0   0     0.000000000000     0.00000000     0.00000000
 O      1   0   0     1.428001354070     0.00000000     0.00000000
 C      2   1   0     1.336086478075   116.46344791     0.00000000
 O      3   2   1     1.212198979975   122.82790433   359.75387499
 C      3   2   1     1.487816259408   113.37442307   179.59325894
 N      5   3   2     1.366259240301   114.04745796   180.58428593
 C      6   5   3     1.295263243265   122.18217190   179.31344418
 C      7   6   5     1.527764860694   116.21188709   182.38272515
 C      8   7   6     1.538259456947   108.24377678   108.16631498
 C      8   7   6     1.539290594695   108.81645101   349.47441496
 N      8   7   6     1.460649480166   108.38695612   229.40351852
 C     11   8   7     1.417515954240   120.19455459   175.49563005
 O     12  11   8     1.246373927582   122.01293126    21.32320845
 C     12  11   8     1.409272043532   112.96144098   198.74784442
 N     14  12  11     1.327912245909   127.20080870   181.52118430
 N     15  14  12     1.294931879020   111.17199729   181.20136654
 C     16  15  14     1.470863410546   107.84580074     0.02347170
 C     17  16  15     1.536600842663   109.72989211   241.21219042
 C     17  16  15     1.536517483544   109.77508037   119.01011301
 O     14  12  11     1.407377739789   121.58577058     2.96825756
 N      7   6   5     1.374886657884   121.34902259   359.87286401
 C     21   7   6     1.465385173953   125.34486910   181.90401208
 C     21   7   6     1.380688329358   121.09535074   359.63931978
 O     23  21   7     1.231637476818   122.21581243   181.23101808
 C      5   3   2     1.369292358793   126.42807664   359.87547075
 O     25   5   3     1.342856862044   124.93436275     0.56660870
 H      1   2   3     1.088113253434   106.69480128   176.81811921
 H      1   2   3     1.092985247042   110.20891991   296.40143866
 H      1   2   3     1.093002149892   110.32112573    57.07061973
 H      9   8   7     1.089346601462   109.30459861   308.45000255
 H      9   8   7     1.087418096415   111.17290066    68.53775316
 H      9   8   7     1.088528746451   110.04945379   188.92556108
 H     10   8   7     1.088946316296   110.03825220    60.67550356
 H     10   8   7     1.089136385620   110.14580889   300.77277603
 H     10   8   7     1.088854658483   109.59879025   180.48696122
 H     11   8   7     1.012795855174   112.84263180    39.48178027
 H     18  17  16     1.088227510568   109.70108324   299.25173879
 H     18  17  16     1.088299793668   110.23891080   178.74802365
 H     18  17  16     1.088673797945   109.33924284    58.85526544
 H     19  17  16     1.088326122076   110.13411879   182.32312053
 H     19  17  16     1.088809469924   109.37405358   302.20608039
 H     19  17  16     1.088180158077   109.72905062    61.87744900
 H     22  21   7     1.090047690755   108.03031527   221.14579791
 H     22  21   7     1.090257609010   108.99712838   103.06042499
 H     22  21   7     1.085936716017   110.66947419   341.39543242
 H     26  25   5     0.975535205594   108.33251636   180.75536343

---------------------------
INTERNAL COORDINATES (A.U.)
---------------------------
 C      0   0   0     0.000000000000     0.00000000     0.00000000
 O      1   0   0     2.698531478061     0.00000000     0.00000000
 C      2   1   0     2.524837534797   116.46344791     0.00000000
 O      3   2   1     2.290724091972   122.82790433   359.75387499
 C      3   2   1     2.811565267876   113.37442307   179.59325894
 N      5   3   2     2.581855792109   114.04745796   180.58428593
 C      6   5   3     2.447692801105   122.18217190   179.31344418
 C      7   6   5     2.887057183740   116.21188709   182.38272515
 C      8   7   6     2.906889096544   108.24377678   108.16631498
 C      8   7   6     2.908837664495   108.81645101   349.47441496
 N      8   7   6     2.760227495168   108.38695612   229.40351852
 C     11   8   7     2.678716943978   120.19455459   175.49563005
 O     12  11   8     2.355305383589   122.01293126    21.32320845
 C     12  11   8     2.663138210467   112.96144098   198.74784442
 N     14  12  11     2.509390474648   127.20080870   181.52118430
 N     15  14  12     2.447066613431   111.17199729   181.20136654
 C     16  15  14     2.779529026338   107.84580074     0.02347170
 C     17  16  15     2.903754769787   109.72989211   241.21219042
 C     17  16  15     2.903597243879   109.77508037   119.01011301
 O     14  12  11     2.659558495178   121.58577058     2.96825756
 N      7   6   5     2.598159248583   121.34902259   359.87286401
 C     21   7   6     2.769176659480   125.34486910   181.90401208
 C     21   7   6     2.609122818788   121.09535074   359.63931978
 O     23  21   7     2.327457527459   122.21581243   181.23101808
 C      5   3   2     2.587587555391   126.42807664   359.87547075
 O     25   5   3     2.537631706320   124.93436275     0.56660870
 H      1   2   3     2.056236051680   106.69480128   176.81811921
 H      1   2   3     2.065442785325   110.20891991   296.40143866
 H      1   2   3     2.065474727083   110.32112573    57.07061973
 H      9   8   7     2.058566741681   109.30459861   308.45000255
 H      9   8   7     2.054922395294   111.17290066    68.53775316
 H      9   8   7     2.057021219694   110.04945379   188.92556108
 H     10   8   7     2.057810312341   110.03825220    60.67550356
 H     10   8   7     2.058169491311   110.14580889   300.77277603
 H     10   8   7     2.057637104177   109.59879025   180.48696122
 H     11   8   7     1.913906795849   112.84263180    39.48178027
 H     18  17  16     2.056451966372   109.70108324   299.25173879
 H     18  17  16     2.056588561636   110.23891080   178.74802365
 H     18  17  16     2.057295327293   109.33924284    58.85526544
 H     19  17  16     2.056638315116   110.13411879   182.32312053
 H     19  17  16     2.057551710177   109.37405358   302.20608039
 H     19  17  16     2.056362483133   109.72905062    61.87744900
 H     22  21   7     2.059891608441   108.03031527   221.14579791
 H     22  21   7     2.060288296453   108.99712838   103.06042499
 H     22  21   7     2.052122992042   110.66947419   341.39543242
 H     26  25   5     1.843494372572   108.33251636   180.75536343

---------------------
BASIS SET INFORMATION
---------------------
There are 4 groups of distinct atoms

 Group   1 Type C   : 11s6p1d contracted to 5s3p1d pattern {62111/411/1}
 Group   2 Type O   : 11s6p2d contracted to 5s3p2d pattern {62111/411/11}
 Group   3 Type N   : 11s6p2d contracted to 5s3p2d pattern {62111/411/11}
 Group   4 Type H   : 4s1p contracted to 2s1p pattern {31/1}

Atom   0C    basis set group =>   1
Atom   1O    basis set group =>   2
Atom   2C    basis set group =>   1
Atom   3O    basis set group =>   2
Atom   4C    basis set group =>   1
Atom   5N    basis set group =>   3
Atom   6C    basis set group =>   1
Atom   7C    basis set group =>   1
Atom   8C    basis set group =>   1
Atom   9C    basis set group =>   1
Atom  10N    basis set group =>   3
Atom  11C    basis set group =>   1
Atom  12O    basis set group =>   2
Atom  13C    basis set group =>   1
Atom  14N    basis set group =>   3
Atom  15N    basis set group =>   3
Atom  16C    basis set group =>   1
Atom  17C    basis set group =>   1
Atom  18C    basis set group =>   1
Atom  19O    basis set group =>   2
Atom  20N    basis set group =>   3
Atom  21C    basis set group =>   1
Atom  22C    basis set group =>   1
Atom  23O    basis set group =>   2
Atom  24C    basis set group =>   1
Atom  25O    basis set group =>   2
Atom  26H    basis set group =>   4
Atom  27H    basis set group =>   4
Atom  28H    basis set group =>   4
Atom  29H    basis set group =>   4
Atom  30H    basis set group =>   4
Atom  31H    basis set group =>   4
Atom  32H    basis set group =>   4
Atom  33H    basis set group =>   4
Atom  34H    basis set group =>   4
Atom  35H    basis set group =>   4
Atom  36H    basis set group =>   4
Atom  37H    basis set group =>   4
Atom  38H    basis set group =>   4
Atom  39H    basis set group =>   4
Atom  40H    basis set group =>   4
Atom  41H    basis set group =>   4
Atom  42H    basis set group =>   4
Atom  43H    basis set group =>   4
Atom  44H    basis set group =>   4
Atom  45H    basis set group =>   4
---------------------------------
AUXILIARY/J BASIS SET INFORMATION
---------------------------------
There are 4 groups of distinct atoms

 Group   1 Type C   : 8s3p3d contracted to 6s3p3d pattern {311111/111/111}
 Group   2 Type O   : 8s3p3d contracted to 6s3p3d pattern {311111/111/111}
 Group   3 Type N   : 8s3p3d contracted to 6s3p3d pattern {311111/111/111}
 Group   4 Type H   : 5s2p1d contracted to 3s1p1d pattern {311/2/1}

Atom   0C    basis set group =>   1
Atom   1O    basis set group =>   2
Atom   2C    basis set group =>   1
Atom   3O    basis set group =>   2
Atom   4C    basis set group =>   1
Atom   5N    basis set group =>   3
Atom   6C    basis set group =>   1
Atom   7C    basis set group =>   1
Atom   8C    basis set group =>   1
Atom   9C    basis set group =>   1
Atom  10N    basis set group =>   3
Atom  11C    basis set group =>   1
Atom  12O    basis set group =>   2
Atom  13C    basis set group =>   1
Atom  14N    basis set group =>   3
Atom  15N    basis set group =>   3
Atom  16C    basis set group =>   1
Atom  17C    basis set group =>   1
Atom  18C    basis set group =>   1
Atom  19O    basis set group =>   2
Atom  20N    basis set group =>   3
Atom  21C    basis set group =>   1
Atom  22C    basis set group =>   1
Atom  23O    basis set group =>   2
Atom  24C    basis set group =>   1
Atom  25O    basis set group =>   2
Atom  26H    basis set group =>   4
Atom  27H    basis set group =>   4
Atom  28H    basis set group =>   4
Atom  29H    basis set group =>   4
Atom  30H    basis set group =>   4
Atom  31H    basis set group =>   4
Atom  32H    basis set group =>   4
Atom  33H    basis set group =>   4
Atom  34H    basis set group =>   4
Atom  35H    basis set group =>   4
Atom  36H    basis set group =>   4
Atom  37H    basis set group =>   4
Atom  38H    basis set group =>   4
Atom  39H    basis set group =>   4
Atom  40H    basis set group =>   4
Atom  41H    basis set group =>   4
Atom  42H    basis set group =>   4
Atom  43H    basis set group =>   4
Atom  44H    basis set group =>   4
Atom  45H    basis set group =>   4


           ************************************************************
           *        Program running with 4 parallel MPI-processes     *
           *              working on a common directory               *
           ************************************************************
------------------------------------------------------------------------------
                           ORCA GTO INTEGRAL CALCULATION
                           -- RI-GTO INTEGRALS CHOSEN --
------------------------------------------------------------------------------
------------------------------------------------------------------------------
                   ___                                                        
                  /   \      - P O W E R E D   B Y -                         
                 /     \                                                     
                 |  |  |   _    _      __       _____    __    __             
                 |  |  |  | |  | |    /  \     |  _  \  |  |  /  |          
                  \  \/   | |  | |   /    \    | | | |  |  | /  /          
                 / \  \   | |__| |  /  /\  \   | |_| |  |  |/  /          
                |  |  |   |  __  | /  /__\  \  |    /   |      \           
                |  |  |   | |  | | |   __   |  |    \   |  |\   \          
                \     /   | |  | | |  |  |  |  | |\  \  |  | \   \       
                 \___/    |_|  |_| |__|  |__|  |_| \__\ |__|  \__/        
                                                                              
                      - O R C A' S   B I G   F R I E N D -                    
                                      &                                       
                       - I N T E G R A L  F E E D E R -                       
                                                                              
 v1 FN, 2020, v2 2021                                                         
------------------------------------------------------------------------------


Reading SHARK input file /lustre/hpc/kemi/ree/PhD/git/ReactivityQM/calculations/R03/reac02prodE11/conf06/gfn1/orca_calc.SHARKINP.tmp ... ok
----------------------
SHARK INTEGRAL PACKAGE
----------------------

Number of atoms                             ...     46
Number of basis functions                   ...    649
Number of shells                            ...    305
Maximum angular momentum                    ...      2
Integral batch strategy                     ... SHARK/LIBINT Hybrid
RI-J (if used) integral strategy            ... SPLIT-RIJ (Revised 2003 algorithm where possible)
Printlevel                                  ...      1
Contraction scheme used                     ... SEGMENTED contraction
Coulomb Range Separation                    ... NOT USED
Exchange Range Separation                   ... NOT USED
Finite Nucleus Model                        ... NOT USED
Auxiliary Coulomb fitting basis             ... AVAILABLE
   # of basis functions in Aux-J            ...   1000
   # of shells in Aux-J                     ...    412
   Maximum angular momentum in Aux-J        ...      2
Auxiliary J/K fitting basis                 ... NOT available
Auxiliary Correlation fitting basis         ... NOT available
Auxiliary 'external' fitting basis          ... NOT available
Integral threshold                          ...     1.000000e-10
Primitive cut-off                           ...     1.000000e-11
Primitive pair pre-selection threshold      ...     1.000000e-11

Calculating pre-screening integrals         ... done (  0.2 sec) Dimension = 305
Organizing shell pair data                  ... done (  0.2 sec)
Shell pair information
Total number of shell pairs                 ...     46665
Shell pairs after pre-screening             ...     28654
Total number of primitive shell pairs       ...    168542
Primitive shell pairs kept                  ...     63846
          la=0 lb=0:   8304 shell pairs
          la=1 lb=0:  10456 shell pairs
          la=1 lb=1:   3297 shell pairs
          la=2 lb=0:   3777 shell pairs
          la=2 lb=1:   2371 shell pairs
          la=2 lb=2:    449 shell pairs

Calculating one electron integrals          ... done (  0.1 sec)
Calculating RI/J V-Matrix + Cholesky decomp.... done (  0.1 sec)
Calculating Nuclear repulsion               ... done (  0.0 sec) ENN=   2439.511900129101 Eh

SHARK setup successfully completed in   0.6 seconds

Maximum memory used throughout the entire GTOINT-calculation: 42.3 MB


           ************************************************************
           *        Program running with 4 parallel MPI-processes     *
           *              working on a common directory               *
           ************************************************************
-------------------------------------------------------------------------------
                                 ORCA SCF
-------------------------------------------------------------------------------

------------
SCF SETTINGS
------------
Hamiltonian:
 Density Functional     Method          .... DFT(GTOs)
  Functional kind                       .... Exchange
  Functional name                       .... Re-regularized SCAN exchange by Furness et al
  Functional family                     .... MGGA
  Functional refs                              
    [ 0] J. W. Furness, A. D. Kaplan, J. Ning, J. P. Perdew, and J. Sun, J. Phys. Chem. Lett. 11, 8208 (2020)
    [ 1] J. W. Furness, A. D. Kaplan, J. Ning, J. P. Perdew, and J. Sun, J. Phys. Chem. Lett. 11, 9248 (2020)
  Functional external parameters         .... 8
 Parameter  0 :         c1 parameter
 Parameter  1 :         c2 parameter
 Parameter  2 :          d parameter
 Parameter  3 :         k1 parameter
 Parameter  4 :       taur parameter
 Parameter  5 :     alphar parameter
 Parameter  6 :        eta parameter
 Parameter  7 :        dp2 parameter
  Functional kind                       .... Correlation
  Functional name                       .... Re-regularized SCAN correlation by Furness et al
  Functional family                     .... MGGA
  Functional refs                              
    [ 0] J. W. Furness, A. D. Kaplan, J. Ning, J. P. Perdew, and J. Sun, J. Phys. Chem. Lett. 11, 8208 (2020)
    [ 1] J. W. Furness, A. D. Kaplan, J. Ning, J. P. Perdew, and J. Sun, J. Phys. Chem. Lett. 11, 9248 (2020)
  Functional external parameters         .... 0
 Gradients option       PostSCFGGA      .... off
   Density functional embedding theory  .... OFF
 RI-approximation to the Coulomb term is turned on
   Number of AuxJ basis functions       .... 1000


General Settings:
 Integral files         IntName         .... /lustre/hpc/kemi/ree/PhD/git/ReactivityQM/calculations/R03/reac02prodE11/conf06/gfn1/orca_calc
 Hartree-Fock type      HFTyp           .... RHF
 Total Charge           Charge          ....   -1
 Multiplicity           Mult            ....    1
 Number of Electrons    NEL             ....  194
 Basis Dimension        Dim             ....  649
 Nuclear Repulsion      ENuc            ....   2439.5119001291 Eh

Convergence Acceleration:
 DIIS                   CNVDIIS         .... on
   Start iteration      DIISMaxIt       ....    12
   Startup error        DIISStart       ....  0.200000
   # of expansion vecs  DIISMaxEq       ....     5
   Bias factor          DIISBfac        ....   1.050
   Max. coefficient     DIISMaxC        ....  10.000
 Trust-Rad. Augm. Hess. CNVTRAH         .... auto
   Auto Start mean grad. ratio tolernc. ....  1.125000
   Auto Start start iteration           ....    20
   Auto Start num. interpolation iter.  ....    10
   Max. Number of Micro iterations      ....    16
   Max. Number of Macro iterations      .... Maxiter - #DIIS iter
   Number of Davidson start vectors     ....     2
   Converg. threshold I  (grad. norm)   ....   5.000e-05
   Converg. threshold II (energy diff.) ....   1.000e-06
   Grad. Scal. Fac. for Micro threshold ....   0.100
   Minimum threshold for Micro iter.    ....   0.010
   NR start threshold (gradient norm)   ....   0.001
   Initial trust radius                 ....   0.400
   Minimum AH scaling param. (alpha)    ....   1.000
   Maximum AH scaling param. (alpha)    .... 1000.000
   Orbital update algorithm             .... Taylor
   White noise on init. David. guess    .... on
   Maximum white noise                  ....   0.010
   Quad. conv. algorithm                .... NR
   COSX micro iterations for RIJONX calc.... off
 SOSCF                  CNVSOSCF        .... on
   Start iteration      SOSCFMaxIt      ....   150
   Startup grad/error   SOSCFStart      ....  0.003300
 Level Shifting         CNVShift        .... on
   Level shift para.    LevelShift      ....    0.2500
   Turn off err/grad.   ShiftErr        ....    0.0010
 Zerner damping         CNVZerner       .... off
 Static damping         CNVDamp         .... on
   Fraction old density DampFac         ....    0.7000
   Max. Damping (<1)    DampMax         ....    0.9800
   Min. Damping (>=0)   DampMin         ....    0.0000
   Turn off err/grad.   DampErr         ....    0.1000
 Fernandez-Rico         CNVRico         .... off

SCF Procedure:
 Maximum # iterations   MaxIter         ....   125
 SCF integral mode      SCFMode         .... Direct
   Integral package                     .... SHARK and LIBINT hybrid scheme
 Reset frequency        DirectResetFreq ....    20
 Integral Threshold     Thresh          ....  1.000e-10 Eh
 Primitive CutOff       TCut            ....  1.000e-11 Eh

Convergence Tolerance:
 Convergence Check Mode ConvCheckMode   .... Total+1el-Energy
 Convergence forced     ConvForced      .... 0
 Energy Change          TolE            ....  1.000e-06 Eh
 1-El. energy change                    ....  1.000e-03 Eh
 Orbital Gradient       TolG            ....  5.000e-05
 Orbital Rotation angle TolX            ....  5.000e-05
 DIIS Error             TolErr          ....  1.000e-06


Diagonalization of the overlap matrix:
Smallest eigenvalue                        ... 1.565e-05
Time for diagonalization                   ...    0.080 sec
Threshold for overlap eigenvalues          ... 1.000e-08
Number of eigenvalues below threshold      ... 0
Time for construction of square roots      ...    0.062 sec
Total time needed                          ...    0.144 sec

Time for model grid setup =    0.731 sec

------------------------------
INITIAL GUESS: MODEL POTENTIAL
------------------------------
Loading Hartree-Fock densities                     ... done
Calculating cut-offs                               ... done
Initializing the effective Hamiltonian             ... done
Setting up the integral package (SHARK)            ... done
Starting the Coulomb interaction                   ... done (   0.9 sec)
Reading the grid                                   ... done
Mapping shells                                     ... done
Starting the XC term evaluation                    ... done (   0.6 sec)
  promolecular density results
     # of electrons  =    192.992827539
     EX              =   -164.310464591
     EC              =     -6.550164160
     EX+EC           =   -170.860628751
Transforming the Hamiltonian                       ... done (   0.1 sec)
Diagonalizing the Hamiltonian                      ... done (   0.1 sec)
Back transforming the eigenvectors                 ... done (   0.0 sec)
Now organizing SCF variables                       ... done
                      ------------------
                      INITIAL GUESS DONE (   2.4 sec)
                      ------------------
-------------------
DFT GRID GENERATION
-------------------

General Integration Accuracy     IntAcc      ... 4.388
Radial Grid Type                 RadialGrid  ... OptM3 with GC (2021)
Angular Grid (max. ang.)         AngularGrid ... 4 (Lebedev-302)
Angular grid pruning method      GridPruning ... 4 (adaptive)
Weight generation scheme         WeightScheme... Becke
Basis function cutoff            BFCut       ... 1.0000e-10
Integration weight cutoff        WCut        ... 1.0000e-14
Angular grids for H and He will be reduced by one unit
Partially contracted basis set               ... off
Rotationally invariant grid construction     ... off

Total number of grid points                  ...   221076
Total number of batches                      ...     3475
Average number of points per batch           ...       63
Average number of grid points per atom       ...     4806
Time for grid setup =    2.448 sec


--------------------
CPCM SOLVATION MODEL
--------------------
CPCM parameters:
  Epsilon                                         ...      46.8260
  Refrac                                          ...       1.4170
  Rsolv                                           ...       1.3000
  Surface type                                    ... GAUSSIAN VDW
  Epsilon function type                           ...         CPCM
Solvent:                                     ... DMSO
SMD-CDS solvent descriptors:
  Soln                                       ...    1.4170
  Soln25                                     ...    1.4773
  Sola                                       ...    0.0000
  Solb                                       ...    0.8800
  Solg                                       ...   61.7800
  Solc                                       ...    0.0000
  Solh                                       ...    0.0000
Radii:
 Radius for C  used is    3.4960 Bohr (=   1.8500 Ang.)
 Radius for O  used is    4.3350 Bohr (=   2.2940 Ang.)
 Radius for N  used is    3.5716 Bohr (=   1.8900 Ang.)
 Radius for H  used is    2.2677 Bohr (=   1.2000 Ang.)
Calculating surface                               ...        done! (  0.0s)
GEPOL surface points                              ...         2261
GEPOL Volume                                      ...    2944.8982
GEPOL Surface-area                                ...    1464.8353
Calculating surface distance matrix               ...        done! (  0.0s)
Performing Cholesky decomposition & store         ...        done! (  0.2s)
Overall time for CPCM initialization              ...                 0.2s
--------------
SCF ITERATIONS
--------------
ITER       Energy         Delta-E        Max-DP      RMS-DP      [F,P]     Damp
               ***  Starting incremental Fock matrix formation  ***
  0  -1307.9106809451   0.000000000000 0.35575629  0.00215340  0.2884276 0.7000
  1  -1308.2828667490  -0.372185803886 0.27735285  0.00182062  0.1068826 0.7000
                               ***Turning on DIIS***
  2  -1308.4067211568  -0.123854407801 0.29913209  0.00275286  0.0352615 0.0000
  3  -1308.6263783803  -0.219657223532 0.26245136  0.00150311  0.0547792 0.0000
  4  -1308.6667909411  -0.040412560760 0.06106026  0.00049050  0.0239118 0.0000
  5  -1308.6720483982  -0.005257457130 0.03777244  0.00024513  0.0054761 0.0000
                      *** Initiating the SOSCF procedure ***
                           *** Shutting down DIIS ***
                      *** Re-Reading the Fockian *** 
                      *** Removing any level shift *** 
ITER      Energy       Delta-E        Grad      Rot      Max-DP    RMS-DP
  6  -1308.67220785  -0.0001594488  0.000705  0.000705  0.009223  0.000067
               *** Restarting incremental Fock matrix formation ***
  7  -1308.67225018  -0.0000423329  0.000189  0.000958  0.003815  0.000033
  8  -1308.67224616   0.0000040168  0.000599  0.002804  0.002239  0.000018
  9  -1308.67225387  -0.0000077043  0.000465  0.002834  0.001273  0.000017
 10  -1308.67225032   0.0000035481  0.000450  0.001179  0.001964  0.000014
 11  -1308.67225585  -0.0000055349  0.000065  0.000284  0.002117  0.000010
                 **** Energy Check signals convergence ****
              ***Rediagonalizing the Fockian in SOSCF/NRSCF***

               *****************************************************
               *                     SUCCESS                       *
               *           SCF CONVERGED AFTER  12 CYCLES          *
               *****************************************************


SMD CDS free energy correction energy :                -0.43710     Kcal/mol
Total Energy after SMD CDS correction =             -1308.672951719 Eh

----------------
TOTAL SCF ENERGY
----------------

Total Energy       :        -1308.67295172 Eh          -35610.80143 eV

Components:
Nuclear Repulsion  :         2439.51190013 Eh           66382.49362 eV
Electronic Energy  :        -3748.18485185 Eh         -101993.29506 eV
One Electron Energy:        -6658.81659095 Eh         -181195.61125 eV
Two Electron Energy:         2910.63173910 Eh           79202.31619 eV
CPCM Dielectric    :           -0.10392023 Eh              -2.82781 eV
SMD CDS (Gcds)     :           -0.00069657 Eh              -0.01895 eV

Virial components:
Potential Energy   :        -2612.12373428 Eh          -71079.50042 eV
Kinetic Energy     :         1303.45078257 Eh           35468.69899 eV
Virial Ratio       :            2.00400642


DFT components:
N(Alpha)           :       97.000084873310 electrons
N(Beta)            :       97.000084873310 electrons
N(Total)           :      194.000169746620 electrons
E(X)               :     -168.462808204942 Eh       
E(C)               :       -6.435762054173 Eh       
E(XC)              :     -174.898570259115 Eh       
DFET-embed. en.    :        0.000000000000 Eh       
CPCM Solvation Model Properties:
Surface-charge          :            0.95931579
Charge-correction       :           -0.00400466 Eh              -0.10897 eV
Free-energy (cav+disp)  :           -0.00069657 Eh              -0.01895 eV

---------------
SCF CONVERGENCE
---------------

  Last Energy change         ...    7.0156e-07  Tolerance :   1.0000e-06
  Last MAX-Density change    ...    7.7908e-04  Tolerance :   1.0000e-05
  Last RMS-Density change    ...    6.7073e-06  Tolerance :   1.0000e-06
  Last Orbital Gradient      ...    1.0359e-04  Tolerance :   5.0000e-05
  Last Orbital Rotation      ...    1.7726e-04  Tolerance :   5.0000e-05

             **** THE GBW FILE WAS UPDATED (/lustre/hpc/kemi/ree/PhD/git/ReactivityQM/calculations/R03/reac02prodE11/conf06/gfn1/orca_calc.gbw) ****
             **** DENSITY /lustre/hpc/kemi/ree/PhD/git/ReactivityQM/calculations/R03/reac02prodE11/conf06/gfn1/orca_calc.scfp WAS UPDATED ****
             **** ENERGY FILE WAS UPDATED (/lustre/hpc/kemi/ree/PhD/git/ReactivityQM/calculations/R03/reac02prodE11/conf06/gfn1/orca_calc.en.tmp) ****
             **** THE GBW FILE WAS UPDATED (/lustre/hpc/kemi/ree/PhD/git/ReactivityQM/calculations/R03/reac02prodE11/conf06/gfn1/orca_calc.gbw) ****
             **** DENSITY /lustre/hpc/kemi/ree/PhD/git/ReactivityQM/calculations/R03/reac02prodE11/conf06/gfn1/orca_calc.scfp WAS UPDATED ****
----------------
ORBITAL ENERGIES
----------------

  NO   OCC          E(Eh)            E(eV) 
   0   2.0000     -18.997834      -516.9573 
   1   2.0000     -18.996840      -516.9303 
   2   2.0000     -18.953289      -515.7452 
   3   2.0000     -18.935406      -515.2586 
   4   2.0000     -18.934513      -515.2343 
   5   2.0000     -18.882472      -513.8182 
   6   2.0000     -14.239056      -387.4644 
   7   2.0000     -14.165058      -385.4508 
   8   2.0000     -14.158786      -385.2802 
   9   2.0000     -14.157894      -385.2559 
  10   2.0000     -14.128255      -384.4494 
  11   2.0000     -10.158703      -276.4324 
  12   2.0000     -10.144105      -276.0351 
  13   2.0000     -10.120290      -275.3871 
  14   2.0000     -10.117920      -275.3226 
  15   2.0000     -10.100429      -274.8467 
  16   2.0000     -10.089888      -274.5598 
  17   2.0000     -10.088046      -274.5097 
  18   2.0000     -10.086078      -274.4561 
  19   2.0000     -10.074198      -274.1329 
  20   2.0000     -10.057197      -273.6702 
  21   2.0000     -10.055221      -273.6165 
  22   2.0000     -10.010162      -272.3904 
  23   2.0000     -10.004919      -272.2477 
  24   2.0000     -10.003330      -272.2044 
  25   2.0000     -10.003227      -272.2016 
  26   2.0000      -1.073705       -29.2170 
  27   2.0000      -1.053907       -28.6783 
  28   2.0000      -1.034656       -28.1544 
  29   2.0000      -1.016367       -27.6568 
  30   2.0000      -0.981108       -26.6973 
  31   2.0000      -0.965993       -26.2860 
  32   2.0000      -0.959077       -26.0978 
  33   2.0000      -0.912792       -24.8383 
  34   2.0000      -0.884799       -24.0766 
  35   2.0000      -0.869532       -23.6612 
  36   2.0000      -0.777017       -21.1437 
  37   2.0000      -0.761737       -20.7279 
  38   2.0000      -0.727671       -19.8009 
  39   2.0000      -0.712066       -19.3763 
  40   2.0000      -0.685415       -18.6511 
  41   2.0000      -0.668765       -18.1980 
  42   2.0000      -0.650414       -17.6987 
  43   2.0000      -0.644936       -17.5496 
  44   2.0000      -0.635872       -17.3030 
  45   2.0000      -0.620347       -16.8805 
  46   2.0000      -0.600156       -16.3311 
  47   2.0000      -0.557618       -15.1735 
  48   2.0000      -0.551538       -15.0081 
  49   2.0000      -0.539171       -14.6716 
  50   2.0000      -0.530009       -14.4223 
  51   2.0000      -0.507241       -13.8027 
  52   2.0000      -0.504573       -13.7301 
  53   2.0000      -0.494371       -13.4525 
  54   2.0000      -0.474984       -12.9250 
  55   2.0000      -0.462442       -12.5837 
  56   2.0000      -0.452750       -12.3199 
  57   2.0000      -0.446140       -12.1401 
  58   2.0000      -0.436149       -11.8682 
  59   2.0000      -0.423282       -11.5181 
  60   2.0000      -0.419759       -11.4222 
  61   2.0000      -0.415676       -11.3111 
  62   2.0000      -0.409066       -11.1313 
  63   2.0000      -0.402281       -10.9466 
  64   2.0000      -0.399202       -10.8628 
  65   2.0000      -0.393488       -10.7074 
  66   2.0000      -0.384714       -10.4686 
  67   2.0000      -0.375666       -10.2224 
  68   2.0000      -0.372217       -10.1285 
  69   2.0000      -0.367319        -9.9953 
  70   2.0000      -0.363616        -9.8945 
  71   2.0000      -0.358188        -9.7468 
  72   2.0000      -0.349242        -9.5034 
  73   2.0000      -0.349023        -9.4974 
  74   2.0000      -0.344800        -9.3825 
  75   2.0000      -0.340073        -9.2539 
  76   2.0000      -0.338477        -9.2104 
  77   2.0000      -0.336157        -9.1473 
  78   2.0000      -0.334110        -9.0916 
  79   2.0000      -0.329360        -8.9623 
  80   2.0000      -0.322400        -8.7729 
  81   2.0000      -0.318357        -8.6629 
  82   2.0000      -0.312456        -8.5024 
  83   2.0000      -0.307800        -8.3757 
  84   2.0000      -0.293742        -7.9931 
  85   2.0000      -0.273915        -7.4536 
  86   2.0000      -0.269427        -7.3315 
  87   2.0000      -0.268288        -7.3005 
  88   2.0000      -0.264842        -7.2067 
  89   2.0000      -0.257674        -7.0117 
  90   2.0000      -0.245188        -6.6719 
  91   2.0000      -0.239855        -6.5268 
  92   2.0000      -0.216185        -5.8827 
  93   2.0000      -0.209726        -5.7069 
  94   2.0000      -0.204101        -5.5539 
  95   2.0000      -0.190415        -5.1814 
  96   2.0000      -0.123210        -3.3527 
  97   0.0000      -0.088988        -2.4215 
  98   0.0000      -0.037372        -1.0169 
  99   0.0000      -0.029304        -0.7974 
 100   0.0000       0.015422         0.4197 
 101   0.0000       0.049214         1.3392 
 102   0.0000       0.069221         1.8836 
 103   0.0000       0.078524         2.1368 
 104   0.0000       0.084245         2.2924 
 105   0.0000       0.099393         2.7046 
 106   0.0000       0.100980         2.7478 
 107   0.0000       0.105839         2.8800 
 108   0.0000       0.108419         2.9502 
 109   0.0000       0.116629         3.1736 
 110   0.0000       0.126591         3.4447 
 111   0.0000       0.128325         3.4919 
 112   0.0000       0.131812         3.5868 
 113   0.0000       0.136299         3.7089 
 114   0.0000       0.140538         3.8242 
 115   0.0000       0.143730         3.9111 
 116   0.0000       0.146580         3.9886 
 117   0.0000       0.150125         4.0851 
 118   0.0000       0.152451         4.1484 
 119   0.0000       0.156606         4.2615 
 120   0.0000       0.157530         4.2866 
 121   0.0000       0.159041         4.3277 
 122   0.0000       0.162546         4.4231 
 123   0.0000       0.166565         4.5325 
 124   0.0000       0.174344         4.7441 
 125   0.0000       0.179262         4.8780 
 126   0.0000       0.181679         4.9437 
 127   0.0000       0.183225         4.9858 
 128   0.0000       0.185950         5.0599 
 129   0.0000       0.190408         5.1813 
 130   0.0000       0.192048         5.2259 
 131   0.0000       0.196381         5.3438 
 132   0.0000       0.199488         5.4283 
 133   0.0000       0.200623         5.4592 
 134   0.0000       0.205138         5.5821 
 135   0.0000       0.206764         5.6263 
 136   0.0000       0.211626         5.7586 
 137   0.0000       0.213739         5.8161 
 138   0.0000       0.215788         5.8719 
 139   0.0000       0.220961         6.0127 
 140   0.0000       0.224590         6.1114 
 141   0.0000       0.226042         6.1509 
 142   0.0000       0.231667         6.3040 
 143   0.0000       0.233750         6.3607 
 144   0.0000       0.235955         6.4207 
 145   0.0000       0.238072         6.4783 
 146   0.0000       0.240995         6.5578 
 147   0.0000       0.245577         6.6825 
 148   0.0000       0.248467         6.7611 
 149   0.0000       0.253999         6.9117 
 150   0.0000       0.260008         7.0752 
 151   0.0000       0.263673         7.1749 
 152   0.0000       0.268374         7.3028 
 153   0.0000       0.272868         7.4251 
 154   0.0000       0.280137         7.6229 
 155   0.0000       0.283377         7.7111 
 156   0.0000       0.289343         7.8734 
 157   0.0000       0.290534         7.9058 
 158   0.0000       0.294164         8.0046 
 159   0.0000       0.297474         8.0947 
 160   0.0000       0.306433         8.3385 
 161   0.0000       0.307382         8.3643 
 162   0.0000       0.311821         8.4851 
 163   0.0000       0.319697         8.6994 
 164   0.0000       0.324377         8.8267 
 165   0.0000       0.329907         8.9772 
 166   0.0000       0.333355         9.0711 
 167   0.0000       0.337345         9.1796 
 168   0.0000       0.339090         9.2271 
 169   0.0000       0.342494         9.3197 
 170   0.0000       0.346990         9.4421 
 171   0.0000       0.350596         9.5402 
 172   0.0000       0.357382         9.7249 
 173   0.0000       0.365042         9.9333 
 174   0.0000       0.369311        10.0495 
 175   0.0000       0.378778        10.3071 
 176   0.0000       0.380800        10.3621 
 177   0.0000       0.386527        10.5179 
 178   0.0000       0.387169        10.5354 
 179   0.0000       0.393017        10.6945 
 180   0.0000       0.397443        10.8150 
 181   0.0000       0.401939        10.9373 
 182   0.0000       0.405714        11.0400 
 183   0.0000       0.410083        11.1589 
 184   0.0000       0.414938        11.2910 
 185   0.0000       0.417056        11.3487 
 186   0.0000       0.425463        11.5774 
 187   0.0000       0.432050        11.7567 
 188   0.0000       0.434060        11.8114 
 189   0.0000       0.438264        11.9258 
 190   0.0000       0.440136        11.9767 
 191   0.0000       0.451750        12.2927 
 192   0.0000       0.456623        12.4253 
 193   0.0000       0.477610        12.9964 
 194   0.0000       0.479345        13.0436 
 195   0.0000       0.479919        13.0593 
 196   0.0000       0.485233        13.2039 
 197   0.0000       0.486408        13.2358 
 198   0.0000       0.493576        13.4309 
 199   0.0000       0.497889        13.5482 
 200   0.0000       0.499607        13.5950 
 201   0.0000       0.501373        13.6431 
 202   0.0000       0.506427        13.7806 
 203   0.0000       0.508359        13.8332 
 204   0.0000       0.513600        13.9758 
 205   0.0000       0.516163        14.0455 
 206   0.0000       0.523444        14.2436 
 207   0.0000       0.527749        14.3608 
 208   0.0000       0.537058        14.6141 
 209   0.0000       0.538643        14.6572 
 210   0.0000       0.548095        14.9144 
 211   0.0000       0.553570        15.0634 
 212   0.0000       0.564909        15.3719 
 213   0.0000       0.568285        15.4638 
 214   0.0000       0.572873        15.5887 
 215   0.0000       0.576412        15.6850 
 216   0.0000       0.581129        15.8133 
 217   0.0000       0.586061        15.9475 
 218   0.0000       0.589100        16.0302 
 219   0.0000       0.593925        16.1615 
 220   0.0000       0.603320        16.4172 
 221   0.0000       0.615498        16.7486 
 222   0.0000       0.616046        16.7635 
 223   0.0000       0.619379        16.8542 
 224   0.0000       0.629243        17.1226 
 225   0.0000       0.640669        17.4335 
 226   0.0000       0.643564        17.5123 
 227   0.0000       0.647818        17.6280 
 228   0.0000       0.652693        17.7607 
 229   0.0000       0.655619        17.8403 
 230   0.0000       0.658477        17.9181 
 231   0.0000       0.661819        18.0090 
 232   0.0000       0.666020        18.1233 
 233   0.0000       0.677593        18.4383 
 234   0.0000       0.679279        18.4841 
 235   0.0000       0.686907        18.6917 
 236   0.0000       0.694737        18.9048 
 237   0.0000       0.699566        19.0362 
 238   0.0000       0.701486        19.0884 
 239   0.0000       0.703426        19.1412 
 240   0.0000       0.710106        19.3230 
 241   0.0000       0.713196        19.4070 
 242   0.0000       0.715225        19.4623 
 243   0.0000       0.722721        19.6662 
 244   0.0000       0.731219        19.8975 
 245   0.0000       0.736012        20.0279 
 246   0.0000       0.742337        20.2000 
 247   0.0000       0.744595        20.2614 
 248   0.0000       0.747499        20.3405 
 249   0.0000       0.754879        20.5413 
 250   0.0000       0.762284        20.7428 
 251   0.0000       0.768229        20.9046 
 252   0.0000       0.770773        20.9738 
 253   0.0000       0.779009        21.1979 
 254   0.0000       0.785924        21.3861 
 255   0.0000       0.791592        21.5403 
 256   0.0000       0.794692        21.6247 
 257   0.0000       0.801178        21.8012 
 258   0.0000       0.803057        21.8523 
 259   0.0000       0.810556        22.0564 
 260   0.0000       0.813411        22.1340 
 261   0.0000       0.826922        22.5017 
 262   0.0000       0.836407        22.7598 
 263   0.0000       0.841241        22.8913 
 264   0.0000       0.847260        23.0551 
 265   0.0000       0.857144        23.3241 
 266   0.0000       0.861897        23.4534 
 267   0.0000       0.865410        23.5490 
 268   0.0000       0.878612        23.9083 
 269   0.0000       0.880470        23.9588 
 270   0.0000       0.887068        24.1384 
 271   0.0000       0.890701        24.2372 
 272   0.0000       0.896522        24.3956 
 273   0.0000       0.901103        24.5203 
 274   0.0000       0.907358        24.6905 
 275   0.0000       0.912119        24.8200 
 276   0.0000       0.920067        25.0363 
 277   0.0000       0.928845        25.2751 
 278   0.0000       0.934255        25.4224 
 279   0.0000       0.939189        25.5566 
 280   0.0000       0.946565        25.7573 
 281   0.0000       0.953575        25.9481 
 282   0.0000       0.973110        26.4797 
 283   0.0000       0.977414        26.5968 
 284   0.0000       0.980099        26.6699 
 285   0.0000       0.989834        26.9348 
 286   0.0000       0.997477        27.1427 
 287   0.0000       1.015753        27.6400 
 288   0.0000       1.021959        27.8089 
 289   0.0000       1.028466        27.9860 
 290   0.0000       1.040298        28.3080 
 291   0.0000       1.047798        28.5120 
 292   0.0000       1.049031        28.5456 
 293   0.0000       1.058071        28.7916 
 294   0.0000       1.063650        28.9434 
 295   0.0000       1.074062        29.2267 
 296   0.0000       1.079148        29.3651 
 297   0.0000       1.089754        29.6537 
 298   0.0000       1.104112        30.0444 
 299   0.0000       1.115479        30.3537 
 300   0.0000       1.118423        30.4338 
 301   0.0000       1.129414        30.7329 
 302   0.0000       1.132361        30.8131 
 303   0.0000       1.141385        31.0587 
 304   0.0000       1.146077        31.1863 
 305   0.0000       1.150251        31.2999 
 306   0.0000       1.155938        31.4547 
 307   0.0000       1.161540        31.6071 
 308   0.0000       1.164972        31.7005 
 309   0.0000       1.174363        31.9561 
 310   0.0000       1.183997        32.2182 
 311   0.0000       1.189413        32.3656 
 312   0.0000       1.200714        32.6731 
 313   0.0000       1.205587        32.8057 
 314   0.0000       1.213021        33.0080 
 315   0.0000       1.219470        33.1835 
 316   0.0000       1.230896        33.4944 
 317   0.0000       1.241352        33.7789 
 318   0.0000       1.242487        33.8098 
 319   0.0000       1.256966        34.2038 
 320   0.0000       1.263213        34.3738 
 321   0.0000       1.280794        34.8522 
 322   0.0000       1.296377        35.2762 
 323   0.0000       1.302112        35.4323 
 324   0.0000       1.310867        35.6705 
 325   0.0000       1.321343        35.9556 
 326   0.0000       1.332513        36.2595 
 327   0.0000       1.337344        36.3910 
 328   0.0000       1.340475        36.4762 
 329   0.0000       1.346742        36.6467 
 330   0.0000       1.351172        36.7673 
 331   0.0000       1.355015        36.8718 
 332   0.0000       1.371411        37.3180 
 333   0.0000       1.375044        37.4168 
 334   0.0000       1.380906        37.5764 
 335   0.0000       1.386610        37.7316 
 336   0.0000       1.396006        37.9872 
 337   0.0000       1.400895        38.1203 
 338   0.0000       1.404977        38.2314 
 339   0.0000       1.410543        38.3828 
 340   0.0000       1.422523        38.7088 
 341   0.0000       1.431467        38.9522 
 342   0.0000       1.437137        39.1065 
 343   0.0000       1.442397        39.2496 
 344   0.0000       1.451145        39.4877 
 345   0.0000       1.459552        39.7164 
 346   0.0000       1.460726        39.7484 
 347   0.0000       1.471944        40.0536 
 348   0.0000       1.486936        40.4616 
 349   0.0000       1.501590        40.8603 
 350   0.0000       1.508093        41.0373 
 351   0.0000       1.519894        41.3584 
 352   0.0000       1.520986        41.3881 
 353   0.0000       1.542983        41.9867 
 354   0.0000       1.555309        42.3221 
 355   0.0000       1.562459        42.5167 
 356   0.0000       1.568118        42.6707 
 357   0.0000       1.571943        42.7748 
 358   0.0000       1.574130        42.8343 
 359   0.0000       1.582313        43.0569 
 360   0.0000       1.596737        43.4494 
 361   0.0000       1.605220        43.6803 
 362   0.0000       1.646463        44.8025 
 363   0.0000       1.658085        45.1188 
 364   0.0000       1.658969        45.1428 
 365   0.0000       1.672302        45.5057 
 366   0.0000       1.681265        45.7495 
 367   0.0000       1.695925        46.1485 
 368   0.0000       1.701949        46.3124 
 369   0.0000       1.732795        47.1518 
 370   0.0000       1.735756        47.2323 
 371   0.0000       1.753436        47.7134 
 372   0.0000       1.759188        47.8699 
 373   0.0000       1.763330        47.9827 
 374   0.0000       1.774166        48.2775 
 375   0.0000       1.780868        48.4599 
 376   0.0000       1.790740        48.7285 
 377   0.0000       1.800426        48.9921 
 378   0.0000       1.803110        49.0651 
 379   0.0000       1.811256        49.2868 
 380   0.0000       1.812223        49.3131 
 381   0.0000       1.829828        49.7922 
 382   0.0000       1.832682        49.8698 
 383   0.0000       1.845631        50.2222 
 384   0.0000       1.856568        50.5198 
 385   0.0000       1.860998        50.6403 
 386   0.0000       1.867228        50.8099 
 387   0.0000       1.869514        50.8721 
 388   0.0000       1.878288        51.1108 
 389   0.0000       1.882105        51.2147 
 390   0.0000       1.886513        51.3346 
 391   0.0000       1.896482        51.6059 
 392   0.0000       1.900532        51.7161 
 393   0.0000       1.902501        51.7697 
 394   0.0000       1.907213        51.8979 
 395   0.0000       1.916921        52.1621 
 396   0.0000       1.919374        52.2288 
 397   0.0000       1.929844        52.5137 
 398   0.0000       1.942335        52.8536 
 399   0.0000       1.960760        53.3550 
 400   0.0000       1.981563        53.9211 
 401   0.0000       1.988455        54.1086 
 402   0.0000       2.001865        54.4735 
 403   0.0000       2.011789        54.7436 
 404   0.0000       2.027808        55.1795 
 405   0.0000       2.032581        55.3093 
 406   0.0000       2.047824        55.7241 
 407   0.0000       2.051744        55.8308 
 408   0.0000       2.066579        56.2345 
 409   0.0000       2.078658        56.5631 
 410   0.0000       2.081335        56.6360 
 411   0.0000       2.084092        56.7110 
 412   0.0000       2.093773        56.9745 
 413   0.0000       2.101670        57.1894 
 414   0.0000       2.113213        57.5034 
 415   0.0000       2.126120        57.8547 
 416   0.0000       2.127082        57.8808 
 417   0.0000       2.135843        58.1192 
 418   0.0000       2.137339        58.1600 
 419   0.0000       2.146088        58.3980 
 420   0.0000       2.147189        58.4280 
 421   0.0000       2.154798        58.6350 
 422   0.0000       2.173634        59.1476 
 423   0.0000       2.179312        59.3021 
 424   0.0000       2.180115        59.3240 
 425   0.0000       2.185777        59.4780 
 426   0.0000       2.189970        59.5921 
 427   0.0000       2.203333        59.9557 
 428   0.0000       2.206451        60.0406 
 429   0.0000       2.222871        60.4874 
 430   0.0000       2.252564        61.2954 
 431   0.0000       2.264118        61.6098 
 432   0.0000       2.269482        61.7557 
 433   0.0000       2.275226        61.9121 
 434   0.0000       2.284085        62.1531 
 435   0.0000       2.293137        62.3994 
 436   0.0000       2.306105        62.7523 
 437   0.0000       2.308224        62.8100 
 438   0.0000       2.310290        62.8662 
 439   0.0000       2.318864        63.0995 
 440   0.0000       2.324297        63.2473 
 441   0.0000       2.334030        63.5122 
 442   0.0000       2.341165        63.7063 
 443   0.0000       2.343793        63.7778 
 444   0.0000       2.349135        63.9232 
 445   0.0000       2.354935        64.0810 
 446   0.0000       2.357188        64.1424 
 447   0.0000       2.369840        64.4866 
 448   0.0000       2.380764        64.7839 
 449   0.0000       2.387592        64.9697 
 450   0.0000       2.403936        65.4144 
 451   0.0000       2.405694        65.4623 
 452   0.0000       2.410875        65.6032 
 453   0.0000       2.418479        65.8102 
 454   0.0000       2.422663        65.9240 
 455   0.0000       2.429694        66.1153 
 456   0.0000       2.430744        66.1439 
 457   0.0000       2.437310        66.3226 
 458   0.0000       2.440196        66.4011 
 459   0.0000       2.449198        66.6461 
 460   0.0000       2.453118        66.7527 
 461   0.0000       2.457252        66.8652 
 462   0.0000       2.469531        67.1993 
 463   0.0000       2.477556        67.4177 
 464   0.0000       2.485202        67.6258 
 465   0.0000       2.491141        67.7874 
 466   0.0000       2.501221        68.0617 
 467   0.0000       2.505990        68.1915 
 468   0.0000       2.507217        68.2249 
 469   0.0000       2.520543        68.5875 
 470   0.0000       2.533214        68.9323 
 471   0.0000       2.544298        69.2339 
 472   0.0000       2.555790        69.5466 
 473   0.0000       2.566924        69.8496 
 474   0.0000       2.570086        69.9356 
 475   0.0000       2.580351        70.2149 
 476   0.0000       2.591282        70.5124 
 477   0.0000       2.603680        70.8497 
 478   0.0000       2.609094        70.9971 
 479   0.0000       2.624213        71.4085 
 480   0.0000       2.636476        71.7422 
 481   0.0000       2.641935        71.8907 
 482   0.0000       2.644213        71.9527 
 483   0.0000       2.647903        72.0531 
 484   0.0000       2.659651        72.3728 
 485   0.0000       2.661338        72.4187 
 486   0.0000       2.666948        72.5713 
 487   0.0000       2.674771        72.7842 
 488   0.0000       2.684587        73.0513 
 489   0.0000       2.691398        73.2367 
 490   0.0000       2.692639        73.2704 
 491   0.0000       2.697936        73.4146 
 492   0.0000       2.702018        73.5257 
 493   0.0000       2.704892        73.6039 
 494   0.0000       2.713334        73.8336 
 495   0.0000       2.721511        74.0561 
 496   0.0000       2.729444        74.2719 
 497   0.0000       2.738162        74.5092 
 498   0.0000       2.740488        74.5725 
 499   0.0000       2.744245        74.6747 
 500   0.0000       2.762138        75.1616 
 501   0.0000       2.772298        75.4381 
 502   0.0000       2.774969        75.5108 
 503   0.0000       2.787520        75.8523 
 504   0.0000       2.794982        76.0553 
 505   0.0000       2.804255        76.3076 
 506   0.0000       2.808247        76.4163 
 507   0.0000       2.812878        76.5423 
 508   0.0000       2.819668        76.7271 
 509   0.0000       2.822107        76.7934 
 510   0.0000       2.828461        76.9663 
 511   0.0000       2.833269        77.0972 
 512   0.0000       2.842893        77.3591 
 513   0.0000       2.845973        77.4429 
 514   0.0000       2.858389        77.7807 
 515   0.0000       2.864059        77.9350 
 516   0.0000       2.864309        77.9418 
 517   0.0000       2.877798        78.3089 
 518   0.0000       2.881726        78.4157 
 519   0.0000       2.895180        78.7818 
 520   0.0000       2.900967        78.9393 
 521   0.0000       2.909754        79.1784 
 522   0.0000       2.917810        79.3977 
 523   0.0000       2.923582        79.5547 
 524   0.0000       2.933514        79.8250 
 525   0.0000       2.936371        79.9027 
 526   0.0000       2.939644        79.9918 
 527   0.0000       2.947929        80.2172 
 528   0.0000       2.949285        80.2541 
 529   0.0000       2.962020        80.6007 
 530   0.0000       2.972043        80.8734 
 531   0.0000       2.982079        81.1465 
 532   0.0000       2.983215        81.1774 
 533   0.0000       2.992889        81.4407 
 534   0.0000       3.004053        81.7444 
 535   0.0000       3.011582        81.9493 
 536   0.0000       3.019825        82.1736 
 537   0.0000       3.025620        82.3313 
 538   0.0000       3.029982        82.4500 
 539   0.0000       3.034253        82.5662 
 540   0.0000       3.034916        82.5843 
 541   0.0000       3.044502        82.8451 
 542   0.0000       3.049501        82.9811 
 543   0.0000       3.059557        83.2548 
 544   0.0000       3.065712        83.4223 
 545   0.0000       3.072019        83.5939 
 546   0.0000       3.085624        83.9641 
 547   0.0000       3.091938        84.1359 
 548   0.0000       3.103952        84.4628 
 549   0.0000       3.111030        84.6554 
 550   0.0000       3.117770        84.8388 
 551   0.0000       3.133747        85.2736 
 552   0.0000       3.137502        85.3758 
 553   0.0000       3.139088        85.4189 
 554   0.0000       3.148442        85.6735 
 555   0.0000       3.162502        86.0560 
 556   0.0000       3.167271        86.1858 
 557   0.0000       3.178767        86.4986 
 558   0.0000       3.200028        87.0772 
 559   0.0000       3.208206        87.2997 
 560   0.0000       3.233553        87.9895 
 561   0.0000       3.252170        88.4960 
 562   0.0000       3.256033        88.6012 
 563   0.0000       3.270806        89.0032 
 564   0.0000       3.293188        89.6122 
 565   0.0000       3.296665        89.7068 
 566   0.0000       3.301616        89.8416 
 567   0.0000       3.310072        90.0716 
 568   0.0000       3.311618        90.1137 
 569   0.0000       3.322986        90.4230 
 570   0.0000       3.333376        90.7058 
 571   0.0000       3.348732        91.1236 
 572   0.0000       3.351520        91.1995 
 573   0.0000       3.365028        91.5671 
 574   0.0000       3.380827        91.9970 
 575   0.0000       3.387836        92.1877 
 576   0.0000       3.409032        92.7645 
 577   0.0000       3.431138        93.3660 
 578   0.0000       3.434995        93.4710 
 579   0.0000       3.479635        94.6857 
 580   0.0000       3.501141        95.2709 
 581   0.0000       3.511293        95.5471 
 582   0.0000       3.528104        96.0046 
 583   0.0000       3.542472        96.3956 
 584   0.0000       3.546070        96.4935 
 585   0.0000       3.555697        96.7554 
 586   0.0000       3.567751        97.0834 
 587   0.0000       3.570307        97.1530 
 588   0.0000       3.586121        97.5833 
 589   0.0000       3.589342        97.6710 
 590   0.0000       3.592780        97.7645 
 591   0.0000       3.595713        97.8443 
 592   0.0000       3.612661        98.3055 
 593   0.0000       3.622929        98.5849 
 594   0.0000       3.635556        98.9285 
 595   0.0000       3.646001        99.2127 
 596   0.0000       3.649969        99.3207 
 597   0.0000       3.656884        99.5089 
 598   0.0000       3.667567        99.7996 
 599   0.0000       3.671024        99.8937 
 600   0.0000       3.699108       100.6578 
 601   0.0000       3.716740       101.1377 
 602   0.0000       3.728006       101.4442 
 603   0.0000       3.768559       102.5477 
 604   0.0000       3.821241       103.9813 
 605   0.0000       3.894577       105.9768 
 606   0.0000       3.928706       106.9055 
 607   0.0000       3.968826       107.9972 
 608   0.0000       4.000336       108.8547 
 609   0.0000       4.013347       109.2087 
 610   0.0000       4.028660       109.6254 
 611   0.0000       4.049309       110.1873 
 612   0.0000       4.149649       112.9177 
 613   0.0000       4.172314       113.5344 
 614   0.0000       4.265569       116.0720 
 615   0.0000       4.315654       117.4349 
 616   0.0000       4.344534       118.2208 
 617   0.0000       4.365304       118.7860 
 618   0.0000       4.442828       120.8955 
 619   0.0000       4.487937       122.1230 
 620   0.0000       4.521791       123.0442 
 621   0.0000       4.631969       126.0423 
 622   0.0000       4.673059       127.1604 
 623   0.0000      21.968518       597.7938 
 624   0.0000      22.008812       598.8902 
 625   0.0000      22.018222       599.1463 
 626   0.0000      22.026186       599.3630 
 627   0.0000      22.055199       600.1525 
 628   0.0000      22.126378       602.0894 
 629   0.0000      22.189450       603.8056 
 630   0.0000      22.217545       604.5701 
 631   0.0000      22.284404       606.3895 
 632   0.0000      22.303498       606.9090 
 633   0.0000      22.322233       607.4188 
 634   0.0000      22.336322       607.8022 
 635   0.0000      22.378243       608.9430 
 636   0.0000      22.429209       610.3298 
 637   0.0000      22.492462       612.0510 
 638   0.0000      32.032772       871.6560 
 639   0.0000      32.075724       872.8248 
 640   0.0000      32.156802       875.0311 
 641   0.0000      32.198622       876.1691 
 642   0.0000      32.230559       877.0381 
 643   0.0000      43.646082      1187.6703 
 644   0.0000      43.754624      1190.6239 
 645   0.0000      43.764528      1190.8934 
 646   0.0000      43.878049      1193.9824 
 647   0.0000      43.887095      1194.2286 
 648   0.0000      43.974135      1196.5971 

                    ********************************
                    * MULLIKEN POPULATION ANALYSIS *
                    ********************************

-----------------------
MULLIKEN ATOMIC CHARGES
-----------------------
   0 C :   -0.314890
   1 O :   -0.160213
   2 C :    0.114243
   3 O :   -0.401733
   4 C :    0.154594
   5 N :   -0.120406
   6 C :    0.112202
   7 C :    0.074794
   8 C :   -0.583578
   9 C :   -0.697885
  10 N :   -0.194938
  11 C :   -0.236905
  12 O :   -0.478855
  13 C :    0.212196
  14 N :   -0.133835
  15 N :   -0.365058
  16 C :    0.217904
  17 C :   -0.568582
  18 C :   -0.563632
  19 O :   -0.169469
  20 N :    0.251498
  21 C :   -0.466613
  22 C :    0.187478
  23 O :   -0.491259
  24 C :    0.036440
  25 O :   -0.349891
  26 H :    0.175592
  27 H :    0.174794
  28 H :    0.174541
  29 H :    0.182239
  30 H :    0.178218
  31 H :    0.205620
  32 H :    0.182456
  33 H :    0.190701
  34 H :    0.192944
  35 H :    0.310687
  36 H :    0.170555
  37 H :    0.165528
  38 H :    0.164104
  39 H :    0.166083
  40 H :    0.164030
  41 H :    0.170310
  42 H :    0.190446
  43 H :    0.200404
  44 H :    0.220105
  45 H :    0.357033
Sum of atomic charges:   -1.0000000

--------------------------------
MULLIKEN REDUCED ORBITAL CHARGES
--------------------------------
  0 C s       :     3.330662  s :     3.330662
      pz      :     0.806913  p :     2.939582
      px      :     1.032553
      py      :     1.100117
      dz2     :     0.010424  d :     0.044646
      dxz     :     0.013155
      dyz     :     0.009787
      dx2y2   :     0.002580
      dxy     :     0.008700
  1 O s       :     3.694081  s :     3.694081
      pz      :     1.496095  p :     4.419939
      px      :     1.391319
      py      :     1.532525
      dz2     :     0.025503  d :     0.046192
      dxz     :     0.003995
      dyz     :     0.006520
      dx2y2   :     0.003186
      dxy     :     0.006988
  2 C s       :     3.196454  s :     3.196454
      pz      :     0.882183  p :     2.562073
[...]
      dyz     :     0.053403
      dx2y2   :     0.018303
      dxy     :     0.028189
  4 C s       :     2.766365  s :     2.766365
      pz      :     0.978170  p :     2.898168
      px      :     0.959738
      py      :     0.960260
      dz2     :     0.030583  d :     0.130365
      dxz     :     0.034628
      dyz     :     0.026618
      dx2y2   :     0.018209
      dxy     :     0.020326
  5 N s       :     3.189115  s :     3.189115
      pz      :     1.431427  p :     3.864139
      px      :     1.201709
      py      :     1.231003
      dz2     :     0.106588  d :     0.520610
      dxz     :     0.107294
      dyz     :     0.083158
      dx2y2   :     0.116376
      dxy     :     0.107194
  6 C s       :     2.711338  s :     2.711338
      pz      :     0.951682  p :     2.740741
      px      :     0.905980
      py      :     0.883080
      dz2     :     0.060872  d :     0.173110
      dxz     :     0.042008
      dyz     :     0.040611
      dx2y2   :     0.011682
      dxy     :     0.017936
  7 C s       :     2.785310  s :     2.785310
      pz      :     1.034724  p :     2.974178
      px      :     0.933856
      py      :     1.005598
      dz2     :     0.036812  d :     0.135715
      dxz     :     0.026289
      dyz     :     0.017366
      dx2y2   :     0.021745
      dxy     :     0.033504
  8 C s       :     2.959888  s :     2.959888
      pz      :     1.140117  p :     3.331125
      px      :     1.134781
      py      :     1.056226
      dz2     :     0.018836  d :     0.061269
      dxz     :     0.006858
      dyz     :     0.007998
      dx2y2   :     0.013235
      dxy     :     0.014341
  9 C s       :     2.961271  s :     2.961271
      pz      :     1.025532  p :     3.327771
      px      :     1.147680
      py      :     1.154559
      dz2     :     0.017762  d :     0.062631
      dxz     :     0.011756
      dyz     :     0.010475
      dx2y2   :     0.007514
      dxy     :     0.015124
 10 N s       :     3.143747  s :     3.143747
      pz      :     1.575767  p :     3.986018
      px      :     1.194990
      py      :     1.215262
      dz2     :     0.095832  d :     0.539682
      dxz     :     0.119335
      dyz     :     0.043543
      dx2y2   :     0.145818
      dxy     :     0.135154
 11 C s       :     2.718485  s :     2.718485
      pz      :     0.818168  p :     2.703110
      px      :     0.925928
      py      :     0.959014
      dz2     :     0.019632  d :     0.236887
      dxz     :     0.026670
      dyz     :     0.042450
      dx2y2   :     0.049568
      dxy     :     0.098566
 12 O s       :     3.557591  s :     3.557591
      pz      :     1.552984  p :     4.772129
      px      :     1.755779
      py      :     1.463365
      dz2     :     0.034760  d :     0.238991
      dxz     :     0.018132
      dyz     :     0.056565
      dx2y2   :     0.062973
      dxy     :     0.066561
 13 C s       :     2.716731  s :     2.716731
      pz      :     0.988350  p :     2.804768
      px      :     0.978425
      py      :     0.837994
      dz2     :     0.015677  d :     0.168236
      dxz     :     0.017867
      dyz     :     0.026626
      dx2y2   :     0.059594
      dxy     :     0.048472
 14 N s       :     3.153538  s :     3.153538
      pz      :     1.075145  p :     3.636356
      px      :     1.166419
      py      :     1.394793
      dz2     :     0.067347  d :     0.640903
      dxz     :     0.168706
      dyz     :     0.059380
      dx2y2   :     0.180308
      dxy     :     0.165162
 15 N s       :     3.204412  s :     3.204412
      pz      :     1.234993  p :     3.734337
      px      :     1.403199
      py      :     1.096145
      dz2     :     0.063912  d :     0.545460
      dxz     :     0.055538
      dyz     :     0.110444
      dx2y2   :     0.177416
      dxy     :     0.138150
 16 C s       :     2.750983  s :     2.750983
      pz      :     1.010291  p :     2.829994
      px      :     0.835775
      py      :     0.983928
      dz2     :     0.037917  d :     0.181252
      dxz     :     0.026669
      dyz     :     0.036919
      dx2y2   :     0.038950
      dxy     :     0.040797
 17 C s       :     2.975849  s :     2.975849
      pz      :     1.054111  p :     3.336128
      px      :     1.146636
      py      :     1.135381
      dz2     :     0.017087  d :     0.060096
      dxz     :     0.005451
      dyz     :     0.015375
      dx2y2   :     0.010428
      dxy     :     0.011755
 18 C s       :     2.975876  s :     2.975876
      pz      :     1.111572  p :     3.336180
      px      :     1.139064
      py      :     1.085543
      dz2     :     0.018817  d :     0.060076
      dxz     :     0.003432
      dyz     :     0.012619
      dx2y2   :     0.011785
      dxy     :     0.013423
 19 O s       :     3.477639  s :     3.477639
      pz      :     1.773656  p :     4.645476
      px      :     1.469244
      py      :     1.402576
      dz2     :     0.061171  d :     0.449799
      dxz     :     0.069655
      dyz     :     0.079888
      dx2y2   :     0.126602
      dxy     :     0.112482
 20 N s       :     3.078921  s :     3.078921
      pz      :     1.198215  p :     3.832519
      px      :     1.300261
      py      :     1.334043
      dz2     :     0.183481  d :     0.712049
      dxz     :     0.169392
      dyz     :     0.164135
      dx2y2   :     0.093975
      dxy     :     0.101065
 21 C s       :     2.880390  s :     2.880390
      pz      :     0.929350  p :     3.122314
      px      :     1.087182
      py      :     1.105782
      dz2     :     0.017116  d :     0.083723
      dxz     :     0.019838
      dyz     :     0.024753
      dx2y2   :     0.008967
      dxy     :     0.013048
 22 C s       :     2.705197  s :     2.705197
      pz      :     0.971982  p :     2.678210
      px      :     0.866240
      py      :     0.839988
      dz2     :     0.071545  d :     0.239176
      dxz     :     0.059296
      dyz     :     0.049035
      dx2y2   :     0.025643
      dxy     :     0.033658
 23 O s       :     3.548142  s :     3.548142
      pz      :     1.525805  p :     4.706569
      px      :     1.612121
      py      :     1.568643
      dz2     :     0.076602  d :     0.241594
      dxz     :     0.061427
      dyz     :     0.056903
      dx2y2   :     0.018267
      dxy     :     0.028396
 24 C s       :     2.766700  s :     2.766700
      pz      :     1.008363  p :     2.793600
      px      :     0.891718
      py      :     0.893519
      dz2     :     0.032180  d :     0.158994
      dxz     :     0.036105
      dyz     :     0.028536
      dx2y2   :     0.032740
      dxy     :     0.029432
 25 O s       :     3.473500  s :     3.473500
      pz      :     1.475884  p :     4.681436
      px      :     1.591964
      py      :     1.613588
      dz2     :     0.078701  d :     0.285579
      dxz     :     0.047756
      dyz     :     0.039242
      dx2y2   :     0.061326
      dxy     :     0.058554
 26 H s       :     0.774449  s :     0.774449
      pz      :     0.006166  p :     0.040550
      px      :     0.016979
      py      :     0.017404
 27 H s       :     0.777461  s :     0.777461
      pz      :     0.008980  p :     0.041280
      px      :     0.010656
      py      :     0.021644
 28 H s       :     0.776361  s :     0.776361
      pz      :     0.014246  p :     0.041503
      px      :     0.017045
      py      :     0.010212
 29 H s       :     0.788416  s :     0.788416
      pz      :     0.011059  p :     0.044374
      px      :     0.024376
      py      :     0.008939
 30 H s       :     0.784758  s :     0.784758
      pz      :     0.028370  p :     0.044799
      px      :     0.008388
      py      :     0.008041
 31 H s       :     0.767657  s :     0.767657
      pz      :     0.009138  p :     0.047225
      px      :     0.019475
      py      :     0.018612
 32 H s       :     0.783800  s :     0.783800
      pz      :     0.012269  p :     0.044636
      px      :     0.022846
      py      :     0.009521
 33 H s       :     0.786332  s :     0.786332
      pz      :     0.010447  p :     0.043545
      px      :     0.009469
      py      :     0.023630
 34 H s       :     0.779593  s :     0.779593
      pz      :     0.008065  p :     0.045872
      px      :     0.019967
      py      :     0.017840
 35 H s       :     0.621517  s :     0.621517
      pz      :     0.023594  p :     0.088705
      px      :     0.012973
      py      :     0.052139
 36 H s       :     0.788571  s :     0.788571
      pz      :     0.008842  p :     0.044118
      px      :     0.026329
      py      :     0.008947
 37 H s       :     0.793526  s :     0.793526
      pz      :     0.008925  p :     0.044265
      px      :     0.014355
      py      :     0.020985
 38 H s       :     0.791200  s :     0.791200
      pz      :     0.015181  p :     0.043353
      px      :     0.009520
      py      :     0.018651
 39 H s       :     0.793208  s :     0.793208
      pz      :     0.008360  p :     0.044256
      px      :     0.014532
      py      :     0.021364
 40 H s       :     0.791175  s :     0.791175
      pz      :     0.025383  p :     0.043348
      px      :     0.008052
      py      :     0.009913
 41 H s       :     0.788628  s :     0.788628
      pz      :     0.008535  p :     0.044141
      px      :     0.026348
      py      :     0.009258
 42 H s       :     0.752715  s :     0.752715
      pz      :     0.011843  p :     0.042917
      px      :     0.008154
      py      :     0.022920
 43 H s       :     0.763045  s :     0.763045
      pz      :     0.010054  p :     0.041895
      px      :     0.015721
      py      :     0.016119
 44 H s       :     0.733875  s :     0.733875
      pz      :     0.008979  p :     0.050953
      px      :     0.029811
      py      :     0.012163
 45 H s       :     0.567769  s :     0.567769
      pz      :     0.074068  p :     0.122186
      px      :     0.022878
      py      :     0.025239


                      *****************************
                      * MAYER POPULATION ANALYSIS *
                      *****************************

  NA   - Mulliken gross atomic population
  ZA   - Total nuclear charge
  QA   - Mulliken gross atomic charge
  VA   - Mayer's total valence
  BVA  - Mayer's bonded valence
  FA   - Mayer's free valence

  ATOM       NA         ZA         QA         VA         BVA        FA
  0 C      6.3149     6.0000    -0.3149     3.7594     3.7594     0.0000
  1 O      8.1602     8.0000    -0.1602     2.0388     2.0388    -0.0000
  2 C      5.8858     6.0000     0.1142     4.1639     4.1639    -0.0000
  3 O      8.4017     8.0000    -0.4017     2.0335     2.0335    -0.0000
  4 C      5.8454     6.0000     0.1546     3.4553     3.4553    -0.0000
  5 N      7.1204     7.0000    -0.1204     2.9490     2.9490    -0.0000
  6 C      5.8878     6.0000     0.1122     3.8557     3.8557     0.0000
  7 C      5.9252     6.0000     0.0748     3.5529     3.5529     0.0000
  8 C      6.5836     6.0000    -0.5836     3.7634     3.7634     0.0000
  9 C      6.6979     6.0000    -0.6979     3.8875     3.8875     0.0000
 10 N      7.1949     7.0000    -0.1949     2.7092     2.7092     0.0000
 11 C      6.2369     6.0000    -0.2369     4.1514     4.1514     0.0000
 12 O      8.4789     8.0000    -0.4789     1.9585     1.9585     0.0000
 13 C      5.7878     6.0000     0.2122     3.6708     3.6708     0.0000
 14 N      7.1338     7.0000    -0.1338     3.2961     3.2961     0.0000
 15 N      7.3651     7.0000    -0.3651     2.9025     2.9025     0.0000
 16 C      5.7821     6.0000     0.2179     3.4999     3.4999     0.0000
 17 C      6.5686     6.0000    -0.5686     3.9173     3.9173     0.0000
 18 C      6.5636     6.0000    -0.5636     3.9188     3.9188    -0.0000
 19 O      8.1695     8.0000    -0.1695     1.8805     1.8805    -0.0000
 20 N      6.7485     7.0000     0.2515     3.5022     3.5022    -0.0000
 21 C      6.4666     6.0000    -0.4666     3.7953     3.7953     0.0000
 22 C      5.8125     6.0000     0.1875     3.9989     3.9989     0.0000
 23 O      8.4913     8.0000    -0.4913     2.0224     2.0224     0.0000
 24 C      5.9636     6.0000     0.0364     3.5958     3.5958     0.0000
 25 O      8.3499     8.0000    -0.3499     2.0418     2.0418    -0.0000
 26 H      0.8244     1.0000     0.1756     0.9517     0.9517    -0.0000
 27 H      0.8252     1.0000     0.1748     0.9496     0.9496     0.0000
 28 H      0.8255     1.0000     0.1745     0.9504     0.9504     0.0000
 29 H      0.8178     1.0000     0.1822     0.9555     0.9555    -0.0000
 30 H      0.8218     1.0000     0.1782     0.9550     0.9550    -0.0000
 31 H      0.7944     1.0000     0.2056     0.9509     0.9509     0.0000
 32 H      0.8175     1.0000     0.1825     0.9512     0.9512    -0.0000
 33 H      0.8093     1.0000     0.1907     0.9457     0.9457     0.0000
 34 H      0.8071     1.0000     0.1929     0.9495     0.9495    -0.0000
 35 H      0.6893     1.0000     0.3107     0.9133     0.9133    -0.0000
 36 H      0.8294     1.0000     0.1706     0.9576     0.9576     0.0000
 37 H      0.8345     1.0000     0.1655     0.9589     0.9589    -0.0000
 38 H      0.8359     1.0000     0.1641     0.9566     0.9566    -0.0000
 39 H      0.8339     1.0000     0.1661     0.9588     0.9588    -0.0000
 40 H      0.8360     1.0000     0.1640     0.9566     0.9566    -0.0000
 41 H      0.8297     1.0000     0.1703     0.9576     0.9576    -0.0000
 42 H      0.8096     1.0000     0.1904     0.9482     0.9482    -0.0000
 43 H      0.7996     1.0000     0.2004     0.9419     0.9419    -0.0000
 44 H      0.7799     1.0000     0.2201     0.9387     0.9387     0.0000
 45 H      0.6430     1.0000     0.3570     0.8916     0.8916     0.0000

  Mayer bond orders larger than 0.100000
B(  0-C ,  1-O ) :   0.8341 B(  0-C , 26-H ) :   0.9647 B(  0-C , 27-H ) :   0.9543 
B(  0-C , 28-H ) :   0.9560 B(  1-O ,  2-C ) :   1.1675 B(  2-C ,  3-O ) :   1.9103 
B(  2-C ,  4-C ) :   1.0095 B(  4-C ,  5-N ) :   0.9730 B(  4-C , 24-C ) :   1.3372 
B(  5-N ,  6-C ) :   1.7309 B(  5-N ,  7-C ) :  -0.1309 B(  6-C ,  7-C ) :   0.8872 
B(  6-C , 10-N ) :  -0.1275 B(  6-C , 20-N ) :   1.2209 B(  7-C ,  8-C ) :   0.9087 
B(  7-C ,  9-C ) :   0.8727 B(  7-C , 10-N ) :   0.8891 B(  8-C , 29-H ) :   0.9732 
B(  8-C , 30-H ) :   0.9476 B(  8-C , 31-H ) :   0.9627 B(  9-C , 32-H ) :   0.9658 
B(  9-C , 33-H ) :   0.9801 B(  9-C , 34-H ) :   0.9692 B( 10-N , 11-C ) :   0.9667 
B( 10-N , 35-H ) :   0.8736 B( 11-C , 12-O ) :   1.9258 B( 11-C , 13-C ) :   1.0190 
B( 11-C , 15-N ) :   0.1736 B( 12-O , 13-C ) :  -0.1386 B( 13-C , 14-N ) :   1.5463 
B( 13-C , 15-N ) :   0.1039 B( 13-C , 19-O ) :   0.9592 B( 14-N , 15-N ) :   1.6533 
B( 15-N , 16-C ) :   0.8480 B( 16-C , 17-C ) :   0.9355 B( 16-C , 18-C ) :   0.9358 
B( 16-C , 19-O ) :   0.7825 B( 17-C , 36-H ) :   0.9655 B( 17-C , 37-H ) :   0.9764 
B( 17-C , 38-H ) :   0.9711 B( 18-C , 39-H ) :   0.9769 B( 18-C , 40-H ) :   0.9699 
B( 18-C , 41-H ) :   0.9661 B( 20-N , 21-C ) :   0.8415 B( 20-N , 22-C ) :   1.1277 
B( 21-C , 42-H ) :   0.9374 B( 21-C , 43-H ) :   0.9378 B( 21-C , 44-H ) :   0.9245 
B( 22-C , 23-O ) :   1.7913 B( 22-C , 24-C ) :   0.9796 B( 24-C , 25-O ) :   1.1109 
B( 25-O , 45-H ) :   0.8182 

-------
TIMINGS
-------

Total SCF time: 0 days 0 hours 1 min 33 sec 

Total time                  ....      93.136 sec
Sum of individual times     ....      91.861 sec  ( 98.6%)

Fock matrix formation       ....      84.858 sec  ( 91.1%)
  Split-RI-J                ....      13.556 sec  ( 16.0% of F)
  XC integration            ....      40.044 sec  ( 47.2% of F)
    Basis function eval.    ....       5.988 sec  ( 15.0% of XC)
    Density eval.           ....      15.442 sec  ( 38.6% of XC)
    XC-Functional eval.     ....       3.626 sec  (  9.1% of XC)
    XC-Potential eval.      ....      13.500 sec  ( 33.7% of XC)
Diagonalization             ....       0.967 sec  (  1.0%)
Density matrix formation    ....       0.072 sec  (  0.1%)
Population analysis         ....       0.110 sec  (  0.1%)
Initial guess               ....       1.646 sec  (  1.8%)
Orbital Transformation      ....       0.000 sec  (  0.0%)
Orbital Orthonormalization  ....       0.000 sec  (  0.0%)
DIIS solution               ....       0.410 sec  (  0.4%)
SOSCF solution              ....       0.618 sec  (  0.7%)
Grid generation             ....       3.179 sec  (  3.4%)

Maximum memory used throughout the entire SCF-calculation: 159.1 MB


-------------------------------------------------------------------------------
                          DFT DISPERSION CORRECTION                            
                                                                               
                                 DFTD4 V2.5                                    
-------------------------------------------------------------------------------
The R2SCAN3C composite method is recognized
Using three-body term ABC
Active option DFTDOPT                   ...         5   

Starting D4
-------------------------   ----------------
Dispersion correction           -0.020880474
-------------------------   ----------------

------------------   -----------------
gCP correction             0.042880270
------------------   -----------------

-------------------------   --------------------
FINAL SINGLE POINT ENERGY     -1308.650951923375
-------------------------   --------------------


                            ***************************************
                            *     ORCA property calculations      *
                            ***************************************

                                    ---------------------
                                    Active property flags
                                    ---------------------
   (+) Dipole Moment


------------------------------------------------------------------------------
                       ORCA ELECTRIC PROPERTIES CALCULATION
------------------------------------------------------------------------------

Dipole Moment Calculation                       ... on
Quadrupole Moment Calculation                   ... off
Polarizability Calculation                      ... off
GBWName                                         ... /lustre/hpc/kemi/ree/PhD/git/ReactivityQM/calculations/R03/reac02prodE11/conf06/gfn1/orca_calc.gbw
Electron density                                ... /lustre/hpc/kemi/ree/PhD/git/ReactivityQM/calculations/R03/reac02prodE11/conf06/gfn1/orca_calc.scfp
The origin for moment calculation is the CENTER OF MASS  = (-0.390856, -0.069189  0.337238)

-------------
DIPOLE MOMENT
-------------
                                X             Y             Z
Electronic contribution:    -15.45888       1.49430       1.97593
Nuclear contribution   :      8.08829       2.23736      -2.06220
                        -----------------------------------------
Total Dipole Moment    :     -7.37058       3.73166      -0.08626
                        -----------------------------------------
Magnitude (a.u.)       :      8.26185
Magnitude (Debye)      :     20.99996



--------------------
Rotational spectrum 
--------------------
 
Rotational constants in cm-1:     0.011793     0.003217     0.003117 
Rotational constants in MHz :   353.543486    96.447399    93.434666 

 Dipole components along the rotational axes: 
x,y,z [a.u.] :     7.628562     3.146842     0.400775 
x,y,z [Debye]:    19.390265     7.998638     1.018689 

 

Timings for individual modules:

Sum of individual times         ...       94.256 sec (=   1.571 min)
GTO integral calculation        ...        0.846 sec (=   0.014 min)   0.9 %
SCF iterations                  ...       93.410 sec (=   1.557 min)  99.1 %
                             ****ORCA TERMINATED NORMALLY****
TOTAL RUN TIME: 0 days 0 hours 1 minutes 35 seconds 43 msec
