      -----------------------------------------------------------      
     |                   =====================                   |     
     |                           x T B                           |     
     |                   =====================                   |     
     |                         S. Grimme                         |     
     |          Mulliken Center for Theoretical Chemistry        |     
     |                    University of Bonn                     |     
      -----------------------------------------------------------      

   * xtb version 6.5.1 (579679a) compiled by 'ehlert@majestix' on 2022-07-11

   xtb is free software: you can redistribute it and/or modify it under
   the terms of the GNU Lesser General Public License as published by
   the Free Software Foundation, either version 3 of the License, or
   (at your option) any later version.
   
   xtb is distributed in the hope that it will be useful,
   but WITHOUT ANY WARRANTY; without even the implied warranty of
   MERCHANTABILITY or FITNESS FOR A PARTICULAR PURPOSE.  See the
   GNU Lesser General Public License for more details.
   
   Cite this work as:
   * C. Bannwarth, E. Caldeweyher, S. Ehlert, A. Hansen, P. Pracht,
     J. Seibert, S. Spicher, S. Grimme, WIREs Comput. Mol. Sci., 2020, 11,
     e01493. DOI: 10.1002/wcms.1493
   
   for GFN2-xTB:
   * C. Bannwarth, S. Ehlert and S. Grimme., J. Chem. Theory Comput., 2019,
     15, 1652-1671. DOI: 10.1021/acs.jctc.8b01176
   for GFN1-xTB:
   * S. Grimme, C. Bannwarth, P. Shushkov, J. Chem. Theory Comput., 2017,
     13, 1989-2009. DOI: 10.1021/acs.jctc.7b00118
   for GFN0-xTB:
   * P. Pracht, E. Caldeweyher, S. Ehlert, S. Grimme, ChemRxiv, 2019, preprint.
     DOI: 10.26434/chemrxiv.8326202.v1
   for GFN-FF:
   * S. Spicher and S. Grimme, Angew. Chem. Int. Ed., 2020, 59, 15665-15673.
     DOI: 10.1002/anie.202004239
   
   for ALPB and GBSA implicit solvation:
   * S. Ehlert, M. Stahn, S. Spicher, S. Grimme, J. Chem. Theory Comput.,
     2021, 17, 4250-4261. DOI: 10.1021/acs.jctc.1c00471
   
   for DFT-D4:
   * E. Caldeweyher, C. Bannwarth and S. Grimme, J. Chem. Phys., 2017,
     147, 034112. DOI: 10.1063/1.4993215
   * E. Caldeweyher, S. Ehlert, A. Hansen, H. Neugebauer, S. Spicher,
     C. Bannwarth and S. Grimme, J. Chem. Phys., 2019, 150, 154122.
     DOI: 10.1063/1.5090222
   * E. Caldeweyher, J.-M. Mewes, S. Ehlert and S. Grimme, Phys. Chem. Chem. Phys.
     2020, 22, 8499-8512. DOI: 10.1039/D0CP00502A
   
   for sTDA-xTB:
   * S. Grimme and C. Bannwarth, J. Chem. Phys., 2016, 145, 054103.
     DOI: 10.1063/1.4959605
   
   in the mass-spec context:
   * V. Asgeirsson, C. Bauer and S. Grimme, Chem. Sci., 2017, 8, 4879.
     DOI: 10.1039/c7sc00601b
   * J. Koopman and S. Grimme, ACS Omega 2019, 4, 12, 15120-15133.
     DOI: 10.1021/acsomega.9b02011
   
   for metadynamics refer to:
   * S. Grimme, J. Chem. Theory Comput., 2019, 155, 2847-2862
     DOI: 10.1021/acs.jctc.9b00143
   
   for SPH calculations refer to:
   * S. Spicher and S. Grimme, J. Chem. Theory Comput., 2021, 17, 1701-1714
     DOI: 10.1021/acs.jctc.0c01306
   
   with help from (in alphabetical order)
   P. Atkinson, C. Bannwarth, F. Bohle, G. Brandenburg, E. Caldeweyher
   M. Checinski, S. Dohm, S. Ehlert, S. Ehrlich, I. Gerasimov, C. Hölzer
   A. Katbashev, J. Koopman, C. Lavigne, S. Lehtola, F. März, M. Müller,
   F. Musil, H. Neugebauer, J. Pisarek, C. Plett, P. Pracht, F. Pultar,
   J. Seibert, P. Shushkov, S. Spicher, M. Stahn, M. Steiner, T. Strunk,
   J. Stückrath, T. Rose, and J. Unsleber
   
 * started run on 2023/06/20 at 15:26:53.986     

           -------------------------------------------------
          |                Calculation Setup                |
           -------------------------------------------------

          program call               : /lustre/hpc/kemi/ree/PhD/git/ReactivityQM/dep/xtb-6.5.1/bin/xtb --gfn 1 /lustre/hpc/kemi/ree/PhD/git/ReactivityQM/calculations/R02/reac01prodN07/conf17/R02_reac01prodN07_conf17_gfn1.xyz --opt --vfukui --chrg 1 --uhf 0 --alpb DMSO
          hostname                   : node315
          coordinate file            : /lustre/hpc/kemi/ree/PhD/git/ReactivityQM/calculations/R02/reac01prodN07/conf17/R02_reac01prodN07_conf17_gfn1.xyz
          omp threads                :                     1

   ID    Z sym.   atoms
    1    6 C      1, 3, 5, 7-10, 12, 14, 17-19, 22, 24
    2    8 O      2, 4, 13, 20, 23, 25
    3    7 N      6, 11, 15, 16, 21
    4    1 H      26-43

           -------------------------------------------------
          |                 G F N 1 - x T B                 |
           -------------------------------------------------

        Reference                      10.1021/acs.jctc.7b00118
      * Hamiltonian:
        H0-scaling (s, p, d)           1.850000    2.250000    2.000000
        zeta-weighting                 0.000000
      * Dispersion:
        s8                             2.400000
        a1                             0.630000
        a2                             5.000000
        s9                             0.000000
      * Repulsion:
        kExp                           1.500000
        rExp                           1.000000
      * Coulomb:
        alpha                          2.000000
        third order                    atomic
        anisotropic                    false
      * Halogen bond correction:
        rad-scale                      1.300000
        damping                        0.440000

      * Solvation model:               ALPB
        Solvent                        DMSO
        Parameter file                 internal GFN1-xTB/ALPB
        Dielectric constant                4.6680E+01
        Reference state                gsolv [1 M gas/solution]
        Free energy shift                  7.6243E-03 Eh       4.7843E+00 kcal/mol
        Temperature                        2.9815E+02 K
        Density                            1.1000E+00 kg/L
        Solvent mass                       7.8130E+01 g/mol
        Interaction kernel             P16
        Born radius scaling (c1)           1.7672E+00
        Born radii integrator          GBOBC
        Born offset                        0.0000E+00 a0       0.0000E+00 AA
        H-bond correction              true
        Ion screening                  false
        Surface tension                    1.0000E-05 Eh       1.5569E+01 dyn/cm
        Grid points                               230 per atom

          ...................................................
          :                      SETUP                      :
          :.................................................:
          :  # basis functions                 136          :
          :  # atomic orbitals                 136          :
          :  # shells                           86          :
          :  # electrons                       134          :
          :  # halogen bonds                     0          :
          :  max. iterations                   250          :
          :  Hamiltonian                  GFN1-xTB          :
          :  restarted?                      false          :
          :  GBSA solvation                   true          :
          :  PC potential                    false          :
          :  electronic temp.          300.0000000     K    :
          :  accuracy                    1.0000000          :
          :  -> integral cutoff          0.2500000E+02      :
          :  -> integral neglect         0.1000000E-07      :
          :  -> SCF convergence          0.1000000E-05 Eh   :
          :  -> wf. convergence          0.2000000E-04 e    :
          :  Broyden damping             0.4000000          :
          ...................................................

 iter      E             dE          RMSdq      gap      omega  full diag
   1    -83.5591811 -0.835592E+02  0.839E+00    2.82       0.0  T
   2    -83.9124180 -0.353237E+00  0.497E+00    2.21       1.0  T
   3    -83.9018874  0.105306E-01  0.156E+00    1.51       1.0  T
   4    -83.9247518 -0.228643E-01  0.236E-01    1.32       1.0  T
   5    -83.9270047 -0.225298E-02  0.619E-02    1.39       1.0  T
   6    -83.9270962 -0.914509E-04  0.200E-02    1.44       1.0  T
   7    -83.9271068 -0.105990E-04  0.389E-03    1.46       3.9  T
   8    -83.9271070 -0.251355E-06  0.154E-03    1.46       9.9  T
   9    -83.9271071 -0.315777E-07  0.693E-04    1.46      22.0  T
  10    -83.9271071 -0.463096E-08  0.126E-04    1.46     121.0  T
  11    -83.9271071 -0.336541E-09  0.413E-05    1.46     369.0  T

   *** convergence criteria satisfied after 11 iterations ***

         #    Occupation            Energy/Eh            Energy/eV
      -------------------------------------------------------------
         1        2.0000           -0.9348388             -25.4383
       ...           ...                  ...                  ...
        61        2.0000           -0.4975928             -13.5402
        62        2.0000           -0.4931830             -13.4202
        63        2.0000           -0.4902956             -13.3416
        64        2.0000           -0.4778133             -13.0020
        65        2.0000           -0.4697307             -12.7820
        66        2.0000           -0.4578123             -12.4577
        67        2.0000           -0.4399895             -11.9727 (HOMO)
        68                         -0.3863459             -10.5130 (LUMO)
        69                         -0.3647380              -9.9250
        70                         -0.3396133              -9.2413
        71                         -0.2980075              -8.1092
        72                         -0.2537066              -6.9037
       ...                                ...                  ...
       136                          0.6996251              19.0378
      -------------------------------------------------------------
                  HL-Gap            0.0536436 Eh            1.4597 eV
             Fermi-level           -0.4131677 Eh          -11.2429 eV

 SCC (total)                   0 d,  0 h,  0 min,  0.169 sec
 SCC setup                      ...        0 min,  0.002 sec (  1.403%)
 Dispersion                     ...        0 min,  0.000 sec (  0.265%)
 classical contributions        ...        0 min,  0.000 sec (  0.082%)
 integral evaluation            ...        0 min,  0.037 sec ( 21.781%)
 iterations                     ...        0 min,  0.044 sec ( 25.761%)
 molecular gradient             ...        0 min,  0.084 sec ( 50.009%)
 printout                       ...        0 min,  0.001 sec (  0.655%)

         :::::::::::::::::::::::::::::::::::::::::::::::::::::
         ::                     SUMMARY                     ::
         :::::::::::::::::::::::::::::::::::::::::::::::::::::
         :: total energy             -83.157096458760 Eh    ::
         :: total w/o Gsasa/hb       -83.131293704920 Eh    ::
         :: gradient norm              0.158597600843 Eh/a0 ::
         :: HOMO-LUMO gap              1.459717617645 eV    ::
         ::.................................................::
         :: SCC energy               -83.927107081531 Eh    ::
         :: -> electrostatic           0.447335073037 Eh    ::
         :: -> Gsolv                  -0.129474709382 Eh    ::
         ::    -> Gelec               -0.103671955542 Eh    ::
         ::    -> Gsasa               -0.025024200735 Eh    ::
         ::    -> Ghb                 -0.008402832109 Eh    ::
         ::    -> Gshift               0.007624279005 Eh    ::
         :: repulsion energy           0.795521477047 Eh    ::
         :: dispersion energy         -0.025510854276 Eh    ::
         :: halogen bond corr.         0.000000000000 Eh    ::
         :: add. restraining           0.000000000000 Eh    ::
         :: total charge               1.000000000000 e     ::
         :::::::::::::::::::::::::::::::::::::::::::::::::::::

      ----------------------------------------------------------- 
     |                   =====================                   |
     |                        A N C O P T                        |
     |                   =====================                   |
     |               Approximate Normal Coordinate               |
     |                Rational Function Optimizer                |
      ----------------------------------------------------------- 

          ...................................................
          :                      SETUP                      :
          :.................................................:
          :   optimization level            normal          :
          :   max. optcycles                   200          :
          :   ANC micro-cycles                  20          :
          :   degrees of freedom               123          :
          :.................................................:
          :   RF solver                   davidson          :
          :   write xtbopt.log                true          :
          :   linear?                        false          :
          :   energy convergence         0.5000000E-05 Eh   :
          :   grad. convergence          0.1000000E-02 Eh/α :
          :   maximium RF displ.         1.0000000          :
          :   Hlow (freq-cutoff)         0.1000000E-01      :
          :   Hmax (freq-cutoff)         5.0000000          :
          :   S6 in model hess.         20.0000000          :
          ...................................................

generating ANC from model Hessian ...
Using Lindh-Hessian (1995)
 Shifting diagonal of input Hessian by   9.826140588657583E-003
 Lowest  eigenvalues of input Hessian
    0.000000    0.000000    0.000000    0.000000    0.000000    0.000000
    0.010000    0.010198    0.010334    0.010810    0.011829    0.012421
    0.012958    0.014510    0.015105    0.015523    0.016209    0.017603
 Highest eigenvalues
    2.017867    2.064382    2.200527    2.291404    2.344147    2.450642
 

........................................................................
.............................. CYCLE    1 ..............................
........................................................................
   1    -83.9271071 -0.839271E+02  0.164E-05    1.46       0.0  T
   2    -83.9271071 -0.213163E-11  0.869E-06    1.46    1754.0  T
   3    -83.9271071 -0.341061E-12  0.450E-06    1.46    3392.6  T
     SCC iter.                  ...        0 min,  0.012 sec
     gradient                   ...        0 min,  0.085 sec
 * total energy  :   -83.1570965 Eh     change       -0.3117862E-10 Eh
   gradient norm :     0.1585979 Eh/α   predicted     0.0000000E+00 (-100.00%)
   displ. norm   :     0.3097927 α      lambda       -0.2430563E-01
   maximum displ.:     0.1307661 α      in ANC's #26, #24, #37, ...

........................................................................
.............................. CYCLE    2 ..............................
........................................................................
   1    -83.9652764 -0.839653E+02  0.115E-01    1.74       0.0  T
   2    -83.9656512 -0.374793E-03  0.488E-02    1.73       1.0  T
   3    -83.9657040 -0.528162E-04  0.270E-02    1.74       1.0  T
   4    -83.9657074 -0.336730E-05  0.879E-03    1.74       1.7  T
   5    -83.9657079 -0.527999E-06  0.148E-03    1.74      10.3  T
   6    -83.9657080 -0.779868E-07  0.378E-04    1.74      40.4  T
   7    -83.9657080 -0.390172E-08  0.156E-04    1.74      97.8  T
   8    -83.9657080 -0.278703E-09  0.630E-05    1.74     242.1  T
     SCC iter.                  ...        0 min,  0.030 sec
     gradient                   ...        0 min,  0.083 sec
 * total energy  :   -83.1748495 Eh     change       -0.1775307E-01 Eh
   gradient norm :     0.0753838 Eh/α   predicted    -0.1333430E-01 ( -24.89%)
   displ. norm   :     0.3292025 α      lambda       -0.1031373E-01
   maximum displ.:     0.1528766 α      in ANC's #26, #10, #21, ...

........................................................................
.............................. CYCLE    3 ..............................
........................................................................
   1    -83.9885010 -0.839885E+02  0.863E-02    1.96       0.0  T
   2    -83.9887550 -0.253994E-03  0.358E-02    1.96       1.0  T
   3    -83.9887839 -0.288785E-04  0.190E-02    1.97       1.0  T
   4    -83.9887854 -0.151215E-05  0.698E-03    1.97       2.2  T
   5    -83.9887857 -0.280392E-06  0.136E-03    1.97      11.2  T
   6    -83.9887857 -0.528410E-07  0.331E-04    1.97      46.1  T
   7    -83.9887857 -0.294366E-08  0.129E-04    1.97     118.1  T
   8    -83.9887857 -0.147153E-09  0.512E-05    1.97     297.8  T
     SCC iter.                  ...        0 min,  0.030 sec
     gradient                   ...        0 min,  0.083 sec
 * total energy  :   -83.1807521 Eh     change       -0.5902589E-02 Eh
   gradient norm :     0.0177172 Eh/α   predicted    -0.5716718E-02 (  -3.15%)
   displ. norm   :     0.2264462 α      lambda       -0.1378318E-02
   maximum displ.:     0.1125092 α      in ANC's #10, #9, #26, ...

........................................................................
.............................. CYCLE    4 ..............................
........................................................................
   1    -83.9874618 -0.839875E+02  0.144E-02    1.99       0.0  T
   2    -83.9874699 -0.802931E-05  0.754E-03    2.00       2.0  T
   3    -83.9874703 -0.392982E-06  0.413E-03    2.00       3.7  T
   4    -83.9874703 -0.150219E-07  0.127E-03    2.00      12.0  T
   5    -83.9874703 -0.178744E-07  0.280E-04    2.00      54.4  T
   6    -83.9874703 -0.197379E-08  0.949E-05    2.00     160.7  T
   7    -83.9874703 -0.199620E-09  0.275E-05    2.00     555.2  T
     SCC iter.                  ...        0 min,  0.026 sec
     gradient                   ...        0 min,  0.059 sec
 * total energy  :   -83.1817677 Eh     change       -0.1015550E-02 Eh
   gradient norm :     0.0104856 Eh/α   predicted    -0.7245138E-03 ( -28.66%)
   displ. norm   :     0.2876956 α      lambda       -0.9187178E-03
   maximum displ.:     0.1498417 α      in ANC's #10, #9, #4, ...

........................................................................
.............................. CYCLE    5 ..............................
........................................................................
   1    -83.9856256 -0.839856E+02  0.164E-02    2.01       0.0  T
   2    -83.9856345 -0.885272E-05  0.901E-03    2.02       1.7  T
   3    -83.9856357 -0.122404E-05  0.494E-03    2.02       3.1  T
   4    -83.9856358 -0.744864E-07  0.145E-03    2.02      10.5  T
   5    -83.9856358 -0.163543E-07  0.278E-04    2.02      54.9  T
   6    -83.9856358 -0.248696E-08  0.915E-05    2.02     166.6  T
   7    -83.9856358 -0.133710E-09  0.238E-05    2.02     639.8  T
     SCC iter.                  ...        0 min,  0.027 sec
     gradient                   ...        0 min,  0.083 sec
 * total energy  :   -83.1823702 Eh     change       -0.6025114E-03 Eh
   gradient norm :     0.0066901 Eh/α   predicted    -0.4973845E-03 ( -17.45%)
   displ. norm   :     0.2113078 α      lambda       -0.3140198E-03
   maximum displ.:     0.0994655 α      in ANC's #10, #9, #4, ...

........................................................................
.............................. CYCLE    6 ..............................
........................................................................
   1    -83.9862535 -0.839863E+02  0.854E-03    2.03       0.0  T
   2    -83.9862562 -0.268020E-05  0.449E-03    2.03       3.4  T
   3    -83.9862568 -0.549715E-06  0.225E-03    2.03       6.8  T
   4    -83.9862568 -0.182503E-07  0.700E-04    2.03      21.8  T
   5    -83.9862568 -0.110772E-08  0.117E-04    2.03     130.4  T
   6    -83.9862568 -0.390997E-09  0.410E-05    2.03     371.8  T
     SCC iter.                  ...        0 min,  0.022 sec
     gradient                   ...        0 min,  0.078 sec
 * total energy  :   -83.1826016 Eh     change       -0.2314333E-03 Eh
   gradient norm :     0.0058665 Eh/α   predicted    -0.1640695E-03 ( -29.11%)
   displ. norm   :     0.2414216 α      lambda       -0.2575353E-03
   maximum displ.:     0.1171468 α      in ANC's #4, #9, #10, ...

........................................................................
.............................. CYCLE    7 ..............................
........................................................................
   1    -83.9879266 -0.839879E+02  0.747E-03    2.04       0.0  T
   2    -83.9879284 -0.185625E-05  0.366E-03    2.04       4.2  T
   3    -83.9879288 -0.358109E-06  0.194E-03    2.04       7.8  T
   4    -83.9879288 -0.202735E-07  0.574E-04    2.04      26.6  T
   5    -83.9879288 -0.666063E-09  0.113E-04    2.04     134.7  T
   6    -83.9879288 -0.221362E-09  0.324E-05    2.04     470.7  T
     SCC iter.                  ...        0 min,  0.024 sec
     gradient                   ...        0 min,  0.080 sec
 * total energy  :   -83.1827843 Eh     change       -0.1826407E-03 Eh
   gradient norm :     0.0047264 Eh/α   predicted    -0.1362803E-03 ( -25.38%)
   displ. norm   :     0.1937892 α      lambda       -0.1479034E-03
   maximum displ.:     0.1160663 α      in ANC's #4, #9, #11, ...

........................................................................
.............................. CYCLE    8 ..............................
........................................................................
   1    -83.9895627 -0.839896E+02  0.618E-03    2.05       0.0  T
   2    -83.9895640 -0.131893E-05  0.272E-03    2.05       5.6  T
   3    -83.9895641 -0.879794E-07  0.151E-03    2.05      10.1  T
   4    -83.9895641 -0.430487E-08  0.473E-04    2.05      32.2  T
   5    -83.9895641 -0.391154E-08  0.124E-04    2.05     123.2  T
   6    -83.9895641 -0.258808E-09  0.280E-05    2.05     545.0  T
     SCC iter.                  ...        0 min,  0.023 sec
     gradient                   ...        0 min,  0.077 sec
 * total energy  :   -83.1828914 Eh     change       -0.1071907E-03 Eh
   gradient norm :     0.0034894 Eh/α   predicted    -0.7676036E-04 ( -28.39%)
   displ. norm   :     0.1523871 α      lambda       -0.9244613E-04
   maximum displ.:     0.1057558 α      in ANC's #4, #9, #15, ...

........................................................................
.............................. CYCLE    9 ..............................
........................................................................
   1    -83.9906908 -0.839907E+02  0.543E-03    2.05       0.0  T
   2    -83.9906920 -0.119878E-05  0.232E-03    2.05       6.6  T
   3    -83.9906920 -0.649259E-07  0.120E-03    2.05      12.7  T
   4    -83.9906920 -0.153882E-08  0.426E-04    2.05      35.8  T
   5    -83.9906920 -0.190263E-08  0.101E-04    2.05     151.1  T
   6    -83.9906920 -0.294378E-09  0.258E-05    2.05     592.1  T
     SCC iter.                  ...        0 min,  0.023 sec
     gradient                   ...        0 min,  0.081 sec
 * total energy  :   -83.1829613 Eh     change       -0.6990013E-04 Eh
   gradient norm :     0.0027876 Eh/α   predicted    -0.4729810E-04 ( -32.33%)
   displ. norm   :     0.1372062 α      lambda       -0.7343249E-04
   maximum displ.:     0.1015020 α      in ANC's #4, #7, #3, ...

........................................................................
.............................. CYCLE   10 ..............................
........................................................................
   1    -83.9911746 -0.839912E+02  0.451E-03    2.05       0.0  T
   2    -83.9911756 -0.985201E-06  0.194E-03    2.05       7.9  T
   3    -83.9911756 -0.851935E-07  0.887E-04    2.05      17.2  T
   4    -83.9911756 -0.243372E-08  0.434E-04    2.05      35.1  T
   5    -83.9911756 -0.132164E-08  0.960E-05    2.05     158.9  T
   6    -83.9911756 -0.184343E-09  0.224E-05    2.05     681.8  T
     SCC iter.                  ...        0 min,  0.024 sec
     gradient                   ...        0 min,  0.081 sec
 * total energy  :   -83.1830199 Eh     change       -0.5851616E-04 Eh
   gradient norm :     0.0028602 Eh/α   predicted    -0.3741210E-04 ( -36.07%)
   displ. norm   :     0.1463360 α      lambda       -0.7174879E-04
   maximum displ.:     0.1072594 α      in ANC's #4, #7, #2, ...

........................................................................
.............................. CYCLE   11 ..............................
........................................................................
   1    -83.9910925 -0.839911E+02  0.319E-03    2.05       0.0  T
   2    -83.9910930 -0.529007E-06  0.155E-03    2.05       9.8  T
   3    -83.9910931 -0.714306E-07  0.686E-04    2.05      22.2  T
   4    -83.9910931 -0.193116E-08  0.336E-04    2.05      45.4  T
   5    -83.9910931 -0.355712E-09  0.659E-05    2.05     231.3  T
   6    -83.9910931 -0.752607E-10  0.169E-05    2.05     901.1  T
     SCC iter.                  ...        0 min,  0.024 sec
     gradient                   ...        0 min,  0.081 sec
 * total energy  :   -83.1830782 Eh     change       -0.5830789E-04 Eh
   gradient norm :     0.0029795 Eh/α   predicted    -0.3664739E-04 ( -37.15%)
   displ. norm   :     0.1681728 α      lambda       -0.7186105E-04
   maximum displ.:     0.1225133 α      in ANC's #4, #2, #10, ...

........................................................................
.............................. CYCLE   12 ..............................
........................................................................
   1    -83.9906653 -0.839907E+02  0.236E-03    2.05       0.0  T
   2    -83.9906656 -0.221003E-06  0.125E-03    2.05      12.2  T
   3    -83.9906656 -0.283704E-07  0.696E-04    2.05      21.9  T
   4    -83.9906656 -0.266500E-08  0.244E-04    2.05      62.4  T
   5    -83.9906656 -0.177607E-09  0.455E-05    2.05     335.2  T
   6    -83.9906656 -0.258780E-10  0.106E-05    2.05    1433.6  T
     SCC iter.                  ...        0 min,  0.023 sec
     gradient                   ...        0 min,  0.074 sec
 * total energy  :   -83.1831354 Eh     change       -0.5724895E-04 Eh
   gradient norm :     0.0027038 Eh/α   predicted    -0.3695195E-04 ( -35.45%)
   displ. norm   :     0.1715890 α      lambda       -0.5925914E-04
   maximum displ.:     0.1250091 α      in ANC's #4, #2, #3, ...

........................................................................
.............................. CYCLE   13 ..............................
........................................................................
   1    -83.9902824 -0.839903E+02  0.233E-03    2.05       0.0  T
   2    -83.9902825 -0.146862E-06  0.104E-03    2.06      14.6  T
   3    -83.9902825 -0.765483E-08  0.581E-04    2.06      26.2  T
   4    -83.9902825 -0.122142E-08  0.168E-04    2.06      91.0  T
   5    -83.9902825 -0.367692E-09  0.467E-05    2.06     326.3  T
     SCC iter.                  ...        0 min,  0.019 sec
     gradient                   ...        0 min,  0.083 sec
 * total energy  :   -83.1831818 Eh     change       -0.4637492E-04 Eh
   gradient norm :     0.0021374 Eh/α   predicted    -0.3050662E-04 ( -34.22%)
   displ. norm   :     0.1620491 α      lambda       -0.4625559E-04
   maximum displ.:     0.1187361 α      in ANC's #4, #2, #3, ...

........................................................................
.............................. CYCLE   14 ..............................
........................................................................
   1    -83.9901818 -0.839902E+02  0.214E-03    2.06       0.0  T
   2    -83.9901819 -0.142334E-06  0.929E-04    2.06      16.4  T
   3    -83.9901820 -0.107973E-07  0.517E-04    2.06      29.5  T
   4    -83.9901820 -0.174981E-08  0.191E-04    2.06      79.7  T
   5    -83.9901820 -0.238146E-09  0.449E-05    2.06     339.9  T
     SCC iter.                  ...        0 min,  0.019 sec
     gradient                   ...        0 min,  0.082 sec
 * total energy  :   -83.1832184 Eh     change       -0.3664530E-04 Eh
   gradient norm :     0.0019631 Eh/α   predicted    -0.2373804E-04 ( -35.22%)
   displ. norm   :     0.2578166 α      lambda       -0.4241354E-04
   maximum displ.:     0.1871119 α      in ANC's #4, #2, #3, ...

........................................................................
.............................. CYCLE   15 ..............................
........................................................................
   1    -83.9900668 -0.839901E+02  0.299E-03    2.06       0.0  T
   2    -83.9900671 -0.323351E-06  0.153E-03    2.06      10.0  T
   3    -83.9900672 -0.376597E-07  0.819E-04    2.06      18.6  T
   4    -83.9900672 -0.540022E-08  0.326E-04    2.06      46.8  T
   5    -83.9900672 -0.357119E-09  0.611E-05    2.06     249.7  T
   6    -83.9900672 -0.454747E-10  0.195E-05    2.06     782.7  T
     SCC iter.                  ...        0 min,  0.023 sec
     gradient                   ...        0 min,  0.082 sec
 * total energy  :   -83.1832614 Eh     change       -0.4300688E-04 Eh
   gradient norm :     0.0026003 Eh/α   predicted    -0.2183479E-04 ( -49.23%)
   displ. norm   :     0.1101166 α      lambda       -0.2430652E-04
   maximum displ.:     0.0791054 α      in ANC's #4, #2, #3, ...

........................................................................
.............................. CYCLE   16 ..............................
........................................................................
   1    -83.9905456 -0.839905E+02  0.224E-03    2.07       0.0  T
   2    -83.9905458 -0.166770E-06  0.991E-04    2.07      15.4  T
   3    -83.9905458 -0.843251E-08  0.509E-04    2.07      29.9  T
   4    -83.9905458 -0.330715E-09  0.149E-04    2.07     102.2  T
   5    -83.9905458 -0.254119E-09  0.413E-05    2.07     369.4  T
     SCC iter.                  ...        0 min,  0.019 sec
     gradient                   ...        0 min,  0.082 sec
 * total energy  :   -83.1832804 Eh     change       -0.1893380E-04 Eh
   gradient norm :     0.0022581 Eh/α   predicted    -0.1230241E-04 ( -35.02%)
   displ. norm   :     0.1768322 α      lambda       -0.3072597E-04
   maximum displ.:     0.1246303 α      in ANC's #4, #2, #3, ...

........................................................................
.............................. CYCLE   17 ..............................
........................................................................
   1    -83.9904169 -0.839904E+02  0.447E-03    2.07       0.0  T
   2    -83.9904177 -0.843220E-06  0.178E-03    2.07       8.6  T
   3    -83.9904178 -0.403887E-07  0.896E-04    2.07      17.0  T
   4    -83.9904178 -0.780673E-09  0.253E-04    2.07      60.3  T
   5    -83.9904178 -0.624510E-09  0.671E-05    2.07     227.4  T
   6    -83.9904178 -0.840998E-10  0.168E-05    2.07     905.2  T
     SCC iter.                  ...        0 min,  0.023 sec
     gradient                   ...        0 min,  0.083 sec
 * total energy  :   -83.1832983 Eh     change       -0.1791339E-04 Eh
   gradient norm :     0.0012763 Eh/α   predicted    -0.1584452E-04 ( -11.55%)
   displ. norm   :     0.0834920 α      lambda       -0.1012249E-04
   maximum displ.:     0.0505584 α      in ANC's #4, #2, #14, ...

........................................................................
.............................. CYCLE   18 ..............................
........................................................................
   1    -83.9913263 -0.839913E+02  0.426E-03    2.07       0.0  T
   2    -83.9913268 -0.471335E-06  0.180E-03    2.07       8.5  T
   3    -83.9913268 -0.279729E-07  0.974E-04    2.07      15.7  T
   4    -83.9913268 -0.224603E-08  0.264E-04    2.07      57.8  T
   5    -83.9913268 -0.144102E-08  0.812E-05    2.07     187.8  T
   6    -83.9913268 -0.106922E-09  0.142E-05    2.07    1073.5  T
     SCC iter.                  ...        0 min,  0.023 sec
     gradient                   ...        0 min,  0.082 sec
 * total energy  :   -83.1833025 Eh     change       -0.4249206E-05 Eh
   gradient norm :     0.0021342 Eh/α   predicted    -0.5078830E-05 (  19.52%)
   displ. norm   :     0.0178147 α      lambda       -0.6844113E-05
   maximum displ.:     0.0096259 α      in ANC's #4, #2, #8, ...

........................................................................
.............................. CYCLE   19 ..............................
........................................................................
   1    -83.9910311 -0.839910E+02  0.112E-03    2.07       0.0  T
   2    -83.9910311 -0.184372E-07  0.584E-04    2.07      26.1  T
   3    -83.9910311 -0.986375E-09  0.299E-04    2.07      51.1  T
   4    -83.9910311 -0.678810E-09  0.674E-05    2.07     226.3  T
   5    -83.9910311 -0.962075E-10  0.187E-05    2.07     816.8  T
     SCC iter.                  ...        0 min,  0.019 sec
     gradient                   ...        0 min,  0.082 sec
 * total energy  :   -83.1833077 Eh     change       -0.5150057E-05 Eh
   gradient norm :     0.0012461 Eh/α   predicted    -0.3425597E-05 ( -33.48%)
   displ. norm   :     0.0373107 α      lambda       -0.8192013E-05
   maximum displ.:     0.0214872 α      in ANC's #8, #15, #14, ...

........................................................................
.............................. CYCLE   20 ..............................
........................................................................
   1    -83.9904275 -0.839904E+02  0.189E-03    2.07       0.0  T
   2    -83.9904276 -0.721702E-07  0.102E-03    2.07      14.9  T
   3    -83.9904276 -0.388867E-08  0.535E-04    2.07      28.5  T
   4    -83.9904276 -0.291422E-08  0.151E-04    2.07     101.0  T
   5    -83.9904276 -0.240945E-09  0.327E-05    2.07     466.5  T
     SCC iter.                  ...        0 min,  0.019 sec
     gradient                   ...        0 min,  0.083 sec
 * total energy  :   -83.1833139 Eh     change       -0.6238766E-05 Eh
   gradient norm :     0.0010251 Eh/α   predicted    -0.4104488E-05 ( -34.21%)
   displ. norm   :     0.0333930 α      lambda       -0.3317595E-05
   maximum displ.:     0.0165042 α      in ANC's #2, #14, #15, ...
 * RMSD in coord.:     0.3794494 α      energy gain  -0.2621747E-01 Eh

generating ANC from model Hessian ...
Using Lindh-Hessian (1995)
 Shifting diagonal of input Hessian by   9.819843276537149E-003
 Lowest  eigenvalues of input Hessian
    0.000000    0.000000    0.000000    0.000000    0.000000    0.000000
    0.010000    0.010204    0.010355    0.010766    0.011878    0.012342
    0.013070    0.014359    0.015466    0.015601    0.016584    0.018046
 Highest eigenvalues
    2.198996    2.212931    2.229061    2.383441    2.438223    2.454739
 

........................................................................
.............................. CYCLE   21 ..............................
........................................................................
   1    -83.9904441 -0.839904E+02  0.645E-04    2.07       0.0  T
   2    -83.9904441 -0.434036E-08  0.296E-04    2.07      51.6  T
   3    -83.9904441 -0.241144E-09  0.104E-04    2.07     146.7  T
   4    -83.9904441 -0.869420E-10  0.330E-05    2.07     461.9  T
     SCC iter.                  ...        0 min,  0.016 sec
     gradient                   ...        0 min,  0.083 sec
 * total energy  :   -83.1833183 Eh     change       -0.4370487E-05 Eh
   gradient norm :     0.0007771 Eh/α   predicted     0.0000000E+00 (-100.00%)
   displ. norm   :     0.0136261 α      lambda       -0.2257058E-05
   maximum displ.:     0.0080018 α      in ANC's #14, #9, #16, ...

   *** GEOMETRY OPTIMIZATION CONVERGED AFTER 21 ITERATIONS ***

------------------------------------------------------------------------
 total energy gain   :        -0.0262218 Eh      -16.4545 kcal/mol
 total RMSD          :         0.3794494 a0        0.2008 Å
 total power (kW/mol):        -3.2783541 (step)  -22.6913 (real)
------------------------------------------------------------------------

 ANCopt (total)                0 d,  0 h,  0 min,  3.034 sec
 optimizer setup                ...        0 min,  0.001 sec (  0.032%)
 model hessian                  ...        0 min,  0.056 sec (  1.836%)
 ANC generation                 ...        0 min,  0.005 sec (  0.169%)
 coordinate transformation      ...        0 min,  0.001 sec (  0.028%)
 single point calculation       ...        0 min,  2.958 sec ( 97.500%)
 optimization log               ...        0 min,  0.007 sec (  0.238%)
 hessian update                 ...        0 min,  0.001 sec (  0.024%)
 rational function              ...        0 min,  0.003 sec (  0.101%)

================
 final structure:
================
43
 xtb: 6.5.1 (579679a)
C           -6.15978009964017       -1.34878276435814       -1.58927846853699
O           -4.91740254469719       -0.75835609245220       -1.18541702355286
C           -4.93599653837118       -0.03990676178275       -0.07398798365020
O           -5.94095680548244        0.13231027795628        0.59397422903287
C           -3.62373487937704        0.54321244726007        0.29134440645823
N           -2.55823978956486        0.26126387413641       -0.52864291348477
C           -1.40410845532071        0.75025418783159       -0.23766823329848
C           -0.22679721168333        0.50750567448409       -1.15538730545966
C            0.02536039534637        1.79273607634904       -1.95736800841279
C           -0.50237854404867       -0.68665532972978       -2.07197951178686
N            0.94124673753104        0.21018730813906       -0.30425780618707
C            2.17616317090662        0.04531516324374       -0.80334717891828
O            2.52719324317244        0.17579149499444       -1.95407270538949
C            3.15503353289859       -0.32947332874597        0.27782233924400
N            2.92719364943424       -0.47986136292089        1.54837643560810
N            4.11795100143505       -0.82011501352693        2.07578037706089
C            4.23425860621632       -1.08550870750723        3.49567267014327
C            5.03074372228517       -0.87275941925983        1.12626726076533
C            6.46272364818908       -1.19553299327726        1.23354870366121
O            4.44634498361357       -0.56510807917623       -0.01196834565418
N           -1.20308345300479        1.55479166779071        0.84775128956954
C           -2.18983824869579        1.90640937638098        1.75495015203201
O           -1.93705343416454        2.61458228707361        2.71059583002431
C           -3.49731521557336        1.33346298115873        1.40879091977255
O           -4.50180855970642        1.63081167046148        2.22884150810442
H           -5.97009720907183       -1.84997173510491       -2.53610909567519
H           -6.91947086155173       -0.57335752560200       -1.71131649285720
H           -6.49088077255519       -2.06744146230731       -0.83651718359738
H           -0.89596594442407        2.08679798549308       -2.45938673773828
H            0.79956466212495        1.62969517177939       -2.70414712229094
H            0.33770656907874        2.59152888190066       -1.28685670824883
H           -1.41176636045150       -0.49957022288268       -2.64113385586838
H           -0.63684699446228       -1.58688372882385       -1.47464628752424
H            0.33013086712490       -0.83090122736508       -2.75766703916646
H            0.77892166084603       -0.03442066342293        0.65824854834016
H            3.35823950443656       -0.66858390869877        3.98579915609049
H            4.27713715715322       -2.16331375659566        3.64992048648856
H            5.14438413979697       -0.61974833984421        3.86692038322040
H            6.86651301542084       -1.39186849499238        0.24156461141065
H            6.99668491477795       -0.35124318266243        1.67578455522107
H            6.60581829812382       -2.06092581487354        1.87978474640391
H           -0.28215149796135        1.91823162805373        1.03391422312184
H           -5.33363806012319        1.19540376146004        1.92255917555870
 
 Bond Distances (Angstroems)
 ---------------------------
C1-O2=1.4336         C1-H26=1.0880        C1-H27=1.0924        C1-H28=1.0921        O2-C1=1.4336         O2-C3=1.3236         
C3-O2=1.3236         C3-O4=1.2189         C3-C5=1.4817         O4-C3=1.2189         C5-C3=1.4817         C5-N6=1.3737         
C5-C24=1.3745        N6-C5=1.3737         N6-C7=1.2868         C7-N6=1.2868         C7-C8=1.5123         C7-N21=1.3660        
C8-C7=1.5123         C8-C9=1.5358         C8-C10=1.5304        C8-N11=1.4755        C9-C8=1.5358         C9-H29=1.0897        
C9-H30=1.0880        C9-H31=1.0887        C10-C8=1.5304        C10-H32=1.0890       C10-H33=1.0887       C10-H34=1.0881       
N11-C8=1.4755        N11-C12=1.3421       N11-H35=1.0063       C12-N11=1.3421       C12-O13=1.2101       C12-C14=1.5058       
O13-C12=1.2101       C14-C12=1.5058       C14-N15=1.2996       C14-O20=1.3442       N15-C14=1.2996       N15-N16=1.3460       
N16-N15=1.3460       N16-C17=1.4492       N16-C18=1.3182       C17-N16=1.4492       C17-H36=1.0869       C17-H37=1.0896       
C17-H38=1.0877       C18-N16=1.3182       C18-C19=1.4718       C18-O20=1.3160       C19-C18=1.4718       C19-H39=1.0889       
C19-H40=1.0925       C19-H41=1.0895       O20-C14=1.3442       O20-C18=1.3160       N21-C7=1.3660        N21-C22=1.3858       
N21-H42=1.0074       C22-N21=1.3858       C22-O23=1.2160       C22-C24=1.4689       O23-C22=1.2160       C24-C5=1.3745        
C24-C22=1.4689       C24-O25=1.3304       O25-C24=1.3304       O25-H43=0.9876       H26-C1=1.0880        H27-C1=1.0924        
H28-C1=1.0921        H29-C9=1.0897        H30-C9=1.0880        H31-C9=1.0887        H32-C10=1.0890       H33-C10=1.0887       
H34-C10=1.0881       H35-N11=1.0063       H36-C17=1.0869       H37-C17=1.0896       H38-C17=1.0877       H39-C19=1.0889       
H40-C19=1.0925       H41-C19=1.0895       H42-N21=1.0074       H43-O25=0.9876       
 C  H  Rav=1.0893 sigma=0.0017  Rmin=1.0869  Rmax=1.0925    15
 C  C  Rav=1.4852 sigma=0.0481  Rmin=1.3745  Rmax=1.5358     8
 N  H  Rav=1.0068 sigma=0.0006  Rmin=1.0063  Rmax=1.0074     2
 N  C  Rav=1.3663 sigma=0.0605  Rmin=1.2868  Rmax=1.4755     9
 N  N  Rav=1.3460 sigma=0.0000  Rmin=1.3460  Rmax=1.3460     1
 O  H  Rav=0.9876 sigma=0.0000  Rmin=0.9876  Rmax=0.9876     1
 O  C  Rav=1.2991 sigma=0.0735  Rmin=1.2101  Rmax=1.4336     8
 
 selected bond angles (degree)
 --------------------
H26-C1-O2=106.49               H27-C1-O2=109.99               H27-C1-H26=110.55              H28-C1-O2=109.85               
H28-C1-H26=110.46              H28-C1-H27=109.47              C3-O2-C1=116.61                O4-C3-O2=123.26                
C5-C3-O2=114.09                C5-C3-O4=122.65                N6-C5-C3=117.32                C24-C5-C3=120.54               
C24-C5-N6=122.14               C7-N6-C5=118.86                C8-C7-N6=120.00                N21-C7-N6=122.38               
N21-C7-C8=117.53               C9-C8-C7=108.08                C10-C8-C7=110.40               C10-C8-C9=111.70               
N11-C8-C7=107.37               N11-C8-C9=109.87               N11-C8-C10=109.32              H29-C9-C8=109.12               
H30-C9-C8=110.48               H30-C9-H29=109.02              H31-C9-C8=109.85               H31-C9-H29=109.17              
H31-C9-H30=109.18              H32-C10-C8=109.23              H33-C10-C8=109.81              H33-C10-H32=109.01             
H34-C10-C8=110.06              H34-C10-H32=109.41             H34-C10-H33=109.31             
 
 selected dihedral angles (degree)
 ---------------------------------
C3-O2-C1-H26=177.08           C3-O2-C1-H27= 57.26           C3-O2-C1-H28=296.71           O4-C3-O2-C1=359.89            
C5-C3-O2-C1=179.98            N6-C5-C3-O2=358.90            N6-C5-C3-O4=178.99            C24-C5-C3-O2=178.82           
C24-C5-C3-O4=358.91           C7-N6-C5-C3=180.14            C7-N6-C5-C24=  0.21           C8-C7-N6-C5=182.72            
N21-C7-N6-C5=359.10           C9-C8-C7-N6=103.49            C9-C8-C7-N21=286.94           C10-C8-C7-N6=341.05           
C10-C8-C7-N21=164.49          N11-C8-C7-N6=221.96           N11-C8-C7-N21= 45.41          H29-C9-C8-C7=305.66           
H29-C9-C8-C10= 67.30          H29-C9-C8-N11=188.79          H30-C9-C8-C7=185.82           H30-C9-C8-C10=307.45          
H30-C9-C8-N11= 68.95          H31-C9-C8-C7= 65.31           H31-C9-C8-C10=186.94          H31-C9-C8-N11=308.44          
H32-C10-C8-C7= 57.52          H32-C10-C8-C9=297.23          H32-C10-C8-N11=175.41         H33-C10-C8-C7=298.03          
H33-C10-C8-C9=177.74          H33-C10-C8-N11= 55.93         H34-C10-C8-C7=177.66          H34-C10-C8-C9= 57.37          
H34-C10-C8-N11=295.55         
           -------------------------------------------------
          |                Final Singlepoint                |
           -------------------------------------------------

          ...................................................
          :                      SETUP                      :
          :.................................................:
          :  # basis functions                 136          :
          :  # atomic orbitals                 136          :
          :  # shells                           86          :
          :  # electrons                       134          :
          :  # halogen bonds                     0          :
          :  max. iterations                   250          :
          :  Hamiltonian                  GFN1-xTB          :
          :  restarted?                      false          :
          :  GBSA solvation                   true          :
          :  PC potential                    false          :
          :  electronic temp.          300.0000000     K    :
          :  accuracy                    1.0000000          :
          :  -> integral cutoff          0.2500000E+02      :
          :  -> integral neglect         0.1000000E-07      :
          :  -> SCF convergence          0.1000000E-05 Eh   :
          :  -> wf. convergence          0.2000000E-04 e    :
          :  Broyden damping             0.4000000          :
          ...................................................

 iter      E             dE          RMSdq      gap      omega  full diag
   1    -83.9904441 -0.839904E+02  0.111E-05    2.07       0.0  T
   2    -83.9904441 -0.109424E-11  0.583E-06    2.07    2616.4  T
   3    -83.9904441 -0.511591E-12  0.334E-06    2.07    4562.2  T

   *** convergence criteria satisfied after 3 iterations ***

         #    Occupation            Energy/Eh            Energy/eV
      -------------------------------------------------------------
         1        2.0000           -0.9394971             -25.5650
       ...           ...                  ...                  ...
        61        2.0000           -0.4976485             -13.5417
        62        2.0000           -0.4953567             -13.4793
        63        2.0000           -0.4941362             -13.4461
        64        2.0000           -0.4806097             -13.0781
        65        2.0000           -0.4688590             -12.7583
        66        2.0000           -0.4555236             -12.3954
        67        2.0000           -0.4385934             -11.9347 (HOMO)
        68                         -0.3626214              -9.8674 (LUMO)
        69                         -0.3463165              -9.4238
        70                         -0.3332306              -9.0677
        71                         -0.2939649              -7.9992
        72                         -0.2494249              -6.7872
       ...                                ...                  ...
       136                          0.7184429              19.5498
      -------------------------------------------------------------
                  HL-Gap            0.0759720 Eh            2.0673 eV
             Fermi-level           -0.4006074 Eh          -10.9011 eV

 SCC (total)                   0 d,  0 h,  0 min,  0.106 sec
 SCC setup                      ...        0 min,  0.002 sec (  1.825%)
 Dispersion                     ...        0 min,  0.000 sec (  0.326%)
 classical contributions        ...        0 min,  0.000 sec (  0.108%)
 integral evaluation            ...        0 min,  0.035 sec ( 32.842%)
 iterations                     ...        0 min,  0.012 sec ( 11.333%)
 molecular gradient             ...        0 min,  0.056 sec ( 52.986%)
 printout                       ...        0 min,  0.001 sec (  0.526%)

         :::::::::::::::::::::::::::::::::::::::::::::::::::::
         ::                     SUMMARY                     ::
         :::::::::::::::::::::::::::::::::::::::::::::::::::::
         :: total energy             -83.183318300484 Eh    ::
         :: total w/o Gsasa/hb       -83.157414335438 Eh    ::
         :: gradient norm              0.000779067920 Eh/a0 ::
         :: HOMO-LUMO gap              2.067303762512 eV    ::
         ::.................................................::
         :: SCC energy               -83.990444072743 Eh    ::
         :: -> electrostatic           0.438779124182 Eh    ::
         :: -> Gsolv                  -0.126406381661 Eh    ::
         ::    -> Gelec               -0.100502416615 Eh    ::
         ::    -> Gsasa               -0.025232185374 Eh    ::
         ::    -> Ghb                 -0.008296058677 Eh    ::
         ::    -> Gshift               0.007624279005 Eh    ::
         :: repulsion energy           0.832519833915 Eh    ::
         :: dispersion energy         -0.025394061656 Eh    ::
         :: halogen bond corr.         0.000000000000 Eh    ::
         :: add. restraining           0.000000000000 Eh    ::
         :: total charge               1.000000000000 e     ::
         :::::::::::::::::::::::::::::::::::::::::::::::::::::

           -------------------------------------------------
          |                Property Printout                |
           -------------------------------------------------

    * Orbital Energies and Occupations

         #    Occupation            Energy/Eh            Energy/eV
      -------------------------------------------------------------
         1        2.0000           -0.9394971             -25.5650
       ...           ...                  ...                  ...
        55        2.0000           -0.5279618             -14.3666
        56        2.0000           -0.5222842             -14.2121
        57        2.0000           -0.5204317             -14.1617
        58        2.0000           -0.5194416             -14.1347
        59        2.0000           -0.5144136             -13.9979
        60        2.0000           -0.5047449             -13.7348
        61        2.0000           -0.4976485             -13.5417
        62        2.0000           -0.4953567             -13.4793
        63        2.0000           -0.4941362             -13.4461
        64        2.0000           -0.4806097             -13.0781
        65        2.0000           -0.4688590             -12.7583
        66        2.0000           -0.4555236             -12.3954
        67        2.0000           -0.4385934             -11.9347 (HOMO)
        68                         -0.3626214              -9.8674 (LUMO)
        69                         -0.3463165              -9.4238
        70                         -0.3332306              -9.0677
        71                         -0.2939649              -7.9992
        72                         -0.2494249              -6.7872
        73                         -0.2457027              -6.6859
        74                         -0.1852395              -5.0406
        75                         -0.1730291              -4.7084
        76                         -0.1674135              -4.5556
        77                         -0.1413073              -3.8452
        78                         -0.1406968              -3.8286
       ...                                ...                  ...
       136                          0.7184429              19.5498
      -------------------------------------------------------------
                  HL-Gap            0.0759720 Eh            2.0673 eV
             Fermi-level           -0.4006074 Eh          -10.9011 eV

  Mulliken/CM5 charges         n(s)   n(p)   n(d)
     1C     0.16089  0.03997   0.983  2.856  0.000
     2O    -0.40003 -0.48281   1.682  4.718  0.000
     3C     0.57552  0.64017   0.969  2.456  0.000
     4O    -0.56904 -0.63439   1.725  4.844  0.000
     5C     0.06338  0.13928   1.043  2.894  0.000
     6N    -0.36178 -0.54703   1.526  3.836  0.000
     7C     0.27663  0.42807   1.016  2.707  0.000
     8C     0.15091  0.18983   1.069  2.780  0.000
     9C    -0.10721 -0.24653   1.023  3.085  0.000
    10C    -0.10226 -0.24042   1.018  3.084  0.000
    11N    -0.34027 -0.69482   1.437  3.903  0.000
    12C     0.48864  0.59889   0.964  2.547  0.000
    13O    -0.53370 -0.58004   1.718  4.815  0.000
    14C     0.36537  0.49185   1.024  2.611  0.000
    15N    -0.20440 -0.32418   1.553  3.651  0.000
    16N     0.02112 -0.18040   1.428  3.551  0.000
    17C     0.02439 -0.05783   1.004  2.972  0.000
    18C     0.40682  0.51023   1.013  2.580  0.000
    19C    -0.11202 -0.24986   1.020  3.092  0.000
    20O    -0.28077 -0.33391   1.672  4.609  0.000
    21N    -0.30042 -0.64755   1.439  3.861  0.000
    22C     0.46119  0.56304   0.982  2.557  0.000
    23O    -0.56324 -0.60208   1.724  4.839  0.000
    24C     0.24062  0.27509   1.030  2.729  0.000
    25O    -0.50118 -0.68880   1.695  4.806  0.000
    26H     0.05761  0.11793   0.942  0.000  0.000
    27H     0.05850  0.12051   0.942  0.000  0.000
    28H     0.05777  0.11926   0.942  0.000  0.000
    29H     0.05614  0.11126   0.944  0.000  0.000
    30H     0.07154  0.13189   0.928  0.000  0.000
    31H     0.05185  0.11035   0.948  0.000  0.000
    32H     0.05599  0.11425   0.944  0.000  0.000
    33H     0.05027  0.10827   0.950  0.000  0.000
    34H     0.06199  0.12105   0.938  0.000  0.000
    35H     0.26851  0.47797   0.731  0.000  0.000
    36H     0.10823  0.17517   0.892  0.000  0.000
    37H     0.10488  0.16794   0.895  0.000  0.000
    38H     0.09771  0.16108   0.902  0.000  0.000
    39H     0.11628  0.17191   0.884  0.000  0.000
    40H     0.12136  0.17544   0.879  0.000  0.000
    41H     0.10881  0.16384   0.891  0.000  0.000
    42H     0.28159  0.48700   0.718  0.000  0.000
    43H     0.41178  0.59913   0.588  0.000  0.000

Wiberg/Mayer (AO) data.
largest (>0.10) Wiberg bond orders for each atom

 ---------------------------------------------------------------------------
     #   Z sym  total        # sym  WBO       # sym  WBO       # sym  WBO
 ---------------------------------------------------------------------------
     1   6 C    3.864 --    26 H    0.986    27 H    0.979    28 H    0.979
                             2 O    0.889
     2   8 O    2.219 --     3 C    1.140     1 C    0.889     4 O    0.130
     3   6 C    3.850 --     4 O    1.606     2 O    1.140     5 C    1.019
     4   8 O    1.947 --     3 C    1.606     2 O    0.130
     5   6 C    3.962 --    24 C    1.487     6 N    1.171     3 C    1.019
     6   7 N    3.029 --     7 C    1.600     5 C    1.171
     7   6 C    3.935 --     6 N    1.600    21 N    1.164     8 C    0.982
     8   6 C    3.919 --    10 C    0.990     7 C    0.982     9 C    0.976
                            11 N    0.905
     9   6 C    3.985 --    31 H    0.984    29 H    0.984    30 H    0.977
                             8 C    0.976
    10   6 C    3.987 --     8 C    0.990    33 H    0.985    34 H    0.982
                            32 H    0.981
    11   7 N    3.366 --    12 C    1.278     8 C    0.905    35 H    0.891
                            13 O    0.196
    12   6 C    3.924 --    13 O    1.622    11 N    1.278    14 C    0.953
    13   8 O    1.949 --    12 C    1.622    11 N    0.196
    14   6 C    3.842 --    15 N    1.609    20 O    1.068    12 C    0.953
    15   7 N    2.992 --    14 C    1.609    16 N    1.152
    16   7 N    3.630 --    18 C    1.421    15 N    1.152    17 C    0.908
    17   6 C    3.883 --    36 H    0.977    38 H    0.974    37 H    0.964
                            16 N    0.908
    18   6 C    3.842 --    16 N    1.421    20 O    1.157    19 C    1.041
    19   6 C    3.960 --    18 C    1.041    39 H    0.970    41 H    0.957
                            40 H    0.936
    20   8 O    2.392 --    18 C    1.157    14 C    1.068
    21   7 N    3.454 --     7 C    1.164    22 C    1.112    42 H    0.885
                            23 O    0.135
    22   6 C    3.906 --    23 O    1.612    21 N    1.112    24 C    1.051
    23   8 O    1.910 --    22 C    1.612    21 N    0.135
    24   6 C    3.922 --     5 C    1.487    25 O    1.136    22 C    1.051
    25   8 O    2.101 --    24 C    1.136    43 H    0.770
    26   1 H    1.010 --     1 C    0.986
    27   1 H    1.006 --     1 C    0.979
    28   1 H    1.005 --     1 C    0.979
    29   1 H    1.000 --     9 C    0.984
    30   1 H    1.006 --     9 C    0.977
    31   1 H    0.999 --     9 C    0.984
    32   1 H    1.008 --    10 C    0.981
    33   1 H    1.003 --    10 C    0.985
    34   1 H    1.003 --    10 C    0.982
    35   1 H    0.935 --    11 N    0.891
    36   1 H    0.991 --    17 C    0.977
    37   1 H    0.989 --    17 C    0.964
    38   1 H    0.989 --    17 C    0.974
    39   1 H    0.986 --    19 C    0.970
    40   1 H    0.984 --    19 C    0.936
    41   1 H    0.987 --    19 C    0.957
    42   1 H    0.928 --    21 N    0.885
    43   1 H    0.848 --    25 O    0.770
 ---------------------------------------------------------------------------

Topologies differ in total number of bonds
Writing topology from bond orders to xtbtopo.mol

 dipole moment from electron density (au)
     X       Y       Z   
   8.5445  -3.0443   2.5773  total (Debye):   23.968

           -------------------------------------------------
          |                Geometry Summary                 |
           -------------------------------------------------

      molecular mass/u    :      352.3231817
   center of mass at/Å    :       -0.3288540       0.2054654       0.3122187
  moments of inertia/u·Å² :        0.1188998E+04   0.5308156E+04   0.5852648E+04
rotational constants/cm⁻¹ :        0.1417802E-01   0.3175798E-02   0.2880343E-02

 * 40 selected distances

     #   Z          #   Z                                           value/Å
     1   6 C        2   8 O                                       1.4336004
     2   8 O        3   6 C                                       1.3235520
     3   6 C        4   8 O                                       1.2189248
     5   6 C        6   7 N                                       1.3737374
     6   7 N        7   6 C                                       1.2867779
     8   6 C        9   6 C                                       1.5357650 (max)
     8   6 C       10   6 C                                       1.5303945
     8   6 C       11   7 N                                       1.4755157
    11   7 N       12   6 C                                       1.3421222
    12   6 C       13   8 O                                       1.2101304
    14   6 C       15   7 N                                       1.2995521
    15   7 N       16   7 N                                       1.3460427
    16   7 N       17   6 C                                       1.4491569
    16   7 N       18   6 C                                       1.3181568
    18   6 C       19   6 C                                       1.4718217
    14   6 C       20   8 O                                       1.3442425
    18   6 C       20   8 O                                       1.3159604
     7   6 C       21   7 N                                       1.3659530
    21   7 N       22   6 C                                       1.3857598
    22   6 C       23   8 O                                       1.2160049
     5   6 C       24   6 C                                       1.3744690
    24   6 C       25   8 O                                       1.3303783
     1   6 C       26   1 H                                       1.0879607
     1   6 C       27   1 H                                       1.0923863
     1   6 C       28   1 H                                       1.0921299
     9   6 C       29   1 H                                       1.0896502
     9   6 C       30   1 H                                       1.0879586
     9   6 C       31   1 H                                       1.0886761
    10   6 C       32   1 H                                       1.0890013
    10   6 C       33   1 H                                       1.0887149
    10   6 C       34   1 H                                       1.0881390
    11   7 N       35   1 H                                       1.0062809
    17   6 C       36   1 H                                       1.0869498
    17   6 C       37   1 H                                       1.0896306
    17   6 C       38   1 H                                       1.0876977
    19   6 C       39   1 H                                       1.0888646
    19   6 C       40   1 H                                       1.0924801
    19   6 C       41   1 H                                       1.0894962
    21   7 N       42   1 H                                       1.0074031
    25   8 O       43   1 H                                       0.9875877 (min)

 * 7 distinct bonds (by element types)

   Z      Z             #   av. dist./Å        max./Å        min./Å
   1 H    6 C          15     1.0893157     1.0924801     1.0869498
   6 C    6 C           4     1.4781125     1.5357650     1.3744690
   1 H    7 N           2     1.0068420     1.0074031     1.0062809
   6 C    7 N           9     1.3663035     1.4755157     1.2867779
   7 N    7 N           1     1.3460427     1.3460427     1.3460427
   1 H    8 O           1     0.9875877     0.9875877     0.9875877
   6 C    8 O           8     1.2990992     1.4336004     1.2101304


optimized geometry written to: xtbopt.xyz


           -------------------------------------------------
          | TOTAL ENERGY              -83.183318300484 Eh   |
          | GRADIENT NORM               0.000779067920 Eh/α |
          | HOMO-LUMO GAP               2.067303762512 eV   |
           -------------------------------------------------

------------------------------------------------------------------------
 * finished run on 2023/06/20 at 15:26:57.434     
------------------------------------------------------------------------
 total:
 * wall-time:     0 d,  0 h,  0 min,  3.448 sec
 *  cpu-time:     0 d,  0 h,  0 min,  3.341 sec
 * ratio c/w:     0.969 speedup
 SCF:
 * wall-time:     0 d,  0 h,  0 min,  0.170 sec
 *  cpu-time:     0 d,  0 h,  0 min,  0.169 sec
 * ratio c/w:     0.996 speedup
 ANC optimizer:
 * wall-time:     0 d,  0 h,  0 min,  3.148 sec
 *  cpu-time:     0 d,  0 h,  0 min,  3.123 sec
 * ratio c/w:     0.992 speedup

