      -----------------------------------------------------------      
     |                   =====================                   |     
     |                           x T B                           |     
     |                   =====================                   |     
     |                         S. Grimme                         |     
     |          Mulliken Center for Theoretical Chemistry        |     
     |                    University of Bonn                     |     
      -----------------------------------------------------------      

   * xtb version 6.5.1 (579679a) compiled by 'ehlert@majestix' on 2022-07-11

   xtb is free software: you can redistribute it and/or modify it under
   the terms of the GNU Lesser General Public License as published by
   the Free Software Foundation, either version 3 of the License, or
   (at your option) any later version.
   
   xtb is distributed in the hope that it will be useful,
   but WITHOUT ANY WARRANTY; without even the implied warranty of
   MERCHANTABILITY or FITNESS FOR A PARTICULAR PURPOSE.  See the
   GNU Lesser General Public License for more details.
   
   Cite this work as:
   * C. Bannwarth, E. Caldeweyher, S. Ehlert, A. Hansen, P. Pracht,
     J. Seibert, S. Spicher, S. Grimme, WIREs Comput. Mol. Sci., 2020, 11,
     e01493. DOI: 10.1002/wcms.1493
   
   for GFN2-xTB:
   * C. Bannwarth, S. Ehlert and S. Grimme., J. Chem. Theory Comput., 2019,
     15, 1652-1671. DOI: 10.1021/acs.jctc.8b01176
   for GFN1-xTB:
   * S. Grimme, C. Bannwarth, P. Shushkov, J. Chem. Theory Comput., 2017,
     13, 1989-2009. DOI: 10.1021/acs.jctc.7b00118
   for GFN0-xTB:
   * P. Pracht, E. Caldeweyher, S. Ehlert, S. Grimme, ChemRxiv, 2019, preprint.
     DOI: 10.26434/chemrxiv.8326202.v1
   for GFN-FF:
   * S. Spicher and S. Grimme, Angew. Chem. Int. Ed., 2020, 59, 15665-15673.
     DOI: 10.1002/anie.202004239
   
   for ALPB and GBSA implicit solvation:
   * S. Ehlert, M. Stahn, S. Spicher, S. Grimme, J. Chem. Theory Comput.,
     2021, 17, 4250-4261. DOI: 10.1021/acs.jctc.1c00471
   
   for DFT-D4:
   * E. Caldeweyher, C. Bannwarth and S. Grimme, J. Chem. Phys., 2017,
     147, 034112. DOI: 10.1063/1.4993215
   * E. Caldeweyher, S. Ehlert, A. Hansen, H. Neugebauer, S. Spicher,
     C. Bannwarth and S. Grimme, J. Chem. Phys., 2019, 150, 154122.
     DOI: 10.1063/1.5090222
   * E. Caldeweyher, J.-M. Mewes, S. Ehlert and S. Grimme, Phys. Chem. Chem. Phys.
     2020, 22, 8499-8512. DOI: 10.1039/D0CP00502A
   
   for sTDA-xTB:
   * S. Grimme and C. Bannwarth, J. Chem. Phys., 2016, 145, 054103.
     DOI: 10.1063/1.4959605
   
   in the mass-spec context:
   * V. Asgeirsson, C. Bauer and S. Grimme, Chem. Sci., 2017, 8, 4879.
     DOI: 10.1039/c7sc00601b
   * J. Koopman and S. Grimme, ACS Omega 2019, 4, 12, 15120-15133.
     DOI: 10.1021/acsomega.9b02011
   
   for metadynamics refer to:
   * S. Grimme, J. Chem. Theory Comput., 2019, 155, 2847-2862
     DOI: 10.1021/acs.jctc.9b00143
   
   for SPH calculations refer to:
   * S. Spicher and S. Grimme, J. Chem. Theory Comput., 2021, 17, 1701-1714
     DOI: 10.1021/acs.jctc.0c01306
   
   with help from (in alphabetical order)
   P. Atkinson, C. Bannwarth, F. Bohle, G. Brandenburg, E. Caldeweyher
   M. Checinski, S. Dohm, S. Ehlert, S. Ehrlich, I. Gerasimov, C. Hölzer
   A. Katbashev, J. Koopman, C. Lavigne, S. Lehtola, F. März, M. Müller,
   F. Musil, H. Neugebauer, J. Pisarek, C. Plett, P. Pracht, F. Pultar,
   J. Seibert, P. Shushkov, S. Spicher, M. Stahn, M. Steiner, T. Strunk,
   J. Stückrath, T. Rose, and J. Unsleber
   
 * started run on 2023/06/20 at 15:09:43.619     

           -------------------------------------------------
          |                Calculation Setup                |
           -------------------------------------------------

          program call               : /lustre/hpc/kemi/ree/PhD/git/ReactivityQM/dep/xtb-6.5.1/bin/xtb --gfn 1 /lustre/hpc/kemi/ree/PhD/git/ReactivityQM/calculations/R01/reac02prodN09/conf10/R01_reac02prodN09_conf10_gfn1.xyz --opt --vfukui --chrg 1 --uhf 0 --alpb DMSO
          hostname                   : node312
          coordinate file            : /lustre/hpc/kemi/ree/PhD/git/ReactivityQM/calculations/R01/reac02prodN09/conf10/R01_reac02prodN09_conf10_gfn1.xyz
          omp threads                :                     1

   ID    Z sym.   atoms
    1    6 C      1, 3, 5, 7-10, 13, 15, 16
    2    8 O      2, 4, 14, 17
    3    7 N      6, 11, 12
    4    1 H      18-33

           -------------------------------------------------
          |                 G F N 1 - x T B                 |
           -------------------------------------------------

        Reference                      10.1021/acs.jctc.7b00118
      * Hamiltonian:
        H0-scaling (s, p, d)           1.850000    2.250000    2.000000
        zeta-weighting                 0.000000
      * Dispersion:
        s8                             2.400000
        a1                             0.630000
        a2                             5.000000
        s9                             0.000000
      * Repulsion:
        kExp                           1.500000
        rExp                           1.000000
      * Coulomb:
        alpha                          2.000000
        third order                    atomic
        anisotropic                    false
      * Halogen bond correction:
        rad-scale                      1.300000
        damping                        0.440000

      * Solvation model:               ALPB
        Solvent                        DMSO
        Parameter file                 internal GFN1-xTB/ALPB
        Dielectric constant                4.6680E+01
        Reference state                gsolv [1 M gas/solution]
        Free energy shift                  7.6243E-03 Eh       4.7843E+00 kcal/mol
        Temperature                        2.9815E+02 K
        Density                            1.1000E+00 kg/L
        Solvent mass                       7.8130E+01 g/mol
        Interaction kernel             P16
        Born radius scaling (c1)           1.7672E+00
        Born radii integrator          GBOBC
        Born offset                        0.0000E+00 a0       0.0000E+00 AA
        H-bond correction              true
        Ion screening                  false
        Surface tension                    1.0000E-05 Eh       1.5569E+01 dyn/cm
        Grid points                               230 per atom

          ...................................................
          :                      SETUP                      :
          :.................................................:
          :  # basis functions                 100          :
          :  # atomic orbitals                 100          :
          :  # shells                           66          :
          :  # electrons                        94          :
          :  # halogen bonds                     0          :
          :  max. iterations                   250          :
          :  Hamiltonian                  GFN1-xTB          :
          :  restarted?                      false          :
          :  GBSA solvation                   true          :
          :  PC potential                    false          :
          :  electronic temp.          300.0000000     K    :
          :  accuracy                    1.0000000          :
          :  -> integral cutoff          0.2500000E+02      :
          :  -> integral neglect         0.1000000E-07      :
          :  -> SCF convergence          0.1000000E-05 Eh   :
          :  -> wf. convergence          0.2000000E-04 e    :
          :  Broyden damping             0.4000000          :
          ...................................................

 iter      E             dE          RMSdq      gap      omega  full diag
   1    -58.0532780 -0.580533E+02  0.798E+00    1.06       0.0  T
   2    -57.8651234  0.188155E+00  0.561E+00    0.23       1.0  T
   3    -58.1464122 -0.281289E+00  0.360E+00    1.58       1.0  T
   4    -58.2604306 -0.114018E+00  0.193E+00    1.29       1.0  T
   5    -58.3142464 -0.538159E-01  0.112E+00    1.22       1.0  T
   6    -58.3426288 -0.283823E-01  0.446E-01    0.96       1.0  T
   7    -58.3482589 -0.563019E-02  0.124E-01    0.26       1.0  T
   8    -58.3456350  0.262394E-02  0.267E-01    0.57       1.0  T
   9    -58.3483961 -0.276107E-02  0.621E-02    0.25       1.0  T
  10    -58.3480301  0.365977E-03  0.111E-01    0.36       1.0  T
  11    -58.3478386  0.191464E-03  0.118E-01    0.23       1.0  T
  12    -58.3484647 -0.626102E-03  0.575E-02    0.31       1.0  T
  13    -58.3486141 -0.149401E-03  0.190E-02    0.29       1.0  T
  14    -58.3486267 -0.125439E-04  0.104E-02    0.28       1.7  T
  15    -58.3486323 -0.563112E-05  0.501E-04    0.28      34.8  T
  16    -58.3486323  0.310582E-07  0.911E-04    0.28      19.1  T
  17    -58.3486323 -0.290948E-07  0.524E-04    0.28      33.2  T
  18    -58.3486323 -0.146327E-07  0.237E-05    0.28     736.0  T
  19    -58.3486323 -0.216716E-11  0.226E-05    0.28     769.2  T

   *** convergence criteria satisfied after 19 iterations ***

         #    Occupation            Energy/Eh            Energy/eV
      -------------------------------------------------------------
         1        2.0000           -0.8955820             -24.3700
       ...           ...                  ...                  ...
        41        2.0000           -0.5313239             -14.4581
        42        2.0000           -0.5240512             -14.2602
        43        2.0000           -0.5199378             -14.1482
        44        2.0000           -0.5146295             -14.0038
        45        2.0000           -0.5092928             -13.8586
        46        2.0000           -0.4892247             -13.3125
        47        1.9910           -0.4561367             -12.4121 (HOMO)
        48        0.0090           -0.4458805             -12.1330 (LUMO)
        49                         -0.3577474              -9.7348
        50                         -0.3068336              -8.3494
        51                         -0.2677446              -7.2857
        52                         -0.1523651              -4.1461
       ...                                ...                  ...
       100                          0.6384479              17.3731
      -------------------------------------------------------------
                  HL-Gap            0.0102562 Eh            0.2791 eV
             Fermi-level           -0.4510086 Eh          -12.2726 eV

 SCC (total)                   0 d,  0 h,  0 min,  0.136 sec
 SCC setup                      ...        0 min,  0.002 sec (  1.155%)
 Dispersion                     ...        0 min,  0.000 sec (  0.217%)
 classical contributions        ...        0 min,  0.000 sec (  0.067%)
 integral evaluation            ...        0 min,  0.027 sec ( 19.603%)
 iterations                     ...        0 min,  0.038 sec ( 27.801%)
 molecular gradient             ...        0 min,  0.069 sec ( 50.649%)
 printout                       ...        0 min,  0.001 sec (  0.468%)

         :::::::::::::::::::::::::::::::::::::::::::::::::::::
         ::                     SUMMARY                     ::
         :::::::::::::::::::::::::::::::::::::::::::::::::::::
         :: total energy             -57.790503193678 Eh    ::
         :: total w/o Gsasa/hb       -57.767290596069 Eh    ::
         :: gradient norm              0.124287371497 Eh/a0 ::
         :: HOMO-LUMO gap              0.279084840981 eV    ::
         ::.................................................::
         :: SCC energy               -58.348632332159 Eh    ::
         :: -> electrostatic           0.318530852633 Eh    ::
         :: -> Gsolv                  -0.105937919310 Eh    ::
         ::    -> Gelec               -0.082725321702 Eh    ::
         ::    -> Gsasa               -0.018126566884 Eh    ::
         ::    -> Ghb                 -0.012710309730 Eh    ::
         ::    -> Gshift               0.007624279005 Eh    ::
         :: repulsion energy           0.577127439496 Eh    ::
         :: dispersion energy         -0.018998301015 Eh    ::
         :: halogen bond corr.         0.000000000000 Eh    ::
         :: add. restraining           0.000000000000 Eh    ::
         :: total charge               1.000000000000 e     ::
         :::::::::::::::::::::::::::::::::::::::::::::::::::::

      ----------------------------------------------------------- 
     |                   =====================                   |
     |                        A N C O P T                        |
     |                   =====================                   |
     |               Approximate Normal Coordinate               |
     |                Rational Function Optimizer                |
      ----------------------------------------------------------- 

          ...................................................
          :                      SETUP                      :
          :.................................................:
          :   optimization level            normal          :
          :   max. optcycles                   200          :
          :   ANC micro-cycles                  20          :
          :   degrees of freedom                93          :
          :.................................................:
          :   RF solver                   davidson          :
          :   write xtbopt.log                true          :
          :   linear?                        false          :
          :   energy convergence         0.5000000E-05 Eh   :
          :   grad. convergence          0.1000000E-02 Eh/α :
          :   maximium RF displ.         1.0000000          :
          :   Hlow (freq-cutoff)         0.1000000E-01      :
          :   Hmax (freq-cutoff)         5.0000000          :
          :   S6 in model hess.         20.0000000          :
          ...................................................

generating ANC from model Hessian ...
Using Lindh-Hessian (1995)
 Shifting diagonal of input Hessian by   9.379679785702555E-003
 Lowest  eigenvalues of input Hessian
    0.000000    0.000000    0.000000    0.000000    0.000000    0.000000
    0.010000    0.010620    0.011339    0.011583    0.013518    0.014738
    0.015432    0.018010    0.018937    0.019146    0.019702    0.020178
 Highest eigenvalues
    1.804599    1.859014    1.946126    2.137045    2.305313    2.405386
 

........................................................................
.............................. CYCLE    1 ..............................
........................................................................
   1    -58.3486323 -0.583486E+02  0.120E-05    0.28       0.0  T
   2    -58.3486323  0.444231E-10  0.308E-05    0.28     565.2  T
   3    -58.3486323 -0.522178E-10  0.570E-07    0.28   30545.5  T
     SCC iter.                  ...        0 min,  0.006 sec
     gradient                   ...        0 min,  0.056 sec
 * total energy  :   -57.7905032 Eh     change       -0.2717826E-10 Eh
   gradient norm :     0.1242880 Eh/α   predicted     0.0000000E+00 (-100.00%)
   displ. norm   :     0.3391232 α      lambda       -0.1634929E-01
   maximum displ.:     0.1096637 α      in ANC's #7, #6, #15, ...

........................................................................
.............................. CYCLE    2 ..............................
........................................................................
   1    -58.3661318 -0.583661E+02  0.118E-01    0.48       0.0  T
   2    -58.3660826  0.492108E-04  0.106E-01    0.31       1.0  T
   3    -58.3665981 -0.515428E-03  0.403E-02    0.41       1.0  T
   4    -58.3666592 -0.611820E-04  0.127E-02    0.38       1.4  T
   5    -58.3666573  0.190864E-05  0.838E-03    0.37       2.1  T
   6    -58.3666606 -0.322529E-05  0.531E-04    0.37      32.8  T
   7    -58.3666606 -0.163017E-08  0.338E-04    0.37      51.6  T
   8    -58.3666606 -0.154932E-08  0.746E-05    0.37     233.5  T
   9    -58.3666606 -0.800000E-10  0.254E-05    0.37     685.9  T
     SCC iter.                  ...        0 min,  0.018 sec
     gradient                   ...        0 min,  0.056 sec
 * total energy  :   -57.8026404 Eh     change       -0.1213723E-01 Eh
   gradient norm :     0.0685640 Eh/α   predicted    -0.9134244E-02 ( -24.74%)
   displ. norm   :     0.3823066 α      lambda       -0.9250690E-02
   maximum displ.:     0.1379973 α      in ANC's #20, #7, #6, ...

........................................................................
.............................. CYCLE    3 ..............................
........................................................................
   1    -58.3794435 -0.583794E+02  0.894E-02    0.64       0.0  T
   2    -58.3796701 -0.226614E-03  0.326E-02    0.54       1.0  T
   3    -58.3796884 -0.183144E-04  0.175E-02    0.55       1.0  T
   4    -58.3796896 -0.119396E-05  0.780E-03    0.54       2.2  T
   5    -58.3796900 -0.367087E-06  0.185E-03    0.55       9.4  T
   6    -58.3796900 -0.664840E-07  0.374E-04    0.55      46.6  T
   7    -58.3796900 -0.888804E-09  0.169E-04    0.55     103.2  T
   8    -58.3796900 -0.133269E-09  0.240E-05    0.55     725.3  T
     SCC iter.                  ...        0 min,  0.015 sec
     gradient                   ...        0 min,  0.056 sec
 * total energy  :   -57.8082970 Eh     change       -0.5656611E-02 Eh
   gradient norm :     0.0185793 Eh/α   predicted    -0.5301378E-02 (  -6.28%)
   displ. norm   :     0.2931902 α      lambda       -0.1905440E-02
   maximum displ.:     0.1220405 α      in ANC's #7, #4, #6, ...

........................................................................
.............................. CYCLE    4 ..............................
........................................................................
   1    -58.3790797 -0.583791E+02  0.235E-02    0.64       0.0  T
   2    -58.3790960 -0.162973E-04  0.909E-03    0.62       1.9  T
   3    -58.3790963 -0.371039E-06  0.510E-03    0.61       3.4  T
   4    -58.3790964 -0.155087E-07  0.177E-03    0.61       9.8  T
   5    -58.3790964 -0.215434E-07  0.272E-04    0.61      64.0  T
   6    -58.3790964 -0.182710E-08  0.908E-05    0.61     191.7  T
   7    -58.3790964 -0.384901E-10  0.309E-05    0.61     563.1  T
     SCC iter.                  ...        0 min,  0.013 sec
     gradient                   ...        0 min,  0.055 sec
 * total energy  :   -57.8096444 Eh     change       -0.1347404E-02 Eh
   gradient norm :     0.0123081 Eh/α   predicted    -0.1034688E-02 ( -23.21%)
   displ. norm   :     0.3184256 α      lambda       -0.1166078E-02
   maximum displ.:     0.1436606 α      in ANC's #7, #4, #11, ...

........................................................................
.............................. CYCLE    5 ..............................
........................................................................
   1    -58.3783960 -0.583784E+02  0.218E-02    0.68       0.0  T
   2    -58.3784127 -0.166844E-04  0.785E-03    0.66       2.2  T
   3    -58.3784131 -0.372040E-06  0.461E-03    0.66       3.8  T
   4    -58.3784131 -0.129158E-07  0.169E-03    0.66      10.3  T
   5    -58.3784131 -0.116749E-07  0.368E-04    0.66      47.2  T
   6    -58.3784131 -0.371419E-08  0.874E-05    0.66     199.2  T
   7    -58.3784131 -0.535962E-10  0.373E-05    0.66     466.8  T
     SCC iter.                  ...        0 min,  0.013 sec
     gradient                   ...        0 min,  0.055 sec
 * total energy  :   -57.8104529 Eh     change       -0.8084629E-03 Eh
   gradient norm :     0.0117536 Eh/α   predicted    -0.6421597E-03 ( -20.57%)
   displ. norm   :     0.3028392 α      lambda       -0.6942811E-03
   maximum displ.:     0.1353189 α      in ANC's #4, #7, #2, ...

........................................................................
.............................. CYCLE    6 ..............................
........................................................................
   1    -58.3785007 -0.583785E+02  0.144E-02    0.69       0.0  T
   2    -58.3785074 -0.672728E-05  0.628E-03    0.67       2.8  T
   3    -58.3785076 -0.194647E-06  0.358E-03    0.67       4.9  T
   4    -58.3785076 -0.995983E-08  0.123E-03    0.67      14.1  T
   5    -58.3785076 -0.602931E-08  0.208E-04    0.67      83.5  T
   6    -58.3785076 -0.118408E-08  0.729E-05    0.67     238.9  T
   7    -58.3785076 -0.300915E-10  0.282E-05    0.67     617.3  T
     SCC iter.                  ...        0 min,  0.013 sec
     gradient                   ...        0 min,  0.056 sec
 * total energy  :   -57.8109673 Eh     change       -0.5143665E-03 Eh
   gradient norm :     0.0107791 Eh/α   predicted    -0.3789783E-03 ( -26.32%)
   displ. norm   :     0.3685305 α      lambda       -0.6458600E-03
   maximum displ.:     0.1589853 α      in ANC's #4, #7, #2, ...

........................................................................
.............................. CYCLE    7 ..............................
........................................................................
   1    -58.3799203 -0.583799E+02  0.154E-02    0.69       0.0  T
   2    -58.3799275 -0.720295E-05  0.736E-03    0.67       2.4  T
   3    -58.3799279 -0.362764E-06  0.411E-03    0.67       4.2  T
   4    -58.3799279 -0.333521E-07  0.175E-03    0.67       9.9  T
   5    -58.3799279 -0.134371E-07  0.317E-04    0.67      54.9  T
   6    -58.3799279 -0.208941E-08  0.957E-05    0.67     181.9  T
   7    -58.3799279 -0.515001E-10  0.386E-05    0.67     450.9  T
     SCC iter.                  ...        0 min,  0.014 sec
     gradient                   ...        0 min,  0.056 sec
 * total energy  :   -57.8114461 Eh     change       -0.4788343E-03 Eh
   gradient norm :     0.0099439 Eh/α   predicted    -0.3667933E-03 ( -23.40%)
   displ. norm   :     0.3908345 α      lambda       -0.5492341E-03
   maximum displ.:     0.1733446 α      in ANC's #4, #2, #7, ...

........................................................................
.............................. CYCLE    8 ..............................
........................................................................
   1    -58.3809539 -0.583810E+02  0.148E-02    0.67       0.0  T
   2    -58.3809591 -0.514817E-05  0.741E-03    0.66       2.3  T
   3    -58.3809595 -0.433921E-06  0.402E-03    0.66       4.3  T
   4    -58.3809595 -0.480232E-07  0.156E-03    0.66      11.2  T
   5    -58.3809596 -0.949471E-08  0.259E-04    0.66      67.1  T
   6    -58.3809596 -0.717087E-09  0.829E-05    0.66     210.0  T
   7    -58.3809596 -0.420712E-10  0.419E-05    0.66     415.9  T
     SCC iter.                  ...        0 min,  0.014 sec
     gradient                   ...        0 min,  0.056 sec
 * total energy  :   -57.8118605 Eh     change       -0.4143540E-03 Eh
   gradient norm :     0.0079966 Eh/α   predicted    -0.3165753E-03 ( -23.60%)
   displ. norm   :     0.4182239 α      lambda       -0.4930380E-03
   maximum displ.:     0.1901041 α      in ANC's #2, #4, #7, ...

........................................................................
.............................. CYCLE    9 ..............................
........................................................................
   1    -58.3830671 -0.583831E+02  0.175E-02    0.66       0.0  T
   2    -58.3830724 -0.532871E-05  0.800E-03    0.66       2.2  T
   3    -58.3830729 -0.515641E-06  0.438E-03    0.66       4.0  T
   4    -58.3830730 -0.889157E-07  0.143E-03    0.66      12.2  T
   5    -58.3830730 -0.849685E-08  0.211E-04    0.66      82.4  T
   6    -58.3830730 -0.674511E-09  0.830E-05    0.66     209.8  T
   7    -58.3830730 -0.331823E-10  0.290E-05    0.66     600.1  T
     SCC iter.                  ...        0 min,  0.014 sec
     gradient                   ...        0 min,  0.056 sec
 * total energy  :   -57.8122260 Eh     change       -0.3655150E-03 Eh
   gradient norm :     0.0087533 Eh/α   predicted    -0.2896427E-03 ( -20.76%)
   displ. norm   :     0.3571524 α      lambda       -0.3567324E-03
   maximum displ.:     0.1778890 α      in ANC's #2, #4, #7, ...

........................................................................
.............................. CYCLE   10 ..............................
........................................................................
   1    -58.3843707 -0.583844E+02  0.132E-02    0.66       0.0  T
   2    -58.3843739 -0.318502E-05  0.586E-03    0.66       3.0  T
   3    -58.3843741 -0.253251E-06  0.312E-03    0.66       5.6  T
   4    -58.3843742 -0.459200E-07  0.105E-03    0.66      16.6  T
   5    -58.3843742 -0.655968E-08  0.171E-04    0.66     102.0  T
   6    -58.3843742 -0.280835E-09  0.685E-05    0.66     254.1  T
     SCC iter.                  ...        0 min,  0.012 sec
     gradient                   ...        0 min,  0.056 sec
 * total energy  :   -57.8124940 Eh     change       -0.2679796E-03 Eh
   gradient norm :     0.0086282 Eh/α   predicted    -0.2011199E-03 ( -24.95%)
   displ. norm   :     0.3285098 α      lambda       -0.3248222E-03
   maximum displ.:     0.1856308 α      in ANC's #2, #4, #6, ...

........................................................................
.............................. CYCLE   11 ..............................
........................................................................
   1    -58.3857211 -0.583857E+02  0.108E-02    0.66       0.0  T
   2    -58.3857236 -0.254303E-05  0.491E-03    0.66       3.5  T
   3    -58.3857238 -0.155913E-06  0.258E-03    0.66       6.7  T
   4    -58.3857238 -0.202626E-07  0.814E-04    0.66      21.4  T
   5    -58.3857238 -0.617064E-08  0.166E-04    0.66     105.0  T
   6    -58.3857238 -0.311694E-09  0.588E-05    0.66     296.0  T
     SCC iter.                  ...        0 min,  0.012 sec
     gradient                   ...        0 min,  0.056 sec
 * total energy  :   -57.8127477 Eh     change       -0.2537031E-03 Eh
   gradient norm :     0.0076877 Eh/α   predicted    -0.1799470E-03 ( -29.07%)
   displ. norm   :     0.3728324 α      lambda       -0.3537122E-03
   maximum displ.:     0.2317380 α      in ANC's #2, #4, #6, ...

........................................................................
.............................. CYCLE   12 ..............................
........................................................................
   1    -58.3852940 -0.583853E+02  0.101E-02    0.67       0.0  T
   2    -58.3852968 -0.289716E-05  0.477E-03    0.67       3.7  T
   3    -58.3852970 -0.160811E-06  0.251E-03    0.67       6.9  T
   4    -58.3852970 -0.882076E-08  0.817E-04    0.67      21.3  T
   5    -58.3852970 -0.550352E-08  0.177E-04    0.67      98.5  T
   6    -58.3852970 -0.417650E-09  0.567E-05    0.67     306.9  T
     SCC iter.                  ...        0 min,  0.013 sec
     gradient                   ...        0 min,  0.057 sec
 * total energy  :   -57.8130287 Eh     change       -0.2810170E-03 Eh
   gradient norm :     0.0068759 Eh/α   predicted    -0.2014753E-03 ( -28.30%)
   displ. norm   :     0.3844379 α      lambda       -0.3913253E-03
   maximum displ.:     0.2493674 α      in ANC's #2, #6, #4, ...

........................................................................
.............................. CYCLE   13 ..............................
........................................................................
   1    -58.3866275 -0.583866E+02  0.113E-02    0.67       0.0  T
   2    -58.3866302 -0.263872E-05  0.627E-03    0.67       2.8  T
   3    -58.3866303 -0.143061E-06  0.336E-03    0.67       5.2  T
   4    -58.3866303 -0.115122E-07  0.737E-04    0.67      23.6  T
   5    -58.3866303 -0.710452E-08  0.150E-04    0.67     116.2  T
   6    -58.3866303 -0.358163E-09  0.431E-05    0.67     403.5  T
     SCC iter.                  ...        0 min,  0.012 sec
     gradient                   ...        0 min,  0.057 sec
 * total energy  :   -57.8133132 Eh     change       -0.2844899E-03 Eh
   gradient norm :     0.0068964 Eh/α   predicted    -0.2245893E-03 ( -21.06%)
   displ. norm   :     0.5264184 α      lambda       -0.4294565E-03
   maximum displ.:     0.3546617 α      in ANC's #2, #4, #7, ...

........................................................................
.............................. CYCLE   14 ..............................
........................................................................
   1    -58.3792868 -0.583793E+02  0.177E-02    0.68       0.0  T
   2    -58.3792950 -0.818978E-05  0.925E-03    0.67       1.9  T
   3    -58.3792956 -0.606118E-06  0.515E-03    0.67       3.4  T
   4    -58.3792956 -0.428924E-07  0.151E-03    0.67      11.6  T
   5    -58.3792956 -0.909476E-08  0.242E-04    0.67      71.9  T
   6    -58.3792956 -0.124903E-08  0.893E-05    0.67     195.0  T
   7    -58.3792956 -0.563602E-10  0.416E-05    0.67     418.2  T
     SCC iter.                  ...        0 min,  0.014 sec
     gradient                   ...        0 min,  0.046 sec
 * total energy  :   -57.8135059 Eh     change       -0.1927026E-03 Eh
   gradient norm :     0.0182620 Eh/α   predicted    -0.2742337E-03 (  42.31%)
   displ. norm   :     0.2645400 α      lambda       -0.5595336E-03
   maximum displ.:     0.1707239 α      in ANC's #3, #2, #18, ...

........................................................................
.............................. CYCLE   15 ..............................
........................................................................
   1    -58.3837831 -0.583838E+02  0.154E-02    0.68       0.0  T
   2    -58.3837929 -0.980002E-05  0.746E-03    0.68       2.3  T
   3    -58.3837932 -0.266364E-06  0.453E-03    0.68       3.8  T
   4    -58.3837932 -0.114762E-07  0.159E-03    0.68      10.9  T
   5    -58.3837932 -0.157524E-07  0.204E-04    0.68      85.5  T
   6    -58.3837932 -0.807113E-09  0.659E-05    0.68     264.0  T
   7    -58.3837932 -0.418225E-10  0.201E-05    0.68     865.1  T
     SCC iter.                  ...        0 min,  0.013 sec
     gradient                   ...        0 min,  0.047 sec
 * total energy  :   -57.8138081 Eh     change       -0.3022345E-03 Eh
   gradient norm :     0.0121920 Eh/α   predicted    -0.2993586E-03 (  -0.95%)
   displ. norm   :     0.2399082 α      lambda       -0.4352443E-03
   maximum displ.:     0.1701773 α      in ANC's #3, #2, #17, ...

........................................................................
.............................. CYCLE   16 ..............................
........................................................................
   1    -58.3874318 -0.583874E+02  0.140E-02    0.68       0.0  T
   2    -58.3874377 -0.592161E-05  0.720E-03    0.67       2.4  T
   3    -58.3874381 -0.393549E-06  0.415E-03    0.67       4.2  T
   4    -58.3874382 -0.334570E-07  0.117E-03    0.67      14.8  T
   5    -58.3874382 -0.637546E-08  0.232E-04    0.67      75.2  T
   6    -58.3874382 -0.786514E-09  0.781E-05    0.67     222.8  T
   7    -58.3874382 -0.726672E-10  0.238E-05    0.67     731.6  T
     SCC iter.                  ...        0 min,  0.010 sec
     gradient                   ...        0 min,  0.050 sec
 * total energy  :   -57.8140229 Eh     change       -0.2148069E-03 Eh
   gradient norm :     0.0118195 Eh/α   predicted    -0.2301496E-03 (   7.14%)
   displ. norm   :     0.3053117 α      lambda       -0.3653157E-03
   maximum displ.:     0.2179614 α      in ANC's #2, #3, #7, ...

........................................................................
.............................. CYCLE   17 ..............................
........................................................................
   1    -58.3858208 -0.583858E+02  0.159E-02    0.68       0.0  T
   2    -58.3858252 -0.434641E-05  0.776E-03    0.68       2.2  T
   3    -58.3858256 -0.438647E-06  0.419E-03    0.68       4.2  T
   4    -58.3858257 -0.360409E-07  0.116E-03    0.68      15.0  T
   5    -58.3858257 -0.104671E-07  0.190E-04    0.68      91.7  T
   6    -58.3858257 -0.692012E-09  0.586E-05    0.68     297.0  T
     SCC iter.                  ...        0 min,  0.012 sec
     gradient                   ...        0 min,  0.054 sec
 * total energy  :   -57.8142618 Eh     change       -0.2389161E-03 Eh
   gradient norm :     0.0072183 Eh/α   predicted    -0.1996860E-03 ( -16.42%)
   displ. norm   :     0.2833996 α      lambda       -0.2677882E-03
   maximum displ.:     0.1779136 α      in ANC's #2, #3, #18, ...

........................................................................
.............................. CYCLE   18 ..............................
........................................................................
   1    -58.3847609 -0.583848E+02  0.127E-02    0.69       0.0  T
   2    -58.3847633 -0.236090E-05  0.670E-03    0.69       2.6  T
   3    -58.3847635 -0.179243E-06  0.347E-03    0.69       5.0  T
   4    -58.3847635 -0.484912E-07  0.756E-04    0.69      23.0  T
   5    -58.3847635 -0.471753E-08  0.154E-04    0.69     113.4  T
   6    -58.3847635 -0.288928E-09  0.432E-05    0.69     403.1  T
     SCC iter.                  ...        0 min,  0.012 sec
     gradient                   ...        0 min,  0.056 sec
 * total energy  :   -57.8144155 Eh     change       -0.1536601E-03 Eh
   gradient norm :     0.0092152 Eh/α   predicted    -0.1446496E-03 (  -5.86%)
   displ. norm   :     0.4303597 α      lambda       -0.2544531E-03
   maximum displ.:     0.2854609 α      in ANC's #2, #3, #4, ...

........................................................................
.............................. CYCLE   19 ..............................
........................................................................
   1    -58.3807182 -0.583807E+02  0.144E-02    0.70       0.0  T
   2    -58.3807216 -0.337426E-05  0.702E-03    0.70       2.5  T
   3    -58.3807220 -0.425294E-06  0.383E-03    0.70       4.5  T
   4    -58.3807221 -0.252885E-07  0.865E-04    0.70      20.1  T
   5    -58.3807221 -0.494359E-08  0.144E-04    0.70     120.5  T
   6    -58.3807221 -0.492612E-09  0.568E-05    0.70     306.2  T
     SCC iter.                  ...        0 min,  0.013 sec
     gradient                   ...        0 min,  0.056 sec
 * total energy  :   -57.8145418 Eh     change       -0.1263198E-03 Eh
   gradient norm :     0.0150978 Eh/α   predicted    -0.1507910E-03 (  19.37%)
   displ. norm   :     0.2119190 α      lambda       -0.3926052E-03
   maximum displ.:     0.1434185 α      in ANC's #3, #2, #6, ...

........................................................................
.............................. CYCLE   20 ..............................
........................................................................
   1    -58.3889767 -0.583890E+02  0.246E-02    0.73       0.0  T
   2    -58.3889954 -0.186932E-04  0.116E-02    0.73       1.5  T
   3    -58.3889961 -0.725545E-06  0.653E-03    0.73       2.7  T
   4    -58.3889962 -0.369775E-07  0.189E-03    0.73       9.2  T
   5    -58.3889962 -0.207103E-07  0.276E-04    0.73      63.1  T
   6    -58.3889962 -0.150209E-08  0.614E-05    0.73     283.5  T
   7    -58.3889962 -0.702727E-10  0.265E-05    0.73     657.4  T
     SCC iter.                  ...        0 min,  0.015 sec
     gradient                   ...        0 min,  0.056 sec
 * total energy  :   -57.8145568 Eh     change       -0.1503510E-04 Eh
   gradient norm :     0.0152206 Eh/α   predicted    -0.2051198E-03 (1264.27%)
   displ. norm   :     0.1881177 α      lambda       -0.4143550E-03
   maximum displ.:     0.1146568 α      in ANC's #2, #4, #3, ...
 * RMSD in coord.:     0.8466256 α      energy gain  -0.2405365E-01 Eh

generating ANC from model Hessian ...
Using Lindh-Hessian (1995)
 Shifting diagonal of input Hessian by   9.402663248192399E-003
 Lowest  eigenvalues of input Hessian
    0.000000    0.000000    0.000000    0.000000    0.000000    0.000000
    0.010000    0.010688    0.011085    0.011486    0.013236    0.014951
    0.015278    0.018168    0.019090    0.019346    0.019691    0.020534
 Highest eigenvalues
    1.797928    1.834471    2.030178    2.142143    2.401016    2.428438
 

........................................................................
.............................. CYCLE   21 ..............................
........................................................................
   1    -58.3855217 -0.583855E+02  0.147E-02    0.72       0.0  T
   2    -58.3855286 -0.694551E-05  0.727E-03    0.72       2.4  T
   3    -58.3855290 -0.339360E-06  0.423E-03    0.72       4.1  T
   4    -58.3855290 -0.162031E-07  0.127E-03    0.72      13.8  T
   5    -58.3855290 -0.540373E-08  0.148E-04    0.72     117.3  T
   6    -58.3855290 -0.433758E-09  0.442E-05    0.72     393.5  T
     SCC iter.                  ...        0 min,  0.013 sec
     gradient                   ...        0 min,  0.056 sec
 * total energy  :   -57.8147985 Eh     change       -0.2416441E-03 Eh
   gradient norm :     0.0076241 Eh/α   predicted     0.0000000E+00 (-100.00%)
   displ. norm   :     0.0609746 α      lambda       -0.1269286E-03
   maximum displ.:     0.0316149 α      in ANC's #4, #1, #2, ...

........................................................................
.............................. CYCLE   22 ..............................
........................................................................
   1    -58.3871763 -0.583872E+02  0.608E-03    0.72       0.0  T
   2    -58.3871772 -0.880719E-06  0.288E-03    0.72       6.1  T
   3    -58.3871773 -0.649963E-07  0.162E-03    0.72      10.7  T
   4    -58.3871773 -0.484508E-08  0.384E-04    0.72      45.3  T
   5    -58.3871773 -0.607777E-09  0.510E-05    0.72     341.4  T
   6    -58.3871773 -0.267733E-10  0.207E-05    0.72     841.0  T
     SCC iter.                  ...        0 min,  0.013 sec
     gradient                   ...        0 min,  0.056 sec
 * total energy  :   -57.8149007 Eh     change       -0.1022256E-03 Eh
   gradient norm :     0.0035049 Eh/α   predicted    -0.6943173E-04 ( -32.08%)
   displ. norm   :     0.1298655 α      lambda       -0.1313717E-03
   maximum displ.:     0.0732754 α      in ANC's #4, #1, #2, ...

........................................................................
.............................. CYCLE   23 ..............................
........................................................................
   1    -58.3883018 -0.583883E+02  0.733E-03    0.71       0.0  T
   2    -58.3883031 -0.133818E-05  0.300E-03    0.71       5.8  T
   3    -58.3883032 -0.862232E-07  0.163E-03    0.71      10.7  T
   4    -58.3883032 -0.597686E-08  0.493E-04    0.71      35.3  T
   5    -58.3883032 -0.124892E-08  0.754E-05    0.71     230.8  T
   6    -58.3883032 -0.639488E-10  0.283E-05    0.71     614.4  T
     SCC iter.                  ...        0 min,  0.013 sec
     gradient                   ...        0 min,  0.056 sec
 * total energy  :   -57.8149901 Eh     change       -0.8940360E-04 Eh
   gradient norm :     0.0028962 Eh/α   predicted    -0.6679676E-04 ( -25.29%)
   displ. norm   :     0.1503792 α      lambda       -0.8605486E-04
   maximum displ.:     0.0824800 α      in ANC's #4, #1, #2, ...

........................................................................
.............................. CYCLE   24 ..............................
........................................................................
   1    -58.3881882 -0.583882E+02  0.518E-03    0.70       0.0  T
   2    -58.3881889 -0.678068E-06  0.186E-03    0.70       9.4  T
   3    -58.3881889 -0.412449E-07  0.980E-04    0.70      17.8  T
   4    -58.3881889 -0.249063E-08  0.358E-04    0.70      48.6  T
   5    -58.3881889 -0.109481E-08  0.753E-05    0.70     231.2  T
   6    -58.3881889 -0.481464E-10  0.225E-05    0.70     773.1  T
     SCC iter.                  ...        0 min,  0.014 sec
     gradient                   ...        0 min,  0.056 sec
 * total energy  :   -57.8150587 Eh     change       -0.6856011E-04 Eh
   gradient norm :     0.0038748 Eh/α   predicted    -0.4400150E-04 ( -35.82%)
   displ. norm   :     0.2244926 α      lambda       -0.1140534E-03
   maximum displ.:     0.1187397 α      in ANC's #4, #1, #2, ...

........................................................................
.............................. CYCLE   25 ..............................
........................................................................
   1    -58.3875073 -0.583875E+02  0.559E-03    0.70       0.0  T
   2    -58.3875079 -0.600064E-06  0.212E-03    0.70       8.2  T
   3    -58.3875080 -0.537571E-07  0.113E-03    0.70      15.5  T
   4    -58.3875080 -0.317436E-08  0.393E-04    0.70      44.2  T
   5    -58.3875080 -0.136079E-08  0.744E-05    0.70     234.1  T
   6    -58.3875080 -0.578027E-10  0.221E-05    0.70     787.4  T
     SCC iter.                  ...        0 min,  0.015 sec
     gradient                   ...        0 min,  0.056 sec
 * total energy  :   -57.8151490 Eh     change       -0.9035064E-04 Eh
   gradient norm :     0.0047279 Eh/α   predicted    -0.5990094E-04 ( -33.70%)
   displ. norm   :     0.2553520 α      lambda       -0.1138616E-03
   maximum displ.:     0.1334749 α      in ANC's #2, #4, #1, ...

........................................................................
.............................. CYCLE   26 ..............................
........................................................................
   1    -58.3866968 -0.583867E+02  0.639E-03    0.70       0.0  T
   2    -58.3866977 -0.872457E-06  0.242E-03    0.70       7.2  T
   3    -58.3866978 -0.853632E-07  0.116E-03    0.70      15.0  T
   4    -58.3866978 -0.333685E-08  0.433E-04    0.70      40.2  T
   5    -58.3866978 -0.130666E-08  0.727E-05    0.70     239.6  T
   6    -58.3866978 -0.801066E-10  0.211E-05    0.70     824.9  T
     SCC iter.                  ...        0 min,  0.015 sec
     gradient                   ...        0 min,  0.057 sec
 * total energy  :   -57.8152336 Eh     change       -0.8461513E-04 Eh
   gradient norm :     0.0052300 Eh/α   predicted    -0.6064961E-04 ( -28.32%)
   displ. norm   :     0.2087380 α      lambda       -0.8545285E-04
   maximum displ.:     0.1178614 α      in ANC's #2, #1, #4, ...

........................................................................
.............................. CYCLE   27 ..............................
........................................................................
   1    -58.3868495 -0.583868E+02  0.623E-03    0.70       0.0  T
   2    -58.3868506 -0.111563E-05  0.212E-03    0.70       8.2  T
   3    -58.3868507 -0.745090E-07  0.936E-04    0.70      18.6  T
   4    -58.3868507 -0.348332E-08  0.430E-04    0.70      40.5  T
   5    -58.3868507 -0.105011E-08  0.768E-05    0.70     226.7  T
   6    -58.3868507 -0.662297E-10  0.192E-05    0.70     905.0  T
     SCC iter.                  ...        0 min,  0.015 sec
     gradient                   ...        0 min,  0.057 sec
 * total energy  :   -57.8152990 Eh     change       -0.6539274E-04 Eh
   gradient norm :     0.0043613 Eh/α   predicted    -0.4458908E-04 ( -31.81%)
   displ. norm   :     0.2130049 α      lambda       -0.8717904E-04
   maximum displ.:     0.1312678 α      in ANC's #2, #1, #4, ...

........................................................................
.............................. CYCLE   28 ..............................
........................................................................
   1    -58.3875741 -0.583876E+02  0.674E-03    0.72       0.0  T
   2    -58.3875752 -0.108219E-05  0.270E-03    0.71       6.4  T
   3    -58.3875753 -0.986570E-07  0.133E-03    0.71      13.1  T
   4    -58.3875753 -0.550430E-08  0.508E-04    0.71      34.2  T
   5    -58.3875753 -0.134346E-08  0.830E-05    0.71     209.7  T
   6    -58.3875753 -0.104620E-09  0.233E-05    0.71     747.5  T
     SCC iter.                  ...        0 min,  0.015 sec
     gradient                   ...        0 min,  0.057 sec
 * total energy  :   -57.8153645 Eh     change       -0.6547177E-04 Eh
   gradient norm :     0.0037568 Eh/α   predicted    -0.4556740E-04 ( -30.40%)
   displ. norm   :     0.2039503 α      lambda       -0.7536974E-04
   maximum displ.:     0.1350744 α      in ANC's #2, #1, #4, ...

........................................................................
.............................. CYCLE   29 ..............................
........................................................................
   1    -58.3882243 -0.583882E+02  0.656E-03    0.73       0.0  T
   2    -58.3882254 -0.106876E-05  0.296E-03    0.72       5.9  T
   3    -58.3882255 -0.147444E-06  0.144E-03    0.72      12.1  T
   4    -58.3882255 -0.391911E-08  0.467E-04    0.72      37.3  T
   5    -58.3882255 -0.937384E-09  0.851E-05    0.72     204.5  T
   6    -58.3882255 -0.121283E-09  0.262E-05    0.72     665.0  T
     SCC iter.                  ...        0 min,  0.015 sec
     gradient                   ...        0 min,  0.057 sec
 * total energy  :   -57.8154234 Eh     change       -0.5888771E-04 Eh
   gradient norm :     0.0037317 Eh/α   predicted    -0.3925308E-04 ( -33.34%)
   displ. norm   :     0.2590737 α      lambda       -0.8556487E-04
   maximum displ.:     0.1757855 α      in ANC's #2, #1, #4, ...

........................................................................
.............................. CYCLE   30 ..............................
........................................................................
   1    -58.3881461 -0.583881E+02  0.795E-03    0.74       0.0  T
   2    -58.3881479 -0.182837E-05  0.360E-03    0.73       4.8  T
   3    -58.3881482 -0.306953E-06  0.150E-03    0.73      11.6  T
   4    -58.3881482 -0.301129E-08  0.492E-04    0.73      35.3  T
   5    -58.3881482 -0.812918E-09  0.107E-04    0.73     163.4  T
   6    -58.3881482 -0.155062E-09  0.298E-05    0.73     584.9  T
     SCC iter.                  ...        0 min,  0.014 sec
     gradient                   ...        0 min,  0.057 sec
 * total energy  :   -57.8154911 Eh     change       -0.6769472E-04 Eh
   gradient norm :     0.0043181 Eh/α   predicted    -0.4565800E-04 ( -32.55%)
   displ. norm   :     0.2833483 α      lambda       -0.1010943E-03
   maximum displ.:     0.1996727 α      in ANC's #2, #1, #13, ...

........................................................................
.............................. CYCLE   31 ..............................
........................................................................
   1    -58.3889385 -0.583889E+02  0.981E-03    0.75       0.0  T
   2    -58.3889417 -0.323966E-05  0.437E-03    0.75       4.0  T
   3    -58.3889422 -0.497723E-06  0.183E-03    0.75       9.5  T
   4    -58.3889422 -0.476090E-08  0.643E-04    0.75      27.1  T
   5    -58.3889422 -0.126528E-08  0.150E-04    0.75     116.3  T
   6    -58.3889422 -0.287521E-09  0.368E-05    0.75     473.0  T
     SCC iter.                  ...        0 min,  0.013 sec
     gradient                   ...        0 min,  0.056 sec
 * total energy  :   -57.8155622 Eh     change       -0.7107806E-04 Eh
   gradient norm :     0.0039784 Eh/α   predicted    -0.5460750E-04 ( -23.17%)
   displ. norm   :     0.4377204 α      lambda       -0.1131433E-03
   maximum displ.:     0.3023001 α      in ANC's #2, #1, #13, ...

........................................................................
.............................. CYCLE   32 ..............................
........................................................................
   1    -58.3845503 -0.583846E+02  0.151E-02    0.76       0.0  T
   2    -58.3845549 -0.464707E-05  0.724E-03    0.75       2.4  T
   3    -58.3845557 -0.819330E-06  0.372E-03    0.75       4.7  T
   4    -58.3845557 -0.108776E-07  0.525E-04    0.75      33.2  T
   5    -58.3845558 -0.435394E-08  0.122E-04    0.75     142.9  T
   6    -58.3845558 -0.313250E-09  0.420E-05    0.75     414.9  T
     SCC iter.                  ...        0 min,  0.013 sec
     gradient                   ...        0 min,  0.056 sec
 * total energy  :   -57.8155947 Eh     change       -0.3258202E-04 Eh
   gradient norm :     0.0128810 Eh/α   predicted    -0.6741515E-04 ( 106.91%)
   displ. norm   :     0.1116751 α      lambda       -0.1807669E-03
   maximum displ.:     0.0574888 α      in ANC's #2, #3, #4, ...

........................................................................
.............................. CYCLE   33 ..............................
........................................................................
   1    -58.3879434 -0.583879E+02  0.102E-02    0.76       0.0  T
   2    -58.3879456 -0.225597E-05  0.516E-03    0.76       3.4  T
   3    -58.3879459 -0.277383E-06  0.284E-03    0.76       6.1  T
   4    -58.3879459 -0.100238E-07  0.398E-04    0.76      43.7  T
   5    -58.3879459 -0.121281E-08  0.106E-04    0.76     164.4  T
   6    -58.3879459 -0.243567E-09  0.298E-05    0.76     584.6  T
     SCC iter.                  ...        0 min,  0.013 sec
     gradient                   ...        0 min,  0.056 sec
 * total energy  :   -57.8157148 Eh     change       -0.1200724E-03 Eh
   gradient norm :     0.0054420 Eh/α   predicted    -0.9151227E-04 ( -23.79%)
   displ. norm   :     0.4012439 α      lambda       -0.1515917E-03
   maximum displ.:     0.2794626 α      in ANC's #2, #1, #3, ...

........................................................................
.............................. CYCLE   34 ..............................
........................................................................
   1    -58.3868584 -0.583869E+02  0.938E-03    0.76       0.0  T
   2    -58.3868609 -0.250442E-05  0.412E-03    0.76       4.2  T
   3    -58.3868613 -0.407868E-06  0.177E-03    0.76       9.8  T
   4    -58.3868613 -0.534821E-08  0.579E-04    0.76      30.1  T
   5    -58.3868613 -0.101582E-08  0.111E-04    0.76     156.5  T
   6    -58.3868613 -0.171191E-09  0.318E-05    0.76     546.7  T
     SCC iter.                  ...        0 min,  0.013 sec
     gradient                   ...        0 min,  0.056 sec
 * total energy  :   -57.8158317 Eh     change       -0.1168529E-03 Eh
   gradient norm :     0.0074418 Eh/α   predicted    -0.8800048E-04 ( -24.69%)
   displ. norm   :     0.4245495 α      lambda       -0.2312056E-03
   maximum displ.:     0.2766820 α      in ANC's #2, #1, #3, ...

........................................................................
.............................. CYCLE   35 ..............................
........................................................................
   1    -58.3872068 -0.583872E+02  0.983E-03    0.76       0.0  T
   2    -58.3872090 -0.218176E-05  0.401E-03    0.76       4.3  T
   3    -58.3872091 -0.176826E-06  0.207E-03    0.76       8.4  T
   4    -58.3872092 -0.155959E-07  0.847E-04    0.76      20.5  T
   5    -58.3872092 -0.316921E-08  0.128E-04    0.76     135.9  T
   6    -58.3872092 -0.346319E-09  0.462E-05    0.76     377.2  T
     SCC iter.                  ...        0 min,  0.013 sec
     gradient                   ...        0 min,  0.057 sec
 * total energy  :   -57.8160089 Eh     change       -0.1772096E-03 Eh
   gradient norm :     0.0072960 Eh/α   predicted    -0.1364419E-03 ( -23.01%)
   displ. norm   :     0.3587579 α      lambda       -0.2104361E-03
   maximum displ.:     0.2249340 α      in ANC's #2, #1, #3, ...

........................................................................
.............................. CYCLE   36 ..............................
........................................................................
   1    -58.3870113 -0.583870E+02  0.951E-03    0.76       0.0  T
   2    -58.3870143 -0.295088E-05  0.365E-03    0.75       4.8  T
   3    -58.3870144 -0.118759E-06  0.200E-03    0.75       8.7  T
   4    -58.3870144 -0.861203E-08  0.872E-04    0.75      20.0  T
   5    -58.3870144 -0.265982E-08  0.170E-04    0.76     102.1  T
   6    -58.3870144 -0.740705E-09  0.524E-05    0.76     332.5  T
     SCC iter.                  ...        0 min,  0.013 sec
     gradient                   ...        0 min,  0.059 sec
 * total energy  :   -57.8161408 Eh     change       -0.1319142E-03 Eh
   gradient norm :     0.0073194 Eh/α   predicted    -0.1187616E-03 (  -9.97%)
   displ. norm   :     0.2365457 α      lambda       -0.1374874E-03
   maximum displ.:     0.1436940 α      in ANC's #2, #1, #3, ...

........................................................................
.............................. CYCLE   37 ..............................
........................................................................
   1    -58.3877507 -0.583878E+02  0.104E-02    0.76       0.0  T
   2    -58.3877543 -0.368243E-05  0.447E-03    0.76       3.9  T
   3    -58.3877545 -0.136139E-06  0.243E-03    0.76       7.2  T
   4    -58.3877545 -0.549193E-09  0.759E-04    0.76      22.9  T
   5    -58.3877545 -0.433820E-08  0.121E-04    0.76     144.2  T
   6    -58.3877545 -0.298456E-09  0.324E-05    0.76     536.5  T
     SCC iter.                  ...        0 min,  0.014 sec
     gradient                   ...        0 min,  0.056 sec
 * total energy  :   -57.8162180 Eh     change       -0.7718484E-04 Eh
   gradient norm :     0.0067540 Eh/α   predicted    -0.7259120E-04 (  -5.95%)
   displ. norm   :     0.0879220 α      lambda       -0.1227545E-03
   maximum displ.:     0.0492332 α      in ANC's #1, #4, #10, ...

........................................................................
.............................. CYCLE   38 ..............................
........................................................................
   1    -58.3924545 -0.583925E+02  0.112E-02    0.76       0.0  T
   2    -58.3924561 -0.159643E-05  0.565E-03    0.76       3.1  T
   3    -58.3924562 -0.117712E-06  0.313E-03    0.76       5.6  T
   4    -58.3924562 -0.326546E-07  0.583E-04    0.76      29.8  T
   5    -58.3924562 -0.225996E-08  0.131E-04    0.76     132.8  T
   6    -58.3924562 -0.330871E-09  0.355E-05    0.76     490.8  T
     SCC iter.                  ...        0 min,  0.013 sec
     gradient                   ...        0 min,  0.056 sec
 * total energy  :   -57.8162503 Eh     change       -0.3236180E-04 Eh
   gradient norm :     0.0082439 Eh/α   predicted    -0.6185342E-04 (  91.13%)
   displ. norm   :     0.5201232 α      lambda       -0.3136789E-03
   maximum displ.:     0.3135928 α      in ANC's #2, #1, #13, ...

........................................................................
.............................. CYCLE   39 ..............................
........................................................................
   1    -58.3853281 -0.583853E+02  0.246E-02    0.77       0.0  T
   2    -58.3853394 -0.112809E-04  0.131E-02    0.76       1.3  T
   3    -58.3853407 -0.123297E-05  0.699E-03    0.76       2.5  T
   4    -58.3853407 -0.528386E-07  0.121E-03    0.76      14.4  T
   5    -58.3853407 -0.104222E-07  0.293E-04    0.76      59.5  T
   6    -58.3853407 -0.216886E-08  0.901E-05    0.76     193.1  T
   7    -58.3853407 -0.678213E-10  0.234E-05    0.76     744.2  T
     SCC iter.                  ...        0 min,  0.014 sec
     gradient                   ...        0 min,  0.056 sec
 * total energy  :   -57.8162356 Eh     change        0.1471782E-04 Eh
   gradient norm :     0.0199688 Eh/α   predicted    -0.1992736E-03 (*******%)
   displ. norm   :     0.2148216 α      lambda       -0.4092828E-03
   maximum displ.:     0.1274811 α      in ANC's #2, #1, #4, ...

........................................................................
.............................. CYCLE   40 ..............................
........................................................................
   1    -58.3878122 -0.583878E+02  0.153E-02    0.76       0.0  T
   2    -58.3878147 -0.249480E-05  0.809E-03    0.76       2.2  T
   3    -58.3878148 -0.908709E-07  0.390E-03    0.76       4.5  T
   4    -58.3878149 -0.435719E-07  0.819E-04    0.76      21.2  T
   5    -58.3878149 -0.440964E-08  0.171E-04    0.76     101.5  T
   6    -58.3878149 -0.533575E-09  0.582E-05    0.76     299.1  T
     SCC iter.                  ...        0 min,  0.012 sec
     gradient                   ...        0 min,  0.050 sec
 * total energy  :   -57.8164059 Eh     change       -0.1702574E-03 Eh
   gradient norm :     0.0064767 Eh/α   predicted    -0.2140849E-03 (  25.74%)
   displ. norm   :     0.0692440 α      lambda       -0.1318594E-03
   maximum displ.:     0.0415360 α      in ANC's #4, #16, #2, ...

........................................................................
.............................. CYCLE   41 ..............................
........................................................................
   1    -58.3915379 -0.583915E+02  0.112E-02    0.77       0.0  T
   2    -58.3915410 -0.307729E-05  0.520E-03    0.77       3.4  T
   3    -58.3915412 -0.198759E-06  0.282E-03    0.77       6.2  T
   4    -58.3915412 -0.161255E-07  0.748E-04    0.77      23.3  T
   5    -58.3915412 -0.222484E-08  0.117E-04    0.77     149.0  T
   6    -58.3915412 -0.147907E-09  0.365E-05    0.77     477.4  T
     SCC iter.                  ...        0 min,  0.013 sec
     gradient                   ...        0 min,  0.053 sec
 * total energy  :   -57.8164502 Eh     change       -0.4430028E-04 Eh
   gradient norm :     0.0081541 Eh/α   predicted    -0.6625044E-04 (  49.55%)
   displ. norm   :     0.2148502 α      lambda       -0.1266039E-03
   maximum displ.:     0.1490392 α      in ANC's #1, #2, #5, ...

........................................................................
.............................. CYCLE   42 ..............................
........................................................................
   1    -58.3898673 -0.583899E+02  0.797E-03    0.77       0.0  T
   2    -58.3898688 -0.152269E-05  0.358E-03    0.77       4.9  T
   3    -58.3898690 -0.205724E-06  0.172E-03    0.77      10.1  T
   4    -58.3898690 -0.289974E-08  0.439E-04    0.77      39.7  T
   5    -58.3898690 -0.126470E-08  0.966E-05    0.77     180.3  T
   6    -58.3898690 -0.163858E-09  0.275E-05    0.77     632.5  T
     SCC iter.                  ...        0 min,  0.012 sec
     gradient                   ...        0 min,  0.052 sec
 * total energy  :   -57.8165600 Eh     change       -0.1097955E-03 Eh
   gradient norm :     0.0068592 Eh/α   predicted    -0.6622693E-04 ( -39.68%)
   displ. norm   :     0.5300784 α      lambda       -0.2887430E-03
   maximum displ.:     0.3829637 α      in ANC's #1, #2, #5, ...
 * RMSD in coord.:     0.7975530 α      energy gain  -0.2003137E-02 Eh

generating ANC from model Hessian ...
Using Lindh-Hessian (1995)
 Shifting diagonal of input Hessian by   9.343063322020260E-003
 Lowest  eigenvalues of input Hessian
    0.000000    0.000000    0.000000    0.000000    0.000000    0.000000
    0.010000    0.010402    0.010850    0.011906    0.013215    0.014930
    0.015257    0.018523    0.019141    0.019453    0.019657    0.020291
 Highest eigenvalues
    1.791790    1.835377    2.030589    2.143633    2.417407    2.420467
 

........................................................................
.............................. CYCLE   43 ..............................
........................................................................
   1    -58.3843511 -0.583844E+02  0.212E-02    0.78       0.0  T
   2    -58.3843596 -0.849460E-05  0.101E-02    0.77       1.7  T
   3    -58.3843610 -0.141101E-05  0.517E-03    0.77       3.4  T
   4    -58.3843611 -0.305176E-07  0.926E-04    0.77      18.8  T
   5    -58.3843611 -0.102061E-07  0.214E-04    0.77      81.4  T
   6    -58.3843611 -0.841851E-09  0.578E-05    0.77     301.3  T
   7    -58.3843611 -0.286136E-10  0.239E-05    0.77     726.9  T
     SCC iter.                  ...        0 min,  0.014 sec
     gradient                   ...        0 min,  0.053 sec
 * total energy  :   -57.8166686 Eh     change       -0.1086528E-03 Eh
   gradient norm :     0.0164069 Eh/α   predicted     0.0000000E+00 (-100.00%)
   displ. norm   :     0.0581782 α      lambda       -0.3146739E-03
   maximum displ.:     0.0209205 α      in ANC's #4, #15, #13, ...

........................................................................
.............................. CYCLE   44 ..............................
........................................................................
   1    -58.3889839 -0.583890E+02  0.957E-03    0.78       0.0  T
   2    -58.3889848 -0.921158E-06  0.513E-03    0.78       3.4  T
   3    -58.3889849 -0.679889E-07  0.257E-03    0.78       6.8  T
   4    -58.3889849 -0.335772E-07  0.428E-04    0.78      40.6  T
   5    -58.3889849 -0.152676E-08  0.904E-05    0.78     192.5  T
   6    -58.3889849 -0.191598E-09  0.236E-05    0.78     738.9  T
     SCC iter.                  ...        0 min,  0.012 sec
     gradient                   ...        0 min,  0.054 sec
 * total energy  :   -57.8169110 Eh     change       -0.2423367E-03 Eh
   gradient norm :     0.0053991 Eh/α   predicted    -0.1687526E-03 ( -30.36%)
   displ. norm   :     0.0983700 α      lambda       -0.2094615E-03
   maximum displ.:     0.0369053 α      in ANC's #4, #21, #15, ...

........................................................................
.............................. CYCLE   45 ..............................
........................................................................
   1    -58.3916681 -0.583917E+02  0.698E-03    0.78       0.0  T
   2    -58.3916688 -0.740636E-06  0.369E-03    0.78       4.7  T
   3    -58.3916689 -0.949266E-07  0.199E-03    0.78       8.8  T
   4    -58.3916689 -0.133141E-07  0.408E-04    0.78      42.7  T
   5    -58.3916689 -0.137559E-08  0.110E-04    0.78     158.5  T
   6    -58.3916689 -0.263739E-09  0.243E-05    0.78     716.1  T
     SCC iter.                  ...        0 min,  0.012 sec
     gradient                   ...        0 min,  0.054 sec
 * total energy  :   -57.8170711 Eh     change       -0.1601353E-03 Eh
   gradient norm :     0.0037720 Eh/α   predicted    -0.1057451E-03 ( -33.97%)
   displ. norm   :     0.2227944 α      lambda       -0.3164937E-03
   maximum displ.:     0.0829729 α      in ANC's #4, #15, #14, ...

........................................................................
.............................. CYCLE   46 ..............................
........................................................................
   1    -58.3922905 -0.583923E+02  0.108E-02    0.78       0.0  T
   2    -58.3922937 -0.323231E-05  0.582E-03    0.78       3.0  T
   3    -58.3922942 -0.496339E-06  0.280E-03    0.79       6.2  T
   4    -58.3922942 -0.967343E-08  0.872E-04    0.79      20.0  T
   5    -58.3922942 -0.329601E-08  0.161E-04    0.79     107.9  T
   6    -58.3922942 -0.485187E-09  0.432E-05    0.79     403.0  T
     SCC iter.                  ...        0 min,  0.012 sec
     gradient                   ...        0 min,  0.052 sec
 * total energy  :   -57.8173373 Eh     change       -0.2662456E-03 Eh
   gradient norm :     0.0065252 Eh/α   predicted    -0.1661614E-03 ( -37.59%)
   displ. norm   :     0.3647570 α      lambda       -0.3925049E-03
   maximum displ.:     0.1293607 α      in ANC's #4, #15, #14, ...

........................................................................
.............................. CYCLE   47 ..............................
........................................................................
   1    -58.3859118 -0.583859E+02  0.340E-02    0.79       0.0  T
   2    -58.3859248 -0.130683E-04  0.177E-02    0.79       1.0  T
   3    -58.3859258 -0.958741E-06  0.876E-03    0.80       2.0  T
   4    -58.3859263 -0.542175E-06  0.209E-03    0.80       8.3  T
   5    -58.3859264 -0.259350E-07  0.277E-04    0.80      62.9  T
   6    -58.3859264 -0.101138E-08  0.800E-05    0.80     217.5  T
   7    -58.3859264 -0.799716E-10  0.292E-05    0.80     596.2  T
     SCC iter.                  ...        0 min,  0.014 sec
     gradient                   ...        0 min,  0.053 sec
 * total energy  :   -57.8168627 Eh     change        0.4746017E-03 Eh
   gradient norm :     0.0355067 Eh/α   predicted    -0.2223687E-03 (-146.85%)
   displ. norm   :     0.2352762 α      lambda       -0.1684744E-02
   maximum displ.:     0.0823135 α      in ANC's #15, #4, #14, ...

........................................................................
.............................. CYCLE   48 ..............................
........................................................................
   1    -58.3904122 -0.583904E+02  0.304E-02    0.79       0.0  T
   2    -58.3904203 -0.815049E-05  0.162E-02    0.79       1.1  T
   3    -58.3904206 -0.310035E-06  0.748E-03    0.79       2.3  T
   4    -58.3904212 -0.525902E-06  0.170E-03    0.79      10.2  T
   5    -58.3904212 -0.204951E-07  0.242E-04    0.79      71.9  T
   6    -58.3904212 -0.964292E-09  0.733E-05    0.79     237.4  T
   7    -58.3904212 -0.665281E-10  0.252E-05    0.79     690.9  T
     SCC iter.                  ...        0 min,  0.014 sec
     gradient                   ...        0 min,  0.042 sec
 * total energy  :   -57.8174955 Eh     change       -0.6327257E-03 Eh
   gradient norm :     0.0041828 Eh/α   predicted    -0.8890116E-03 (  40.51%)
   displ. norm   :     0.0511718 α      lambda       -0.5995461E-04
   maximum displ.:     0.0175118 α      in ANC's #2, #1, #15, ...

........................................................................
.............................. CYCLE   49 ..............................
........................................................................
   1    -58.3902330 -0.583902E+02  0.253E-03    0.79       0.0  T
   2    -58.3902332 -0.119953E-06  0.124E-03    0.79      14.1  T
   3    -58.3902332 -0.197817E-07  0.575E-04    0.79      30.3  T
   4    -58.3902332 -0.750077E-09  0.154E-04    0.79     113.3  T
   5    -58.3902332 -0.940972E-10  0.346E-05    0.79     502.5  T
     SCC iter.                  ...        0 min,  0.010 sec
     gradient                   ...        0 min,  0.053 sec
 * total energy  :   -57.8175510 Eh     change       -0.5557785E-04 Eh
   gradient norm :     0.0039388 Eh/α   predicted    -0.3005904E-04 ( -45.92%)
   displ. norm   :     0.3247324 α      lambda       -0.3291537E-03
   maximum displ.:     0.1118850 α      in ANC's #2, #1, #15, ...

........................................................................
.............................. CYCLE   50 ..............................
........................................................................
   1    -58.3869802 -0.583870E+02  0.200E-02    0.80       0.0  T
   2    -58.3869860 -0.586853E-05  0.102E-02    0.79       1.7  T
   3    -58.3869866 -0.589419E-06  0.507E-03    0.80       3.4  T
   4    -58.3869867 -0.123880E-06  0.128E-03    0.80      13.6  T
   5    -58.3869867 -0.768097E-08  0.236E-04    0.80      73.7  T
   6    -58.3869867 -0.856375E-09  0.531E-05    0.80     328.1  T
   7    -58.3869867 -0.347455E-10  0.162E-05    0.80    1074.9  T
     SCC iter.                  ...        0 min,  0.014 sec
     gradient                   ...        0 min,  0.053 sec
 * total energy  :   -57.8176121 Eh     change       -0.6101376E-04 Eh
   gradient norm :     0.0168299 Eh/α   predicted    -0.1819526E-03 ( 198.22%)
   displ. norm   :     0.1164072 α      lambda       -0.2807837E-03
   maximum displ.:     0.0373405 α      in ANC's #15, #4, #22, ...

........................................................................
.............................. CYCLE   51 ..............................
........................................................................
   1    -58.3899454 -0.583899E+02  0.143E-02    0.79       0.0  T
   2    -58.3899472 -0.174839E-05  0.751E-03    0.79       2.3  T
   3    -58.3899472 -0.625996E-07  0.344E-03    0.79       5.1  T
   4    -58.3899473 -0.110826E-06  0.817E-04    0.79      21.3  T
   5    -58.3899473 -0.420231E-08  0.106E-04    0.79     163.7  T
   6    -58.3899473 -0.169933E-09  0.330E-05    0.79     527.2  T
     SCC iter.                  ...        0 min,  0.012 sec
     gradient                   ...        0 min,  0.053 sec
 * total energy  :   -57.8177154 Eh     change       -0.1033353E-03 Eh
   gradient norm :     0.0034373 Eh/α   predicted    -0.1422908E-03 (  37.70%)
   displ. norm   :     0.0749164 α      lambda       -0.5139398E-04
   maximum displ.:     0.0329599 α      in ANC's #1, #2, #15, ...

........................................................................
.............................. CYCLE   52 ..............................
........................................................................
   1    -58.3900608 -0.583901E+02  0.205E-03    0.79       0.0  T
   2    -58.3900609 -0.109873E-06  0.985E-04    0.79      17.7  T
   3    -58.3900609 -0.118197E-07  0.437E-04    0.79      39.8  T
   4    -58.3900609 -0.466301E-09  0.154E-04    0.79     112.8  T
   5    -58.3900609 -0.805969E-10  0.390E-05    0.79     446.1  T
     SCC iter.                  ...        0 min,  0.010 sec
     gradient                   ...        0 min,  0.053 sec
 * total energy  :   -57.8177615 Eh     change       -0.4614007E-04 Eh
   gradient norm :     0.0034969 Eh/α   predicted    -0.2584521E-04 ( -43.99%)
   displ. norm   :     0.2803201 α      lambda       -0.1703304E-03
   maximum displ.:     0.1305156 α      in ANC's #1, #2, #15, ...

........................................................................
.............................. CYCLE   53 ..............................
........................................................................
   1    -58.3894079 -0.583894E+02  0.930E-03    0.80       0.0  T
   2    -58.3894094 -0.152031E-05  0.465E-03    0.79       3.7  T
   3    -58.3894095 -0.120020E-06  0.224E-03    0.80       7.8  T
   4    -58.3894095 -0.194958E-07  0.687E-04    0.80      25.3  T
   5    -58.3894095 -0.178684E-08  0.142E-04    0.79     122.3  T
   6    -58.3894095 -0.319972E-09  0.451E-05    0.80     386.4  T
     SCC iter.                  ...        0 min,  0.012 sec
     gradient                   ...        0 min,  0.053 sec
 * total energy  :   -57.8178452 Eh     change       -0.8361272E-04 Eh
   gradient norm :     0.0089881 Eh/α   predicted    -0.9190270E-04 (   9.91%)
   displ. norm   :     0.0362849 α      lambda       -0.7571496E-04
   maximum displ.:     0.0237275 α      in ANC's #1, #14, #2, ...

........................................................................
.............................. CYCLE   54 ..............................
........................................................................
   1    -58.3908206 -0.583908E+02  0.578E-03    0.79       0.0  T
   2    -58.3908208 -0.253475E-06  0.295E-03    0.79       5.9  T
   3    -58.3908208 -0.149947E-08  0.117E-03    0.79      14.8  T
   4    -58.3908208 -0.156855E-07  0.338E-04    0.79      51.5  T
   5    -58.3908208 -0.917233E-09  0.346E-05    0.79     502.6  T
   6    -58.3908208 -0.114682E-10  0.114E-05    0.79    1532.5  T
     SCC iter.                  ...        0 min,  0.012 sec
     gradient                   ...        0 min,  0.053 sec
 * total energy  :   -57.8178951 Eh     change       -0.4999845E-04 Eh
   gradient norm :     0.0029808 Eh/α   predicted    -0.3789309E-04 ( -24.21%)
   displ. norm   :     0.1513738 α      lambda       -0.5899805E-04
   maximum displ.:     0.0897428 α      in ANC's #1, #2, #5, ...

........................................................................
.............................. CYCLE   55 ..............................
........................................................................
   1    -58.3913804 -0.583914E+02  0.348E-03    0.79       0.0  T
   2    -58.3913807 -0.248091E-06  0.142E-03    0.79      12.2  T
   3    -58.3913807 -0.103393E-07  0.627E-04    0.79      27.8  T
   4    -58.3913807 -0.120348E-08  0.277E-04    0.79      62.9  T
   5    -58.3913807 -0.305171E-09  0.451E-05    0.79     386.1  T
   6    -58.3913807 -0.146017E-10  0.180E-05    0.79     968.8  T
     SCC iter.                  ...        0 min,  0.012 sec
     gradient                   ...        0 min,  0.059 sec
 * total energy  :   -57.8179382 Eh     change       -0.4303088E-04 Eh
   gradient norm :     0.0017443 Eh/α   predicted    -0.3009581E-04 ( -30.06%)
   displ. norm   :     0.2466378 α      lambda       -0.4472845E-04
   maximum displ.:     0.1504156 α      in ANC's #1, #2, #4, ...

........................................................................
.............................. CYCLE   56 ..............................
........................................................................
   1    -58.3909320 -0.583909E+02  0.674E-03    0.79       0.0  T
   2    -58.3909328 -0.722018E-06  0.301E-03    0.79       5.8  T
   3    -58.3909328 -0.310563E-07  0.134E-03    0.79      13.0  T
   4    -58.3909328 -0.392322E-08  0.517E-04    0.79      33.7  T
   5    -58.3909328 -0.122402E-08  0.880E-05    0.79     197.8  T
   6    -58.3909328 -0.148354E-09  0.354E-05    0.79     492.4  T
     SCC iter.                  ...        0 min,  0.018 sec
     gradient                   ...        0 min,  0.056 sec
 * total energy  :   -57.8179735 Eh     change       -0.3530782E-04 Eh
   gradient norm :     0.0044478 Eh/α   predicted    -0.2289834E-04 ( -35.15%)
   displ. norm   :     0.0646544 α      lambda       -0.3876865E-04
   maximum displ.:     0.0416110 α      in ANC's #1, #4, #14, ...

........................................................................
.............................. CYCLE   57 ..............................
........................................................................
   1    -58.3917996 -0.583918E+02  0.521E-03    0.79       0.0  T
   2    -58.3918000 -0.379391E-06  0.235E-03    0.79       7.4  T
   3    -58.3918000 -0.107111E-07  0.104E-03    0.79      16.8  T
   4    -58.3918000 -0.297313E-08  0.330E-04    0.79      52.8  T
   5    -58.3918000 -0.840075E-09  0.465E-05    0.79     374.7  T
   6    -58.3918000 -0.321165E-10  0.147E-05    0.79    1188.0  T
     SCC iter.                  ...        0 min,  0.012 sec
     gradient                   ...        0 min,  0.056 sec
 * total energy  :   -57.8179969 Eh     change       -0.2345910E-04 Eh
   gradient norm :     0.0014644 Eh/α   predicted    -0.1949342E-04 ( -16.90%)
   displ. norm   :     0.1309467 α      lambda       -0.1835866E-04
   maximum displ.:     0.0830883 α      in ANC's #1, #4, #18, ...

........................................................................
.............................. CYCLE   58 ..............................
........................................................................
   1    -58.3915909 -0.583916E+02  0.381E-03    0.79       0.0  T
   2    -58.3915912 -0.317039E-06  0.139E-03    0.79      12.6  T
   3    -58.3915912 -0.109190E-07  0.615E-04    0.79      28.3  T
   4    -58.3915912 -0.187575E-08  0.318E-04    0.79      54.7  T
   5    -58.3915912 -0.704460E-09  0.492E-05    0.79     354.1  T
   6    -58.3915912 -0.180833E-10  0.167E-05    0.79    1040.8  T
     SCC iter.                  ...        0 min,  0.012 sec
     gradient                   ...        0 min,  0.055 sec
 * total energy  :   -57.8180181 Eh     change       -0.2114939E-04 Eh
   gradient norm :     0.0016053 Eh/α   predicted    -0.9268864E-05 ( -56.17%)
   displ. norm   :     0.1915184 α      lambda       -0.2415752E-04
   maximum displ.:     0.1156332 α      in ANC's #1, #6, #4, ...

........................................................................
.............................. CYCLE   59 ..............................
........................................................................
   1    -58.3906394 -0.583906E+02  0.455E-03    0.79       0.0  T
   2    -58.3906398 -0.429699E-06  0.186E-03    0.79       9.3  T
   3    -58.3906399 -0.247695E-07  0.890E-04    0.80      19.6  T
   4    -58.3906399 -0.566944E-08  0.382E-04    0.80      45.5  T
   5    -58.3906399 -0.540211E-09  0.696E-05    0.80     250.0  T
   6    -58.3906399 -0.337153E-10  0.183E-05    0.80     949.8  T
     SCC iter.                  ...        0 min,  0.012 sec
     gradient                   ...        0 min,  0.056 sec
 * total energy  :   -57.8180374 Eh     change       -0.1931027E-04 Eh
   gradient norm :     0.0036729 Eh/α   predicted    -0.1232298E-04 ( -36.18%)
   displ. norm   :     0.0546036 α      lambda       -0.2050958E-04
   maximum displ.:     0.0363876 α      in ANC's #6, #7, #3, ...

........................................................................
.............................. CYCLE   60 ..............................
........................................................................
   1    -58.3912865 -0.583913E+02  0.314E-03    0.80       0.0  T
   2    -58.3912866 -0.129992E-06  0.163E-03    0.80      10.7  T
   3    -58.3912866 -0.251524E-08  0.789E-04    0.80      22.1  T
   4    -58.3912866 -0.179589E-08  0.175E-04    0.80      99.2  T
   5    -58.3912866 -0.556959E-09  0.377E-05    0.80     461.8  T
     SCC iter.                  ...        0 min,  0.010 sec
     gradient                   ...        0 min,  0.056 sec
 * total energy  :   -57.8180489 Eh     change       -0.1151551E-04 Eh
   gradient norm :     0.0015257 Eh/α   predicted    -0.1026151E-04 ( -10.89%)
   displ. norm   :     0.0799065 α      lambda       -0.9694130E-05
   maximum displ.:     0.0435182 α      in ANC's #1, #6, #3, ...

........................................................................
.............................. CYCLE   61 ..............................
........................................................................
   1    -58.3913976 -0.583914E+02  0.215E-03    0.80       0.0  T
   2    -58.3913977 -0.135284E-06  0.849E-04    0.80      20.5  T
   3    -58.3913977 -0.541814E-08  0.456E-04    0.80      38.2  T
   4    -58.3913977 -0.466059E-09  0.189E-04    0.80      92.2  T
   5    -58.3913977 -0.241656E-09  0.358E-05    0.80     485.7  T
     SCC iter.                  ...        0 min,  0.010 sec
     gradient                   ...        0 min,  0.054 sec
 * total energy  :   -57.8180597 Eh     change       -0.1081410E-04 Eh
   gradient norm :     0.0014098 Eh/α   predicted    -0.4845191E-05 ( -55.20%)
   displ. norm   :     0.1121882 α      lambda       -0.1360015E-04
   maximum displ.:     0.0610610 α      in ANC's #1, #3, #6, ...

........................................................................
.............................. CYCLE   62 ..............................
........................................................................
   1    -58.3909790 -0.583910E+02  0.348E-03    0.80       0.0  T
   2    -58.3909794 -0.378860E-06  0.129E-03    0.80      13.5  T
   3    -58.3909794 -0.116087E-07  0.634E-04    0.80      27.5  T
   4    -58.3909794 -0.781739E-09  0.268E-04    0.80      64.9  T
   5    -58.3909794 -0.397648E-09  0.538E-05    0.80     323.3  T
   6    -58.3909794 -0.262972E-10  0.211E-05    0.80     826.0  T
     SCC iter.                  ...        0 min,  0.012 sec
     gradient                   ...        0 min,  0.055 sec
 * total energy  :   -57.8180703 Eh     change       -0.1056472E-04 Eh
   gradient norm :     0.0018695 Eh/α   predicted    -0.6799468E-05 ( -35.64%)
   displ. norm   :     0.0335139 α      lambda       -0.5842977E-05
   maximum displ.:     0.0228692 α      in ANC's #3, #5, #6, ...

........................................................................
[...]
C8-C7=1.4913         C8-C9=1.5380         C8-C10=1.5418        C8-N11=1.4509        C9-C8=1.5380         C9-H21=1.0876        
C9-H22=1.0888        C9-H23=1.0882        C10-C8=1.5418        C10-H24=1.0883       C10-H25=1.0883       C10-H26=1.0888       
N11-C8=1.4509        N11-H27=1.0097       N11-H28=1.0104       N12-C7=1.3165        N12-C13=1.4152       N12-H29=1.0239       
C13-N12=1.4152       C13-O14=1.1919       C13-C15=1.5188       O14-C13=1.1919       C15-C5=1.4935        C15-C13=1.5188       
C15-C16=1.5660       C15-O17=1.3856       C16-C15=1.5660       C16-H30=1.0883       C16-H31=1.0864       C16-H32=1.0877       
O17-C15=1.3856       O17-H33=0.9678       H18-C1=1.0913        H19-C1=1.0875        H20-C1=1.0911        H21-C9=1.0876        
H22-C9=1.0888        H23-C9=1.0882        H24-C10=1.0883       H25-C10=1.0883       H26-C10=1.0888       H27-N11=1.0097       
H28-N11=1.0104       H29-N12=1.0239       H30-C16=1.0883       H31-C16=1.0864       H32-C16=1.0877       H33-O17=0.9678       
 C  H  Rav=1.0885 sigma=0.0013  Rmin=1.0864  Rmax=1.0913    12
 C  C  Rav=1.5248 sigma=0.0248  Rmin=1.4913  Rmax=1.5660     7
 N  H  Rav=1.0147 sigma=0.0065  Rmin=1.0097  Rmax=1.0239     3
 N  C  Rav=1.3663 sigma=0.0595  Rmin=1.2915  Rmax=1.4509     5
 O  H  Rav=0.9678 sigma=0.0000  Rmin=0.9678  Rmax=0.9678     1
 O  C  Rav=1.3057 sigma=0.0984  Rmin=1.1919  Rmax=1.4402     5
 
 selected bond angles (degree)
 --------------------
H18-C1-O2=109.36               H19-C1-O2=106.17               H19-C1-H18=110.62              H20-C1-O2=109.76               
H20-C1-H18=109.92              H20-C1-H19=110.92              C3-O2-C1=117.58                O4-C3-O2=126.73                
C5-C3-O2=111.50                C5-C3-O4=121.76                N6-C5-C3=117.86                C15-C5-C3=118.29               
C15-C5-N6=123.34               C7-N6-C5=119.42                C8-C7-N6=119.54                N12-C7-N6=122.15               
N12-C7-C8=118.30               C9-C8-C7=110.25                C10-C8-C7=106.10               C10-C8-C9=110.14               
N11-C8-C7=107.76               N11-C8-C9=112.52               N11-C8-C10=109.85              H21-C9-C8=108.81               
H22-C9-C8=109.94               H22-C9-H21=109.54              H23-C9-C8=110.10               H23-C9-H21=109.17              
H23-C9-H22=109.26              H24-C10-C8=108.52              H25-C10-C8=109.99              H25-C10-H24=109.32             
H26-C10-C8=110.24              H26-C10-H24=109.31             H26-C10-H25=109.44             
 
 selected dihedral angles (degree)
 ---------------------------------
C3-O2-C1-H18=286.07           C3-O2-C1-H19=166.69           C3-O2-C1-H20= 46.74           O4-C3-O2-C1=359.10            
C5-C3-O2-C1=180.67            N6-C5-C3-O2= 53.52            N6-C5-C3-O4=235.00            C15-C5-C3-O2=225.60           
C15-C5-C3-O4= 47.08           C7-N6-C5-C3=181.12            C7-N6-C5-C15=  9.46           C8-C7-N6-C5=182.95            
N12-C7-N6-C5=  4.01           C9-C8-C7-N6=315.58            C9-C8-C7-N12=134.57           C10-C8-C7-N6= 74.82           
C10-C8-C7-N12=253.80          N11-C8-C7-N6=192.43           N11-C8-C7-N12= 11.42          H21-C9-C8-C7=178.32           
H21-C9-C8-C10= 61.57          H21-C9-C8-N11=298.64          H22-C9-C8-C7= 58.36           H22-C9-C8-C10=301.60          
H22-C9-C8-N11=178.68          H23-C9-C8-C7=297.93           H23-C9-C8-C10=181.18          H23-C9-C8-N11= 58.25          
H24-C10-C8-C7=182.95          H24-C10-C8-C9=302.27          H24-C10-C8-N11= 66.74         H25-C10-C8-C7= 63.41          
H25-C10-C8-C9=182.73          H25-C10-C8-N11=307.20         H26-C10-C8-C7=302.64          H26-C10-C8-C9= 61.95          
H26-C10-C8-N11=186.43         
           -------------------------------------------------
          |                Final Singlepoint                |
           -------------------------------------------------

          ...................................................
          :                      SETUP                      :
          :.................................................:
          :  # basis functions                 100          :
          :  # atomic orbitals                 100          :
          :  # shells                           66          :
          :  # electrons                        94          :
          :  # halogen bonds                     0          :
          :  max. iterations                   250          :
          :  Hamiltonian                  GFN1-xTB          :
          :  restarted?                      false          :
          :  GBSA solvation                   true          :
          :  PC potential                    false          :
          :  electronic temp.          300.0000000     K    :
          :  accuracy                    1.0000000          :
          :  -> integral cutoff          0.2500000E+02      :
          :  -> integral neglect         0.1000000E-07      :
          :  -> SCF convergence          0.1000000E-05 Eh   :
          :  -> wf. convergence          0.2000000E-04 e    :
          :  Broyden damping             0.4000000          :
          ...................................................

 iter      E             dE          RMSdq      gap      omega  full diag
   1    -58.3917239 -0.583917E+02  0.415E-06    0.79       0.0  T
   2    -58.3917239 -0.497380E-13  0.183E-06    0.79    9513.2  T
   3    -58.3917239 -0.923706E-13  0.718E-07    0.79   24230.8  T

   *** convergence criteria satisfied after 3 iterations ***

         #    Occupation            Energy/Eh            Energy/eV
      -------------------------------------------------------------
         1        2.0000           -0.8940802             -24.3292
       ...           ...                  ...                  ...
        41        2.0000           -0.5326563             -14.4943
        42        2.0000           -0.5271938             -14.3457
        43        2.0000           -0.5240616             -14.2604
        44        2.0000           -0.5170982             -14.0710
        45        2.0000           -0.5026244             -13.6771
        46        2.0000           -0.4930354             -13.4162
        47        2.0000           -0.4509416             -12.2707 (HOMO)
        48        0.0000           -0.4217685             -11.4769 (LUMO)
        49                         -0.3472657              -9.4496
        50                         -0.3031152              -8.2482
        51                         -0.2814217              -7.6579
        52                         -0.1554193              -4.2292
       ...                                ...                  ...
       100                          0.7087786              19.2868
      -------------------------------------------------------------
                  HL-Gap            0.0291731 Eh            0.7938 eV
             Fermi-level           -0.4363551 Eh          -11.8738 eV

 SCC (total)                   0 d,  0 h,  0 min,  0.089 sec
 SCC setup                      ...        0 min,  0.001 sec (  1.505%)
 Dispersion                     ...        0 min,  0.000 sec (  0.266%)
 classical contributions        ...        0 min,  0.000 sec (  0.102%)
 integral evaluation            ...        0 min,  0.024 sec ( 27.513%)
 iterations                     ...        0 min,  0.007 sec (  7.640%)
 molecular gradient             ...        0 min,  0.055 sec ( 62.344%)
 printout                       ...        0 min,  0.000 sec (  0.552%)

         :::::::::::::::::::::::::::::::::::::::::::::::::::::
         ::                     SUMMARY                     ::
         :::::::::::::::::::::::::::::::::::::::::::::::::::::
         :: total energy             -57.818100253637 Eh    ::
         :: total w/o Gsasa/hb       -57.795398366619 Eh    ::
         :: gradient norm              0.000476410596 Eh/a0 ::
         :: HOMO-LUMO gap              0.793839765229 eV    ::
         ::.................................................::
         :: SCC energy               -58.391723916063 Eh    ::
         :: -> electrostatic           0.312858354691 Eh    ::
         :: -> Gsolv                  -0.098484722348 Eh    ::
         ::    -> Gelec               -0.075782835330 Eh    ::
         ::    -> Gsasa               -0.018126384816 Eh    ::
         ::    -> Ghb                 -0.012199781206 Eh    ::
         ::    -> Gshift               0.007624279005 Eh    ::
         :: repulsion energy           0.592728743721 Eh    ::
         :: dispersion energy         -0.019105081294 Eh    ::
         :: halogen bond corr.         0.000000000000 Eh    ::
         :: add. restraining           0.000000000000 Eh    ::
         :: total charge               1.000000000000 e     ::
         :::::::::::::::::::::::::::::::::::::::::::::::::::::

           -------------------------------------------------
          |                Property Printout                |
           -------------------------------------------------

    * Orbital Energies and Occupations

         #    Occupation            Energy/Eh            Energy/eV
      -------------------------------------------------------------
         1        2.0000           -0.8940802             -24.3292
       ...           ...                  ...                  ...
        35        2.0000           -0.5509953             -14.9933
        36        2.0000           -0.5456863             -14.8489
        37        2.0000           -0.5451755             -14.8350
        38        2.0000           -0.5396460             -14.6845
        39        2.0000           -0.5379037             -14.6371
        40        2.0000           -0.5352229             -14.5642
        41        2.0000           -0.5326563             -14.4943
        42        2.0000           -0.5271938             -14.3457
        43        2.0000           -0.5240616             -14.2604
        44        2.0000           -0.5170982             -14.0710
        45        2.0000           -0.5026244             -13.6771
        46        2.0000           -0.4930354             -13.4162
        47        2.0000           -0.4509416             -12.2707 (HOMO)
        48        0.0000           -0.4217685             -11.4769 (LUMO)
        49                         -0.3472657              -9.4496
        50                         -0.3031152              -8.2482
        51                         -0.2814217              -7.6579
        52                         -0.1554193              -4.2292
        53                         -0.1545290              -4.2049
        54                         -0.1472759              -4.0076
        55                         -0.1443279              -3.9274
        56                         -0.1338161              -3.6413
        57                         -0.1221352              -3.3235
        58                         -0.1172113              -3.1895
       ...                                ...                  ...
       100                          0.7087786              19.2868
      -------------------------------------------------------------
                  HL-Gap            0.0291731 Eh            0.7938 eV
             Fermi-level           -0.4363551 Eh          -11.8738 eV

  Mulliken/CM5 charges         n(s)   n(p)   n(d)
     1C     0.15695  0.03523   0.990  2.853  0.000
     2O    -0.38790 -0.47153   1.681  4.707  0.000
     3C     0.60238  0.67128   0.954  2.444  0.000
     4O    -0.51278 -0.56244   1.718  4.795  0.000
     5C     0.21976  0.31039   1.109  2.671  0.000
     6N    -0.31436 -0.50252   1.521  3.794  0.000
     7C     0.35243  0.49892   1.064  2.584  0.000
     8C     0.14972  0.18573   1.065  2.786  0.000
     9C    -0.10786 -0.24915   1.027  3.081  0.000
    10C    -0.09872 -0.23977   1.029  3.070  0.000
    11N    -0.52561 -0.99004   1.474  4.052  0.000
    12N    -0.23605 -0.57893   1.447  3.789  0.000
    13C     0.48902  0.58573   1.019  2.492  0.000
    14O    -0.45592 -0.50140   1.715  4.741  0.000
    15C     0.22372  0.24394   1.034  2.743  0.000
    16C    -0.09702 -0.23813   1.041  3.056  0.000
    17O    -0.56081 -0.75975   1.690  4.871  0.000
    18H     0.07028  0.13072   0.930  0.000  0.000
    19H     0.07240  0.13271   0.928  0.000  0.000
    20H     0.06942  0.13211   0.931  0.000  0.000
    21H     0.07309  0.12826   0.927  0.000  0.000
    22H     0.05940  0.11681   0.941  0.000  0.000
    23H     0.06186  0.11792   0.938  0.000  0.000
    24H     0.07973  0.13493   0.920  0.000  0.000
    25H     0.06393  0.12078   0.936  0.000  0.000
    26H     0.06175  0.11797   0.938  0.000  0.000
    27H     0.25677  0.44776   0.743  0.000  0.000
    28H     0.24959  0.44135   0.750  0.000  0.000
    29H     0.31772  0.52365   0.682  0.000  0.000
    30H     0.09578  0.15561   0.904  0.000  0.000
    31H     0.06651  0.12463   0.933  0.000  0.000
    32H     0.09221  0.14904   0.908  0.000  0.000
    33H     0.41260  0.58819   0.587  0.000  0.000

Wiberg/Mayer (AO) data.
largest (>0.10) Wiberg bond orders for each atom

 ---------------------------------------------------------------------------
     #   Z sym  total        # sym  WBO       # sym  WBO       # sym  WBO
 ---------------------------------------------------------------------------
     1   6 C    3.841 --    19 H    0.983    20 H    0.979    18 H    0.976
                             2 O    0.867
     2   8 O    2.243 --     3 C    1.176     1 C    0.867     4 O    0.156
     3   6 C    3.863 --     4 O    1.694     2 O    1.176     5 C    0.925
     4   8 O    1.983 --     3 C    1.694     2 O    0.156
     5   6 C    3.903 --     6 N    1.642    15 C    1.007     3 C    0.925
     6   7 N    3.048 --     5 C    1.642     7 C    1.201
     7   6 C    3.865 --    12 N    1.417     6 N    1.201     8 C    1.018
     8   6 C    3.956 --     7 C    1.018    11 N    0.999     9 C    0.953
                            10 C    0.933
     9   6 C    3.981 --    23 H    0.983    22 H    0.982    21 H    0.980
                             8 C    0.953
    10   6 C    3.978 --    25 H    0.984    26 H    0.983    24 H    0.973
                             8 C    0.933
    11   7 N    2.994 --     8 C    0.999    28 H    0.926    27 H    0.923
    12   7 N    3.528 --     7 C    1.417    13 C    1.006    29 H    0.828
    13   6 C    3.858 --    14 O    1.786    12 N    1.006    15 C    0.939
    14   8 O    2.036 --    13 C    1.786
    15   6 C    3.939 --     5 C    1.007    17 O    1.000    13 C    0.939
                            16 C    0.862
    16   6 C    3.961 --    31 H    0.985    30 H    0.972    32 H    0.971
                            15 C    0.862
    17   8 O    1.919 --    15 C    1.000    33 H    0.820
    18   1 H    1.000 --     1 C    0.976
    19   1 H    1.006 --     1 C    0.983
    20   1 H    1.002 --     1 C    0.979
    21   1 H    0.997 --     9 C    0.980
    22   1 H    1.004 --     9 C    0.982
    23   1 H    0.997 --     9 C    0.983
    24   1 H    0.994 --    10 C    0.973
    25   1 H    0.997 --    10 C    0.984
    26   1 H    0.998 --    10 C    0.983
    27   1 H    0.937 --    11 N    0.923
    28   1 H    0.940 --    11 N    0.926
    29   1 H    0.922 --    12 N    0.828
    30   1 H    1.003 --    16 C    0.972
    31   1 H    0.994 --    16 C    0.985
    32   1 H    0.992 --    16 C    0.971
    33   1 H    0.836 --    17 O    0.820
 ---------------------------------------------------------------------------

Topologies differ in total number of bonds
Writing topology from bond orders to xtbtopo.mol

 dipole moment from electron density (au)
     X       Y       Z   
  -2.5230  -0.3699   0.3766  total (Debye):    6.552

           -------------------------------------------------
          |                Geometry Summary                 |
           -------------------------------------------------

      molecular mass/u    :      242.2521403
   center of mass at/Å    :        0.4080796      -0.2815683       0.0609151
  moments of inertia/u·Å² :        0.8122411E+03   0.1345260E+04   0.1852915E+04
rotational constants/cm⁻¹ :        0.2075447E-01   0.1253113E-01   0.9097901E-02

 * 28 selected distances

     #   Z          #   Z                                           value/Å
     1   6 C        2   8 O                                       1.4402432
     2   8 O        3   6 C                                       1.3095433
     3   6 C        4   8 O                                       1.2009784
     5   6 C        6   7 N                                       1.2915408
     6   7 N        7   6 C                                       1.3571742
     7   6 C        8   6 C                                       1.4913455
     8   6 C        9   6 C                                       1.5379964 (max)
     8   6 C       11   7 N                                       1.4508544
     7   6 C       12   7 N                                       1.3164851
    12   7 N       13   6 C                                       1.4152133
    13   6 C       14   8 O                                       1.1918509
    15   6 C       17   8 O                                       1.3856489
     1   6 C       18   1 H                                       1.0913148
     1   6 C       19   1 H                                       1.0875181
     1   6 C       20   1 H                                       1.0911009
     9   6 C       21   1 H                                       1.0876419
     9   6 C       22   1 H                                       1.0888311
     9   6 C       23   1 H                                       1.0882061
    10   6 C       24   1 H                                       1.0883197
    10   6 C       25   1 H                                       1.0882553
    10   6 C       26   1 H                                       1.0888337
    11   7 N       27   1 H                                       1.0097355
    11   7 N       28   1 H                                       1.0104120
    12   7 N       29   1 H                                       1.0239303
    16   6 C       30   1 H                                       1.0882976
    16   6 C       31   1 H                                       1.0864105
    16   6 C       32   1 H                                       1.0877215
    17   8 O       33   1 H                                       0.9677929 (min)

 * 6 distinct bonds (by element types)

   Z      Z             #   av. dist./Å        max./Å        min./Å
   1 H    6 C          12     1.0885376     1.0913148     1.0864105
   6 C    6 C           2     1.5146709     1.5379964     1.4913455
   1 H    7 N           3     1.0146926     1.0239303     1.0097355
   6 C    7 N           5     1.3662536     1.4508544     1.2915408
   1 H    8 O           1     0.9677929     0.9677929     0.9677929
   6 C    8 O           5     1.3056529     1.4402432     1.1918509


optimized geometry written to: xtbopt.xyz


           -------------------------------------------------
          | TOTAL ENERGY              -57.818100253637 Eh   |
          | GRADIENT NORM               0.000476410596 Eh/α |
          | HOMO-LUMO GAP               0.793839765229 eV   |
           -------------------------------------------------

------------------------------------------------------------------------
 * finished run on 2023/06/20 at 15:09:50.356     
------------------------------------------------------------------------
 total:
 * wall-time:     0 d,  0 h,  0 min,  6.737 sec
 *  cpu-time:     0 d,  0 h,  0 min,  6.624 sec
 * ratio c/w:     0.983 speedup
 SCF:
 * wall-time:     0 d,  0 h,  0 min,  0.136 sec
 *  cpu-time:     0 d,  0 h,  0 min,  0.121 sec
 * ratio c/w:     0.886 speedup
 ANC optimizer:
 * wall-time:     0 d,  0 h,  0 min,  6.494 sec
 *  cpu-time:     0 d,  0 h,  0 min,  6.462 sec
 * ratio c/w:     0.995 speedup

