33
 energy: -58.571938662776 gnorm: 0.000331410290 xtb: 6.5.1 (579679a)
C            4.34790382130102        1.84442915231865        0.38577310363633
O            3.37374696115416        0.85569882188891        0.11647482912625
C            2.04962119630597        1.30750238213575        0.12614317333307
O            1.83172769807946        2.50683727330898        0.37126209217185
C            1.09533679470246        0.31166102401606       -0.14491729490328
N           -0.21803633878548        0.69980800411382       -0.06020256470473
C           -1.18892987694854       -0.10927741382176       -0.25392038736599
C           -2.63651389782998        0.29110671130987       -0.06343770806367
C           -3.05732317382437       -0.01468883629694        1.38304521550810
C           -2.80814276507444        1.78759855380684       -0.36097089556850
N           -3.46606781941421       -0.52216347505661       -0.95805073057036
N           -0.97344337753213       -1.45906153729678       -0.61351503201942
C            0.24387687582010       -1.96561338330378       -0.85850762789041
O            0.39890930465366       -3.06781913594346       -1.39151701086579
C            1.46280181409161       -1.13767174450237       -0.41628420166890
C            2.03465432647478       -1.83463544055207        0.84307962315976
O            2.42053521476770       -1.23366814364884       -1.47541766495702
H            4.21649396848669        2.27177348301427        1.38787306637405
H            5.32503214421912        1.36215368502095        0.32804784801971
H            4.30295458936899        2.65998242610622       -0.34702517781788
H           -2.42323727345546        0.53319156251736        2.08005973767318
H           -2.95913861973480       -1.08190898921305        1.58008847441577
H           -4.09385618943778        0.27752718576119        1.54732052750043
H           -2.13837211618229        2.36985138244394        0.27353471157134
H           -2.56563035251477        1.99085318865976       -1.40380529029514
H           -3.83591899607686        2.09375447747272       -0.17430202331635
H           -4.43281843649284       -0.45571406086435       -0.67662267798963
H           -3.40429168611583       -0.16528258853237       -1.90260683766031
H           -1.78445213485685       -1.98595222984037       -0.90646817598829
H            2.21296601210866       -2.88879387062935        0.63411597953950
H            2.97435458614107       -1.36485959262823        1.12665300092634
H            1.32580713223424       -1.74775214480882        1.66493929446837
H            2.36945061436629       -2.12886472695778       -1.84084037578227
