42
 energy: -83.615763353606 gnorm: 0.000336582458 xtb: 6.5.1 (579679a)
C            6.56869708794474        1.20004010830085       -1.43101604084347
O            5.57563691975610        1.14944851857579       -0.41960739791130
C            4.37995451076007        0.61556375272481       -0.79433673654944
O            4.21497050520246        0.22404503639524       -1.94626711092467
C            3.38031683230130        0.55544179977024        0.25683437700271
N            2.18440382850901        0.00281664007741       -0.17628387718120
C            1.19965987725135       -0.12867297698206        0.63401372297708
C           -0.10076836644635       -0.77801402813501        0.20371934795673
C           -0.35239013227688       -0.50267511761936       -1.28615052247289
C            0.02284448577017       -2.28837354797688        0.45540036844101
N           -1.17459646866418       -0.22412125658189        1.05179779579924
C           -2.49067884793113       -0.76910303513397        0.79095630407861
O           -2.83982308717298       -1.84328748389586        1.66319314227221
C           -3.56569217043618       -2.88155192317935        1.03947077481365
C           -3.46557662837619        0.00275159482832        0.21635600567929
N           -4.79195683814040       -0.25538370442205        0.09258553144837
N           -5.30161743109051        0.75437555330605       -0.70308571562571
C           -4.33603753954705        1.53989494522264       -1.02041984692077
C           -4.40422618669472        2.76797591521538       -1.85826775860663
O           -3.12472438192529        1.15185632220177       -0.49123944601624
N            1.29189818280494        0.25095358537167        1.95579082683683
C            2.40298531511485        0.80970832194643        2.51713080075344
O            2.40077002462950        1.12446283805336        3.70960928036754
C            3.58387847904194        0.99448701284509        1.59059435487728
O            4.62757798592310        1.50298364701807        2.05090372736491
H            6.22780084161824        1.79638538846293       -2.28364643500717
H            6.81578872400745        0.19370408932479       -1.78481054963322
H            7.45258892044816        1.66087973443881       -0.99156893601508
H           -1.25144844496563       -1.02473213468896       -1.61276279464890
H           -0.48751020317060        0.56619291154033       -1.45099999963767
H            0.49765132112228       -0.84663713389163       -1.87544574547353
H            0.91968668897243       -2.67445238640998       -0.02848066238963
H            0.08233160408598       -2.48325602532927        1.52633033054409
H           -0.84293964462801       -2.81104426301437        0.05135254112941
H           -1.21704732470078        0.77854862510218        0.86490281408720
H           -3.68288159517817       -3.68732861859751        1.76912317148326
H           -3.03923793621726       -3.27543095698125        0.15699059997875
H           -4.56284088757598       -2.53982317668740        0.72092371212707
H           -4.08891368321337        3.64469301108248       -1.28935900822477
H           -5.42818966988034        2.91514315315783       -2.19597814406332
H           -3.75237874297349        2.68097188394517       -2.72930406483279
H            0.47203407597549        0.13056338064750        2.53760126296224
