16
 energy: -34.158764027024 gnorm: 0.000552937386 xtb: 6.5.1 (579679a)
C            2.67183228357590       -0.30235011449657       -0.51356599381630
C            1.30556292631364        0.05818322075412       -0.05568395118203
N            1.03216547008668        0.93044472963748        0.82637726068857
N           -0.39287603305403        0.94272304581213        0.98490342446957
C           -0.90062595184717       -0.06507626076943        0.00085520766225
C           -1.88820035072701       -1.11038872377215        0.43955675497112
C           -1.01730891570144        1.38280007322559       -0.24496306035888
O           -0.71168058083418        2.19555371937070       -1.09114459075469
Cl          -3.00788569511084        1.87756968622248        0.52892430198284
O            0.26078371143238       -0.60947409849852       -0.61248921306961
H            2.76794629339164       -0.10834218045902       -1.58136828000591
H            3.41026816949481        0.28089321558110        0.03043165411405
H            2.85029635556311       -1.36398096478210       -0.34797778598181
H           -2.36851547422688       -1.55311396014239       -0.43166057414361
H           -1.36738654999651       -1.89290604660396        0.98945507567147
H           -2.64437465836017       -0.66253434107936        1.07834976975340
