      -----------------------------------------------------------      
     |                   =====================                   |     
     |                           x T B                           |     
     |                   =====================                   |     
     |                         S. Grimme                         |     
     |          Mulliken Center for Theoretical Chemistry        |     
     |                    University of Bonn                     |     
      -----------------------------------------------------------      

   * xtb version 6.5.1 (579679a) compiled by 'ehlert@majestix' on 2022-07-11

   xtb is free software: you can redistribute it and/or modify it under
   the terms of the GNU Lesser General Public License as published by
   the Free Software Foundation, either version 3 of the License, or
   (at your option) any later version.
   
   xtb is distributed in the hope that it will be useful,
   but WITHOUT ANY WARRANTY; without even the implied warranty of
   MERCHANTABILITY or FITNESS FOR A PARTICULAR PURPOSE.  See the
   GNU Lesser General Public License for more details.
   
   Cite this work as:
   * C. Bannwarth, E. Caldeweyher, S. Ehlert, A. Hansen, P. Pracht,
     J. Seibert, S. Spicher, S. Grimme, WIREs Comput. Mol. Sci., 2020, 11,
     e01493. DOI: 10.1002/wcms.1493
   
   for GFN2-xTB:
   * C. Bannwarth, S. Ehlert and S. Grimme., J. Chem. Theory Comput., 2019,
     15, 1652-1671. DOI: 10.1021/acs.jctc.8b01176
   for GFN1-xTB:
   * S. Grimme, C. Bannwarth, P. Shushkov, J. Chem. Theory Comput., 2017,
     13, 1989-2009. DOI: 10.1021/acs.jctc.7b00118
   for GFN0-xTB:
   * P. Pracht, E. Caldeweyher, S. Ehlert, S. Grimme, ChemRxiv, 2019, preprint.
     DOI: 10.26434/chemrxiv.8326202.v1
   for GFN-FF:
   * S. Spicher and S. Grimme, Angew. Chem. Int. Ed., 2020, 59, 15665-15673.
     DOI: 10.1002/anie.202004239
   
   for ALPB and GBSA implicit solvation:
   * S. Ehlert, M. Stahn, S. Spicher, S. Grimme, J. Chem. Theory Comput.,
     2021, 17, 4250-4261. DOI: 10.1021/acs.jctc.1c00471
   
   for DFT-D4:
   * E. Caldeweyher, C. Bannwarth and S. Grimme, J. Chem. Phys., 2017,
     147, 034112. DOI: 10.1063/1.4993215
   * E. Caldeweyher, S. Ehlert, A. Hansen, H. Neugebauer, S. Spicher,
     C. Bannwarth and S. Grimme, J. Chem. Phys., 2019, 150, 154122.
     DOI: 10.1063/1.5090222
   * E. Caldeweyher, J.-M. Mewes, S. Ehlert and S. Grimme, Phys. Chem. Chem. Phys.
     2020, 22, 8499-8512. DOI: 10.1039/D0CP00502A
   
   for sTDA-xTB:
   * S. Grimme and C. Bannwarth, J. Chem. Phys., 2016, 145, 054103.
     DOI: 10.1063/1.4959605
   
   in the mass-spec context:
   * V. Asgeirsson, C. Bauer and S. Grimme, Chem. Sci., 2017, 8, 4879.
     DOI: 10.1039/c7sc00601b
   * J. Koopman and S. Grimme, ACS Omega 2019, 4, 12, 15120-15133.
     DOI: 10.1021/acsomega.9b02011
   
   for metadynamics refer to:
   * S. Grimme, J. Chem. Theory Comput., 2019, 155, 2847-2862
     DOI: 10.1021/acs.jctc.9b00143
   
   for SPH calculations refer to:
   * S. Spicher and S. Grimme, J. Chem. Theory Comput., 2021, 17, 1701-1714
     DOI: 10.1021/acs.jctc.0c01306
   
   with help from (in alphabetical order)
   P. Atkinson, C. Bannwarth, F. Bohle, G. Brandenburg, E. Caldeweyher
   M. Checinski, S. Dohm, S. Ehlert, S. Ehrlich, I. Gerasimov, C. Hölzer
   A. Katbashev, J. Koopman, C. Lavigne, S. Lehtola, F. März, M. Müller,
   F. Musil, H. Neugebauer, J. Pisarek, C. Plett, P. Pracht, F. Pultar,
   J. Seibert, P. Shushkov, S. Spicher, M. Stahn, M. Steiner, T. Strunk,
   J. Stückrath, T. Rose, and J. Unsleber
   
 * started run on 2023/06/20 at 18:06:56.892     

           -------------------------------------------------
          |                Calculation Setup                |
           -------------------------------------------------

          program call               : /lustre/hpc/kemi/ree/PhD/git/ReactivityQM/dep/xtb-6.5.1/bin/xtb --gfn 1 /lustre/hpc/kemi/ree/PhD/git/ReactivityQM/calculations/R02deprot/reac01prodN02/conf04/R02deprot_reac01prodN02_conf04_gfn1.xyz --opt --vfukui --chrg 0 --uhf 0 --alpb DMSO
          hostname                   : node308
          coordinate file            : /lustre/hpc/kemi/ree/PhD/git/ReactivityQM/calculations/R02deprot/reac01prodN02/conf04/R02deprot_reac01prodN02_conf04_gfn1.xyz
          omp threads                :                     1

   ID    Z sym.   atoms
    1    6 C      1, 3, 5, 7-10, 12, 14, 15, 18, 19, 22, 24
    2    8 O      2, 4, 13, 20, 23, 25
    3    7 N      6, 11, 16, 17, 21
    4    1 H      26-42

           -------------------------------------------------
          |                 G F N 1 - x T B                 |
           -------------------------------------------------

        Reference                      10.1021/acs.jctc.7b00118
      * Hamiltonian:
        H0-scaling (s, p, d)           1.850000    2.250000    2.000000
        zeta-weighting                 0.000000
      * Dispersion:
        s8                             2.400000
        a1                             0.630000
        a2                             5.000000
        s9                             0.000000
      * Repulsion:
        kExp                           1.500000
        rExp                           1.000000
      * Coulomb:
        alpha                          2.000000
        third order                    atomic
        anisotropic                    false
      * Halogen bond correction:
        rad-scale                      1.300000
        damping                        0.440000

      * Solvation model:               ALPB
        Solvent                        DMSO
        Parameter file                 internal GFN1-xTB/ALPB
        Dielectric constant                4.6680E+01
        Reference state                gsolv [1 M gas/solution]
        Free energy shift                  7.6243E-03 Eh       4.7843E+00 kcal/mol
        Temperature                        2.9815E+02 K
        Density                            1.1000E+00 kg/L
        Solvent mass                       7.8130E+01 g/mol
        Interaction kernel             P16
        Born radius scaling (c1)           1.7672E+00
        Born radii integrator          GBOBC
        Born offset                        0.0000E+00 a0       0.0000E+00 AA
        H-bond correction              true
        Ion screening                  false
        Surface tension                    1.0000E-05 Eh       1.5569E+01 dyn/cm
        Grid points                               230 per atom

          ...................................................
          :                      SETUP                      :
          :.................................................:
          :  # basis functions                 134          :
          :  # atomic orbitals                 134          :
          :  # shells                           84          :
          :  # electrons                       134          :
          :  # halogen bonds                     0          :
          :  max. iterations                   250          :
          :  Hamiltonian                  GFN1-xTB          :
          :  restarted?                      false          :
          :  GBSA solvation                   true          :
          :  PC potential                    false          :
          :  electronic temp.          300.0000000     K    :
          :  accuracy                    1.0000000          :
          :  -> integral cutoff          0.2500000E+02      :
          :  -> integral neglect         0.1000000E-07      :
          :  -> SCF convergence          0.1000000E-05 Eh   :
          :  -> wf. convergence          0.2000000E-04 e    :
          :  Broyden damping             0.4000000          :
          ...................................................

 iter      E             dE          RMSdq      gap      omega  full diag
   1    -83.4059568 -0.834060E+02  0.844E+00    2.64       0.0  T
   2    -83.6686227 -0.262666E+00  0.505E+00    0.78       1.0  T
   3    -83.3646690  0.303954E+00  0.211E+00    0.12       1.0  T
   4    -83.6139453 -0.249276E+00  0.115E+00    2.43       1.0  T
   5    -83.6734270 -0.594817E-01  0.530E-01    1.84       1.0  T
   6    -83.6791347 -0.570774E-02  0.371E-01    1.23       1.0  T
   7    -83.6834458 -0.431106E-02  0.231E-01    0.68       1.0  T
   8    -83.6565779  0.268679E-01  0.483E-01    0.05       1.0  T
   9    -83.6839388 -0.273609E-01  0.199E-01    0.54       1.0  T
  10    -83.6842890 -0.350242E-03  0.179E-01    0.47       1.0  T
  11    -83.6849911 -0.702107E-03  0.141E-01    0.34       1.0  T
  12    -83.6864006 -0.140943E-02  0.647E-02    0.20       1.0  T
  13    -83.6858611  0.539454E-03  0.902E-02    0.12       1.0  T
  14    -83.6865451 -0.683940E-03  0.536E-02    0.19       1.0  T
  15    -83.6868816 -0.336549E-03  0.153E-03    0.15      10.1  T
  16    -83.6868766  0.496202E-05  0.659E-03    0.16       2.3  T
  17    -83.6868803 -0.365764E-05  0.362E-03    0.15       4.3  T
  18    -83.6868819 -0.158401E-05  0.364E-04    0.15      42.4  T
  19    -83.6868819 -0.870388E-08  0.248E-04    0.15      62.2  T
  20    -83.6868819 -0.541526E-08  0.131E-04    0.15     118.0  T
  21    -83.6868819 -0.193532E-08  0.346E-05    0.15     446.5  T

   *** convergence criteria satisfied after 21 iterations ***

         #    Occupation            Energy/Eh            Energy/eV
      -------------------------------------------------------------
         1        2.0000           -0.8875149             -24.1505
       ...           ...                  ...                  ...
        61        2.0000           -0.4684631             -12.7475
        62        2.0000           -0.4624970             -12.5852
        63        2.0000           -0.4551587             -12.3855
        64        2.0000           -0.4413862             -12.0107
        65        2.0000           -0.4214789             -11.4690
        66        2.0000           -0.3930038             -10.6942
        67        1.9008           -0.3843866             -10.4597 (HOMO)
        68        0.0992           -0.3787764             -10.3070 (LUMO)
        69                         -0.2926728              -7.9640
        70                         -0.2891066              -7.8670
        71                         -0.2548204              -6.9340
        72                         -0.2477777              -6.7424
       ...                                ...                  ...
       134                          0.7434887              20.2314
      -------------------------------------------------------------
                  HL-Gap            0.0056103 Eh            0.1527 eV
             Fermi-level           -0.3815815 Eh          -10.3834 eV

 SCC (total)                   0 d,  0 h,  0 min,  0.272 sec
 SCC setup                      ...        0 min,  0.002 sec (  0.790%)
 Dispersion                     ...        0 min,  0.000 sec (  0.155%)
 classical contributions        ...        0 min,  0.000 sec (  0.049%)
 integral evaluation            ...        0 min,  0.045 sec ( 16.590%)
 iterations                     ...        0 min,  0.102 sec ( 37.453%)
 molecular gradient             ...        0 min,  0.121 sec ( 44.609%)
 printout                       ...        0 min,  0.001 sec (  0.336%)

         :::::::::::::::::::::::::::::::::::::::::::::::::::::
         ::                     SUMMARY                     ::
         :::::::::::::::::::::::::::::::::::::::::::::::::::::
         :: total energy             -82.939270615821 Eh    ::
         :: total w/o Gsasa/hb       -82.913996820013 Eh    ::
         :: gradient norm              0.151855541158 Eh/a0 ::
         :: HOMO-LUMO gap              0.152662762020 eV    ::
         ::.................................................::
         :: SCC energy               -83.686881897795 Eh    ::
         :: -> electrostatic           0.366526387416 Eh    ::
         :: -> Gsolv                  -0.067669378910 Eh    ::
         ::    -> Gelec               -0.042395583103 Eh    ::
         ::    -> Gsasa               -0.025444815359 Eh    ::
         ::    -> Ghb                 -0.007453259453 Eh    ::
         ::    -> Gshift               0.007624279005 Eh    ::
         :: repulsion energy           0.772693281228 Eh    ::
         :: dispersion energy         -0.025081999253 Eh    ::
         :: halogen bond corr.         0.000000000000 Eh    ::
         :: add. restraining           0.000000000000 Eh    ::
         :: total charge              -0.000000000000 e     ::
         :::::::::::::::::::::::::::::::::::::::::::::::::::::

      ----------------------------------------------------------- 
     |                   =====================                   |
     |                        A N C O P T                        |
     |                   =====================                   |
     |               Approximate Normal Coordinate               |
     |                Rational Function Optimizer                |
      ----------------------------------------------------------- 

          ...................................................
          :                      SETUP                      :
          :.................................................:
          :   optimization level            normal          :
          :   max. optcycles                   200          :
          :   ANC micro-cycles                  20          :
          :   degrees of freedom               120          :
          :.................................................:
          :   RF solver                   davidson          :
          :   write xtbopt.log                true          :
          :   linear?                        false          :
          :   energy convergence         0.5000000E-05 Eh   :
          :   grad. convergence          0.1000000E-02 Eh/α :
          :   maximium RF displ.         1.0000000          :
          :   Hlow (freq-cutoff)         0.1000000E-01      :
          :   Hmax (freq-cutoff)         5.0000000          :
          :   S6 in model hess.         20.0000000          :
          ...................................................

generating ANC from model Hessian ...
Using Lindh-Hessian (1995)
 Shifting diagonal of input Hessian by   9.813185368407256E-003
 Lowest  eigenvalues of input Hessian
    0.000000    0.000000    0.000000    0.000000    0.000000    0.000000
    0.010000    0.010105    0.010208    0.011119    0.011750    0.012025
    0.012350    0.013039    0.013359    0.013550    0.014390    0.015539
 Highest eigenvalues
    2.018796    2.028910    2.137315    2.193139    2.295490    2.388945
 

........................................................................
.............................. CYCLE    1 ..............................
........................................................................
   1    -83.6868819 -0.836869E+02  0.299E-06    0.15       0.0  T
   2    -83.6868819  0.160156E-10  0.118E-05    0.15    1306.2  T
   3    -83.6868819 -0.169535E-10  0.862E-08    0.15  100000.0  T
     SCC iter.                  ...        0 min,  0.012 sec
     gradient                   ...        0 min,  0.076 sec
 * total energy  :   -82.9392706 Eh     change       -0.1457323E-09 Eh
   gradient norm :     0.1518516 Eh/α   predicted     0.0000000E+00 (-100.00%)
   displ. norm   :     0.3288194 α      lambda       -0.2591871E-01
   maximum displ.:     0.1322287 α      in ANC's #31, #26, #23, ...

........................................................................
.............................. CYCLE    2 ..............................
........................................................................
   1    -83.7107990 -0.837108E+02  0.135E-01    0.52       0.0  T
   2    -83.7123237 -0.152471E-02  0.721E-02    0.22       1.0  T
   3    -83.7125271 -0.203425E-03  0.231E-02    0.24       1.0  T
   4    -83.7124984  0.286821E-04  0.268E-02    0.20       1.0  T
   5    -83.7125412 -0.427612E-04  0.103E-02    0.22       1.5  T
   6    -83.7125399  0.126846E-05  0.494E-03    0.21       3.1  T
   7    -83.7125416 -0.166762E-05  0.804E-04    0.22      19.2  T
   8    -83.7125416 -0.351005E-07  0.289E-04    0.22      53.4  T
   9    -83.7125416 -0.172027E-08  0.103E-04    0.22     149.7  T
  10    -83.7125416 -0.642586E-09  0.239E-05    0.22     645.6  T
     SCC iter.                  ...        0 min,  0.039 sec
     gradient                   ...        0 min,  0.077 sec
 * total energy  :   -82.9588174 Eh     change       -0.1954676E-01 Eh
   gradient norm :     0.0863271 Eh/α   predicted    -0.1437943E-01 ( -26.44%)
   displ. norm   :     0.3641824 α      lambda       -0.1404500E-01
   maximum displ.:     0.1188854 α      in ANC's #23, #14, #31, ...

........................................................................
.............................. CYCLE    3 ..............................
........................................................................
   1    -83.7343371 -0.837343E+02  0.123E-01    0.67       0.0  T
   2    -83.7352510 -0.913924E-03  0.566E-02    0.52       1.0  T
   3    -83.7353489 -0.978597E-04  0.239E-02    0.52       1.0  T
   4    -83.7353507 -0.185196E-05  0.985E-03    0.50       1.6  T
   5    -83.7353509 -0.217929E-06  0.211E-03    0.49       7.3  T
   6    -83.7353511 -0.130221E-06  0.623E-04    0.49      24.7  T
   7    -83.7353511 -0.879125E-08  0.260E-04    0.49      59.3  T
   8    -83.7353511 -0.818858E-09  0.687E-05    0.49     224.7  T
   9    -83.7353511 -0.810871E-10  0.223E-05    0.49     691.2  T
     SCC iter.                  ...        0 min,  0.035 sec
     gradient                   ...        0 min,  0.076 sec
 * total energy  :   -82.9662517 Eh     change       -0.7434279E-02 Eh
   gradient norm :     0.0255584 Eh/α   predicted    -0.7955744E-02 (   7.01%)
   displ. norm   :     0.2422690 α      lambda       -0.1661017E-02
   maximum displ.:     0.1067238 α      in ANC's #3, #14, #6, ...

........................................................................
.............................. CYCLE    4 ..............................
........................................................................
   1    -83.7345229 -0.837345E+02  0.190E-02    0.49       0.0  T
   2    -83.7345344 -0.114748E-04  0.842E-03    0.49       1.8  T
   3    -83.7345357 -0.128947E-05  0.416E-03    0.50       3.7  T
   4    -83.7345357 -0.275547E-07  0.129E-03    0.50      12.0  T
   5    -83.7345357 -0.916239E-08  0.241E-04    0.50      64.1  T
   6    -83.7345357 -0.125439E-08  0.657E-05    0.50     234.8  T
   7    -83.7345357 -0.109594E-09  0.215E-05    0.50     716.7  T
     SCC iter.                  ...        0 min,  0.027 sec
     gradient                   ...        0 min,  0.079 sec
 * total energy  :   -82.9675222 Eh     change       -0.1270549E-02 Eh
   gradient norm :     0.0136904 Eh/α   predicted    -0.8792607E-03 ( -30.80%)
   displ. norm   :     0.3614049 α      lambda       -0.1382382E-02
   maximum displ.:     0.1999928 α      in ANC's #3, #6, #8, ...

........................................................................
.............................. CYCLE    5 ..............................
........................................................................
   1    -83.7356735 -0.837357E+02  0.226E-02    0.50       0.0  T
   2    -83.7356913 -0.177782E-04  0.104E-02    0.51       1.5  T
   3    -83.7356934 -0.215055E-05  0.504E-03    0.51       3.1  T
   4    -83.7356935 -0.346197E-07  0.163E-03    0.51       9.5  T
   5    -83.7356935 -0.154463E-07  0.294E-04    0.51      52.6  T
   6    -83.7356935 -0.216896E-08  0.835E-05    0.51     184.8  T
   7    -83.7356935 -0.202519E-09  0.273E-05    0.51     565.0  T
     SCC iter.                  ...        0 min,  0.028 sec
     gradient                   ...        0 min,  0.077 sec
 * total energy  :   -82.9684548 Eh     change       -0.9326243E-03 Eh
   gradient norm :     0.0073353 Eh/α   predicted    -0.7814955E-03 ( -16.20%)
   displ. norm   :     0.3007782 α      lambda       -0.5442080E-03
   maximum displ.:     0.1948045 α      in ANC's #3, #8, #6, ...

........................................................................
.............................. CYCLE    6 ..............................
........................................................................
   1    -83.7369310 -0.837369E+02  0.121E-02    0.52       0.0  T
   2    -83.7369355 -0.457498E-05  0.570E-03    0.52       2.7  T
   3    -83.7369361 -0.601544E-06  0.283E-03    0.52       5.4  T
   4    -83.7369361 -0.143288E-07  0.845E-04    0.53      18.3  T
   5    -83.7369361 -0.473948E-08  0.168E-04    0.53      91.7  T
   6    -83.7369361 -0.723901E-09  0.494E-05    0.53     312.5  T
     SCC iter.                  ...        0 min,  0.024 sec
     gradient                   ...        0 min,  0.076 sec
 * total energy  :   -82.9688729 Eh     change       -0.4181142E-03 Eh
   gradient norm :     0.0080438 Eh/α   predicted    -0.2967212E-03 ( -29.03%)
   displ. norm   :     0.3311829 α      lambda       -0.4839837E-03
   maximum displ.:     0.2278068 α      in ANC's #3, #4, #8, ...

........................................................................
.............................. CYCLE    7 ..............................
........................................................................
   1    -83.7380871 -0.837381E+02  0.923E-03    0.53       0.0  T
   2    -83.7380894 -0.235959E-05  0.448E-03    0.54       3.4  T
   3    -83.7380897 -0.286231E-06  0.236E-03    0.54       6.5  T
   4    -83.7380897 -0.124958E-07  0.668E-04    0.54      23.1  T
   5    -83.7380897 -0.445992E-08  0.139E-04    0.54     110.6  T
   6    -83.7380897 -0.536360E-09  0.414E-05    0.54     373.1  T
     SCC iter.                  ...        0 min,  0.024 sec
     gradient                   ...        0 min,  0.076 sec
 * total energy  :   -82.9692647 Eh     change       -0.3917350E-03 Eh
   gradient norm :     0.0073713 Eh/α   predicted    -0.2685481E-03 ( -31.45%)
   displ. norm   :     0.3551373 α      lambda       -0.4693996E-03
   maximum displ.:     0.2532113 α      in ANC's #3, #4, #9, ...

........................................................................
.............................. CYCLE    8 ..............................
........................................................................
   1    -83.7387819 -0.837388E+02  0.744E-03    0.54       0.0  T
   2    -83.7387838 -0.185525E-05  0.366E-03    0.55       4.2  T
   3    -83.7387840 -0.159101E-06  0.196E-03    0.55       7.9  T
   4    -83.7387840 -0.644185E-08  0.600E-04    0.55      25.7  T
   5    -83.7387840 -0.477118E-08  0.123E-04    0.55     125.9  T
   6    -83.7387840 -0.466883E-09  0.342E-05    0.55     451.5  T
     SCC iter.                  ...        0 min,  0.024 sec
     gradient                   ...        0 min,  0.077 sec
 * total energy  :   -82.9696495 Eh     change       -0.3848413E-03 Eh
   gradient norm :     0.0069326 Eh/α   predicted    -0.2643012E-03 ( -31.32%)
   displ. norm   :     0.3733370 α      lambda       -0.4436004E-03
   maximum displ.:     0.2755122 α      in ANC's #3, #4, #9, ...

........................................................................
.............................. CYCLE    9 ..............................
........................................................................
   1    -83.7389791 -0.837390E+02  0.629E-03    0.55       0.0  T
   2    -83.7389807 -0.158817E-05  0.332E-03    0.56       4.7  T
   3    -83.7389809 -0.176849E-06  0.169E-03    0.56       9.1  T
   4    -83.7389809 -0.501903E-08  0.545E-04    0.56      28.3  T
   5    -83.7389809 -0.241312E-08  0.110E-04    0.56     140.3  T
   6    -83.7389809 -0.426070E-09  0.334E-05    0.56     462.4  T
     SCC iter.                  ...        0 min,  0.020 sec
     gradient                   ...        0 min,  0.066 sec
 * total energy  :   -82.9700177 Eh     change       -0.3681768E-03 Eh
   gradient norm :     0.0074967 Eh/α   predicted    -0.2527167E-03 ( -31.36%)
   displ. norm   :     0.3815650 α      lambda       -0.4108718E-03
   maximum displ.:     0.2889299 α      in ANC's #3, #4, #9, ...

........................................................................
.............................. CYCLE   10 ..............................
........................................................................
   1    -83.7389771 -0.837390E+02  0.545E-03    0.56       0.0  T
   2    -83.7389783 -0.121651E-05  0.317E-03    0.57       4.9  T
   3    -83.7389784 -0.138551E-06  0.167E-03    0.57       9.2  T
   4    -83.7389784 -0.219140E-08  0.468E-04    0.57      33.0  T
   5    -83.7389784 -0.146359E-08  0.781E-05    0.57     197.5  T
   6    -83.7389784 -0.190454E-09  0.276E-05    0.57     559.7  T
     SCC iter.                  ...        0 min,  0.025 sec
     gradient                   ...        0 min,  0.081 sec
 * total energy  :   -82.9703561 Eh     change       -0.3384053E-03 Eh
   gradient norm :     0.0073064 Eh/α   predicted    -0.2353501E-03 ( -30.45%)
   displ. norm   :     0.3415076 α      lambda       -0.3417796E-03
   maximum displ.:     0.2681321 α      in ANC's #3, #4, #17, ...

........................................................................
.............................. CYCLE   11 ..............................
........................................................................
   1    -83.7392510 -0.837393E+02  0.579E-03    0.57       0.0  T
   2    -83.7392522 -0.125183E-05  0.316E-03    0.58       4.9  T
   3    -83.7392524 -0.133547E-06  0.163E-03    0.58       9.5  T
   4    -83.7392524 -0.129035E-08  0.512E-04    0.58      30.1  T
   5    -83.7392524 -0.170560E-08  0.606E-05    0.58     254.4  T
   6    -83.7392524 -0.110205E-09  0.211E-05    0.58     732.8  T
     SCC iter.                  ...        0 min,  0.026 sec
     gradient                   ...        0 min,  0.081 sec
 * total energy  :   -82.9706410 Eh     change       -0.2849458E-03 Eh
   gradient norm :     0.0056878 Eh/α   predicted    -0.1908260E-03 ( -33.03%)
   displ. norm   :     0.3244483 α      lambda       -0.3001824E-03
   maximum displ.:     0.2607730 α      in ANC's #3, #4, #17, ...

........................................................................
.............................. CYCLE   12 ..............................
........................................................................
   1    -83.7393871 -0.837394E+02  0.602E-03    0.59       0.0  T
   2    -83.7393884 -0.135801E-05  0.289E-03    0.59       5.3  T
   3    -83.7393886 -0.163454E-06  0.142E-03    0.59      10.9  T
   4    -83.7393886 -0.262342E-08  0.502E-04    0.59      30.7  T
   5    -83.7393886 -0.192074E-08  0.100E-04    0.59     154.3  T
   6    -83.7393886 -0.270674E-09  0.241E-05    0.59     639.0  T
     SCC iter.                  ...        0 min,  0.025 sec
     gradient                   ...        0 min,  0.081 sec
 * total energy  :   -82.9708943 Eh     change       -0.2532912E-03 Eh
   gradient norm :     0.0042063 Eh/α   predicted    -0.1658949E-03 ( -34.50%)
   displ. norm   :     0.3219389 α      lambda       -0.2635549E-03
   maximum displ.:     0.2645696 α      in ANC's #3, #4, #17, ...

........................................................................
.............................. CYCLE   13 ..............................
........................................................................
   1    -83.7396349 -0.837396E+02  0.547E-03    0.60       0.0  T
   2    -83.7396360 -0.109583E-05  0.234E-03    0.60       6.6  T
   3    -83.7396361 -0.864908E-07  0.113E-03    0.60      13.6  T
   4    -83.7396361 -0.271423E-08  0.425E-04    0.60      36.3  T
   5    -83.7396361 -0.159544E-08  0.102E-04    0.60     151.5  T
   6    -83.7396361 -0.289319E-09  0.262E-05    0.60     587.8  T
     SCC iter.                  ...        0 min,  0.025 sec
     gradient                   ...        0 min,  0.081 sec
 * total energy  :   -82.9711154 Eh     change       -0.2210730E-03 Eh
   gradient norm :     0.0039278 Eh/α   predicted    -0.1454372E-03 ( -34.21%)
   displ. norm   :     0.3221031 α      lambda       -0.2159853E-03
   maximum displ.:     0.2644646 α      in ANC's #3, #4, #17, ...

........................................................................
.............................. CYCLE   14 ..............................
........................................................................
   1    -83.7392513 -0.837393E+02  0.435E-03    0.61       0.0  T
   2    -83.7392518 -0.589754E-06  0.216E-03    0.61       7.2  T
   3    -83.7392519 -0.103905E-06  0.106E-03    0.61      14.5  T
   4    -83.7392520 -0.518484E-08  0.271E-04    0.61      56.9  T
   5    -83.7392520 -0.587548E-09  0.884E-05    0.61     174.5  T
   6    -83.7392520 -0.182609E-09  0.237E-05    0.61     649.9  T
     SCC iter.                  ...        0 min,  0.025 sec
     gradient                   ...        0 min,  0.080 sec
 * total energy  :   -82.9712992 Eh     change       -0.1838156E-03 Eh
   gradient norm :     0.0042111 Eh/α   predicted    -0.1191973E-03 ( -35.15%)
   displ. norm   :     0.3160624 α      lambda       -0.2008194E-03
   maximum displ.:     0.2636385 α      in ANC's #3, #1, #4, ...

........................................................................
.............................. CYCLE   15 ..............................
........................................................................
   1    -83.7406029 -0.837406E+02  0.479E-03    0.61       0.0  T
   2    -83.7406035 -0.572402E-06  0.229E-03    0.62       6.7  T
   3    -83.7406036 -0.557154E-07  0.119E-03    0.62      12.9  T
   4    -83.7406036 -0.497958E-08  0.291E-04    0.62      53.0  T
   5    -83.7406036 -0.755449E-09  0.815E-05    0.62     189.4  T
   6    -83.7406036 -0.923706E-10  0.190E-05    0.62     810.3  T
     SCC iter.                  ...        0 min,  0.025 sec
     gradient                   ...        0 min,  0.080 sec
 * total energy  :   -82.9714624 Eh     change       -0.1631800E-03 Eh
   gradient norm :     0.0043806 Eh/α   predicted    -0.1104451E-03 ( -32.32%)
   displ. norm   :     0.3674290 α      lambda       -0.2078371E-03
   maximum displ.:     0.2990294 α      in ANC's #3, #1, #4, ...

........................................................................
.............................. CYCLE   16 ..............................
........................................................................
   1    -83.7391227 -0.837391E+02  0.698E-03    0.62       0.0  T
   2    -83.7391238 -0.116311E-05  0.339E-03    0.63       4.6  T
   3    -83.7391240 -0.133554E-06  0.179E-03    0.63       8.6  T
   4    -83.7391240 -0.113073E-07  0.436E-04    0.63      35.4  T
   5    -83.7391240 -0.241498E-08  0.126E-04    0.63     122.5  T
   6    -83.7391240 -0.277382E-09  0.313E-05    0.63     492.8  T
     SCC iter.                  ...        0 min,  0.025 sec
     gradient                   ...        0 min,  0.081 sec
 * total energy  :   -82.9716257 Eh     change       -0.1633095E-03 Eh
   gradient norm :     0.0042899 Eh/α   predicted    -0.1179485E-03 ( -27.78%)
   displ. norm   :     0.3710840 α      lambda       -0.1955075E-03
   maximum displ.:     0.3077720 α      in ANC's #3, #1, #13, ...

........................................................................
.............................. CYCLE   17 ..............................
........................................................................
   1    -83.7397190 -0.837397E+02  0.546E-03    0.64       0.0  T
   2    -83.7397201 -0.110673E-05  0.241E-03    0.64       6.4  T
   3    -83.7397202 -0.106782E-06  0.113E-03    0.64      13.6  T
   4    -83.7397202 -0.506684E-08  0.418E-04    0.64      36.9  T
   5    -83.7397202 -0.162636E-08  0.112E-04    0.64     137.4  T
   6    -83.7397202 -0.139281E-09  0.242E-05    0.64     637.5  T
     SCC iter.                  ...        0 min,  0.025 sec
     gradient                   ...        0 min,  0.080 sec
 * total energy  :   -82.9717878 Eh     change       -0.1621342E-03 Eh
   gradient norm :     0.0037328 Eh/α   predicted    -0.1112200E-03 ( -31.40%)
   displ. norm   :     0.4356502 α      lambda       -0.2056438E-03
   maximum displ.:     0.3618826 α      in ANC's #3, #1, #13, ...

........................................................................
.............................. CYCLE   18 ..............................
........................................................................
   1    -83.7407065 -0.837407E+02  0.714E-03    0.65       0.0  T
   2    -83.7407090 -0.245285E-05  0.364E-03    0.66       4.2  T
   3    -83.7407094 -0.440332E-06  0.161E-03    0.66       9.6  T
   4    -83.7407094 -0.153709E-07  0.660E-04    0.66      23.4  T
   5    -83.7407094 -0.125449E-08  0.158E-04    0.66      97.7  T
   6    -83.7407094 -0.452090E-09  0.415E-05    0.66     372.2  T
     SCC iter.                  ...        0 min,  0.025 sec
     gradient                   ...        0 min,  0.081 sec
 * total energy  :   -82.9719482 Eh     change       -0.1603238E-03 Eh
   gradient norm :     0.0044657 Eh/α   predicted    -0.1223398E-03 ( -23.69%)
   displ. norm   :     0.4856356 α      lambda       -0.2047238E-03
   maximum displ.:     0.4004784 α      in ANC's #3, #1, #13, ...

........................................................................
.............................. CYCLE   19 ..............................
........................................................................
   1    -83.7401812 -0.837402E+02  0.889E-03    0.68       0.0  T
   2    -83.7401843 -0.301463E-05  0.323E-03    0.68       4.8  T
   3    -83.7401844 -0.141583E-06  0.163E-03    0.68       9.5  T
   4    -83.7401844 -0.397574E-08  0.623E-04    0.68      24.7  T
   5    -83.7401844 -0.508116E-08  0.140E-04    0.68     110.1  T
   6    -83.7401844 -0.243418E-09  0.447E-05    0.68     345.0  T
     SCC iter.                  ...        0 min,  0.025 sec
     gradient                   ...        0 min,  0.081 sec
 * total energy  :   -82.9720929 Eh     change       -0.1447168E-03 Eh
   gradient norm :     0.0058675 Eh/α   predicted    -0.1265061E-03 ( -12.58%)
   displ. norm   :     0.3767190 α      lambda       -0.1633130E-03
   maximum displ.:     0.3032078 α      in ANC's #3, #1, #13, ...

........................................................................
.............................. CYCLE   20 ..............................
........................................................................
   1    -83.7425186 -0.837425E+02  0.975E-03    0.69       0.0  T
   2    -83.7425230 -0.446625E-05  0.451E-03    0.69       3.4  T
   3    -83.7425237 -0.647166E-06  0.202E-03    0.69       7.6  T
   4    -83.7425237 -0.130609E-07  0.886E-04    0.70      17.4  T
   5    -83.7425237 -0.467040E-08  0.132E-04    0.70     116.9  T
   6    -83.7425237 -0.470024E-09  0.502E-05    0.70     307.1  T
     SCC iter.                  ...        0 min,  0.025 sec
     gradient                   ...        0 min,  0.080 sec
 * total energy  :   -82.9722003 Eh     change       -0.1073749E-03 Eh
   gradient norm :     0.0046323 Eh/α   predicted    -0.9324945E-04 ( -13.16%)
   displ. norm   :     0.3779833 α      lambda       -0.1282362E-03
   maximum displ.:     0.2934456 α      in ANC's #3, #1, #13, ...
 * RMSD in coord.:     0.9054000 α      energy gain  -0.3292965E-01 Eh

generating ANC from model Hessian ...
Using Lindh-Hessian (1995)
 Shifting diagonal of input Hessian by   9.765859329703277E-003
 Lowest  eigenvalues of input Hessian
    0.000000    0.000000    0.000000    0.000000    0.000000    0.000000
    0.010000    0.010119    0.010431    0.011346    0.011626    0.012333
    0.012799    0.013371    0.014057    0.014096    0.014460    0.016610
 Highest eigenvalues
    2.069934    2.164925    2.246618    2.300730    2.366521    2.379183
 

........................................................................
.............................. CYCLE   21 ..............................
........................................................................
   1    -83.7404370 -0.837404E+02  0.769E-03    0.71       0.0  T
   2    -83.7404397 -0.265078E-05  0.345E-03    0.71       4.5  T
   3    -83.7404399 -0.193081E-06  0.177E-03    0.71       8.7  T
   4    -83.7404399 -0.553885E-08  0.728E-04    0.71      21.2  T
   5    -83.7404399 -0.383734E-08  0.141E-04    0.71     109.8  T
   6    -83.7404399 -0.628134E-09  0.335E-05    0.71     460.9  T
     SCC iter.                  ...        0 min,  0.025 sec
     gradient                   ...        0 min,  0.081 sec
 * total energy  :   -82.9722845 Eh     change       -0.8419328E-04 Eh
   gradient norm :     0.0060625 Eh/α   predicted     0.0000000E+00 (-100.00%)
   displ. norm   :     0.0560102 α      lambda       -0.6205200E-04
   maximum displ.:     0.0336466 α      in ANC's #17, #1, #4, ...

........................................................................
.............................. CYCLE   22 ..............................
........................................................................
   1    -83.7412187 -0.837412E+02  0.491E-03    0.71       0.0  T
   2    -83.7412197 -0.981573E-06  0.237E-03    0.71       6.5  T
   3    -83.7412197 -0.755185E-07  0.128E-03    0.71      12.1  T
   4    -83.7412197 -0.276900E-08  0.468E-04    0.71      33.0  T
   5    -83.7412197 -0.209302E-08  0.772E-05    0.71     199.9  T
   6    -83.7412197 -0.209297E-09  0.188E-05    0.71     822.7  T
     SCC iter.                  ...        0 min,  0.025 sec
     gradient                   ...        0 min,  0.080 sec
 * total energy  :   -82.9723564 Eh     change       -0.7190376E-04 Eh
   gradient norm :     0.0022607 Eh/α   predicted    -0.4508855E-04 ( -37.29%)
   displ. norm   :     0.1616297 α      lambda       -0.1510810E-03
   maximum displ.:     0.1002016 α      in ANC's #17, #1, #4, ...

........................................................................
.............................. CYCLE   23 ..............................
........................................................................
   1    -83.7418798 -0.837419E+02  0.775E-03    0.71       0.0  T
   2    -83.7418821 -0.231223E-05  0.370E-03    0.70       4.2  T
   3    -83.7418823 -0.216474E-06  0.192E-03    0.70       8.0  T
   4    -83.7418823 -0.813831E-08  0.708E-04    0.70      21.8  T
   5    -83.7418823 -0.448131E-08  0.132E-04    0.70     117.2  T
   6    -83.7418823 -0.474955E-09  0.295E-05    0.70     523.2  T
     SCC iter.                  ...        0 min,  0.025 sec
     gradient                   ...        0 min,  0.081 sec
 * total energy  :   -82.9724564 Eh     change       -0.1000310E-03 Eh
   gradient norm :     0.0047571 Eh/α   predicted    -0.7752018E-04 ( -22.50%)
   displ. norm   :     0.1434587 α      lambda       -0.7939550E-04
   maximum displ.:     0.0839371 α      in ANC's #17, #1, #4, ...

........................................................................
.............................. CYCLE   24 ..............................
........................................................................
   1    -83.7417075 -0.837417E+02  0.295E-03    0.70       0.0  T
   2    -83.7417077 -0.259537E-06  0.128E-03    0.70      12.0  T
   3    -83.7417078 -0.281224E-07  0.663E-04    0.70      23.3  T
   4    -83.7417078 -0.185193E-08  0.239E-04    0.70      64.5  T
   5    -83.7417078 -0.589296E-09  0.598E-05    0.70     258.0  T
   6    -83.7417078 -0.556355E-10  0.137E-05    0.70    1123.5  T
     SCC iter.                  ...        0 min,  0.025 sec
     gradient                   ...        0 min,  0.081 sec
 * total energy  :   -82.9725174 Eh     change       -0.6097740E-04 Eh
   gradient norm :     0.0055350 Eh/α   predicted    -0.4051539E-04 ( -33.56%)
   displ. norm   :     0.1877172 α      lambda       -0.1009486E-03
   maximum displ.:     0.1113255 α      in ANC's #1, #17, #4, ...

........................................................................
.............................. CYCLE   25 ..............................
........................................................................
   1    -83.7413178 -0.837413E+02  0.309E-03    0.70       0.0  T
   2    -83.7413181 -0.309103E-06  0.133E-03    0.70      11.6  T
   3    -83.7413181 -0.856649E-08  0.751E-04    0.70      20.5  T
   4    -83.7413181 -0.778371E-09  0.195E-04    0.69      79.2  T
   5    -83.7413181 -0.545100E-09  0.522E-05    0.69     295.7  T
     SCC iter.                  ...        0 min,  0.022 sec
     gradient                   ...        0 min,  0.080 sec
 * total energy  :   -82.9725927 Eh     change       -0.7532715E-04 Eh
   gradient norm :     0.0039251 Eh/α   predicted    -0.5226138E-04 ( -30.62%)
   displ. norm   :     0.1663110 α      lambda       -0.7835576E-04
   maximum displ.:     0.1095599 α      in ANC's #1, #17, #4, ...

........................................................................
.............................. CYCLE   26 ..............................
........................................................................
   1    -83.7412617 -0.837413E+02  0.390E-03    0.69       0.0  T
   2    -83.7412622 -0.580502E-06  0.195E-03    0.69       7.9  T
   3    -83.7412623 -0.351478E-07  0.105E-03    0.69      14.7  T
   4    -83.7412623 -0.239343E-08  0.399E-04    0.69      38.7  T
   5    -83.7412623 -0.176877E-08  0.668E-05    0.69     231.1  T
   6    -83.7412623 -0.111882E-09  0.238E-05    0.69     648.9  T
     SCC iter.                  ...        0 min,  0.025 sec
     gradient                   ...        0 min,  0.080 sec
 * total energy  :   -82.9726497 Eh     change       -0.5703660E-04 Eh
   gradient norm :     0.0021674 Eh/α   predicted    -0.4026303E-04 ( -29.41%)
   displ. norm   :     0.1478146 α      lambda       -0.5085762E-04
   maximum displ.:     0.1018030 α      in ANC's #1, #17, #5, ...

........................................................................
.............................. CYCLE   27 ..............................
........................................................................
   1    -83.7413013 -0.837413E+02  0.244E-03    0.69       0.0  T
   2    -83.7413016 -0.273217E-06  0.125E-03    0.69      12.4  T
   3    -83.7413016 -0.280943E-07  0.602E-04    0.69      25.6  T
   4    -83.7413016 -0.119799E-08  0.264E-04    0.69      58.5  T
   5    -83.7413016 -0.425189E-09  0.473E-05    0.69     326.1  T
   6    -83.7413016 -0.511591E-10  0.157E-05    0.69     981.7  T
     SCC iter.                  ...        0 min,  0.024 sec
     gradient                   ...        0 min,  0.080 sec
 * total energy  :   -82.9726910 Eh     change       -0.4127656E-04 Eh
   gradient norm :     0.0024495 Eh/α   predicted    -0.2598492E-04 ( -37.05%)
   displ. norm   :     0.1800750 α      lambda       -0.5830311E-04
   maximum displ.:     0.1239811 α      in ANC's #1, #5, #17, ...

........................................................................
.............................. CYCLE   28 ..............................
........................................................................
   1    -83.7413432 -0.837413E+02  0.238E-03    0.69       0.0  T
   2    -83.7413434 -0.203395E-06  0.113E-03    0.69      13.6  T
   3    -83.7413434 -0.210188E-07  0.544E-04    0.69      28.4  T
   4    -83.7413434 -0.106776E-08  0.212E-04    0.69      72.6  T
   5    -83.7413434 -0.353353E-09  0.492E-05    0.68     313.4  T
   6    -83.7413434 -0.509743E-10  0.137E-05    0.68    1124.5  T
     SCC iter.                  ...        0 min,  0.025 sec
     gradient                   ...        0 min,  0.080 sec
 * total energy  :   -82.9727392 Eh     change       -0.4814830E-04 Eh
   gradient norm :     0.0028564 Eh/α   predicted    -0.3009790E-04 ( -37.49%)
   displ. norm   :     0.2223937 α      lambda       -0.6470742E-04
   maximum displ.:     0.1533978 α      in ANC's #1, #5, #17, ...

........................................................................
.............................. CYCLE   29 ..............................
........................................................................
   1    -83.7412082 -0.837412E+02  0.238E-03    0.68       0.0  T
   2    -83.7412083 -0.123154E-06  0.108E-03    0.68      14.3  T
   3    -83.7412084 -0.101281E-07  0.569E-04    0.68      27.1  T
   4    -83.7412084 -0.147371E-08  0.167E-04    0.68      92.2  T
   5    -83.7412084 -0.356863E-09  0.441E-05    0.68     349.9  T
     SCC iter.                  ...        0 min,  0.021 sec
     gradient                   ...        0 min,  0.081 sec
 * total energy  :   -82.9727901 Eh     change       -0.5094793E-04 Eh
   gradient norm :     0.0028773 Eh/α   predicted    -0.3395570E-04 ( -33.35%)
   displ. norm   :     0.1891162 α      lambda       -0.5064489E-04
   maximum displ.:     0.1334046 α      in ANC's #1, #5, #8, ...

........................................................................
.............................. CYCLE   30 ..............................
........................................................................
   1    -83.7416418 -0.837416E+02  0.223E-03    0.69       0.0  T
   2    -83.7416419 -0.156034E-06  0.106E-03    0.69      14.6  T
   3    -83.7416419 -0.658898E-08  0.566E-04    0.69      27.3  T
   4    -83.7416419 -0.387431E-09  0.183E-04    0.69      84.5  T
   5    -83.7416419 -0.440181E-09  0.316E-05    0.69     488.2  T
     SCC iter.                  ...        0 min,  0.021 sec
     gradient                   ...        0 min,  0.080 sec
 * total energy  :   -82.9728285 Eh     change       -0.3838231E-04 Eh
   gradient norm :     0.0025476 Eh/α   predicted    -0.2623212E-04 ( -31.66%)
   displ. norm   :     0.1627712 α      lambda       -0.3726558E-04
   maximum displ.:     0.1164942 α      in ANC's #1, #5, #17, ...

........................................................................
.............................. CYCLE   31 ..............................
........................................................................
   1    -83.7413780 -0.837414E+02  0.245E-03    0.69       0.0  T
   2    -83.7413781 -0.175943E-06  0.115E-03    0.69      13.4  T
   3    -83.7413782 -0.102715E-07  0.577E-04    0.69      26.7  T
   4    -83.7413782 -0.129631E-08  0.204E-04    0.69      75.7  T
   5    -83.7413782 -0.351378E-09  0.411E-05    0.69     375.8  T
   6    -83.7413782 -0.362803E-10  0.131E-05    0.69    1174.4  T
     SCC iter.                  ...        0 min,  0.025 sec
     gradient                   ...        0 min,  0.080 sec
 * total energy  :   -82.9728571 Eh     change       -0.2859578E-04 Eh
   gradient norm :     0.0015876 Eh/α   predicted    -0.1913321E-04 ( -33.09%)
   displ. norm   :     0.2164956 α      lambda       -0.3844055E-04
   maximum displ.:     0.1556783 α      in ANC's #1, #5, #8, ...

........................................................................
.............................. CYCLE   32 ..............................
........................................................................
   1    -83.7430043 -0.837430E+02  0.429E-03    0.70       0.0  T
   2    -83.7430050 -0.631386E-06  0.199E-03    0.70       7.8  T
   3    -83.7430050 -0.371328E-07  0.102E-03    0.70      15.1  T
   4    -83.7430050 -0.296002E-08  0.361E-04    0.70      42.7  T
   5    -83.7430050 -0.840316E-09  0.787E-05    0.70     196.1  T
   6    -83.7430050 -0.173557E-09  0.236E-05    0.70     653.8  T
     SCC iter.                  ...        0 min,  0.025 sec
     gradient                   ...        0 min,  0.080 sec
 * total energy  :   -82.9728879 Eh     change       -0.3086541E-04 Eh
   gradient norm :     0.0030524 Eh/α   predicted    -0.1962195E-04 ( -36.43%)
   displ. norm   :     0.0986219 α      lambda       -0.2802356E-04
   maximum displ.:     0.0735289 α      in ANC's #1, #5, #13, ...

........................................................................
.............................. CYCLE   33 ..............................
........................................................................
   1    -83.7421935 -0.837422E+02  0.224E-03    0.70       0.0  T
   2    -83.7421936 -0.416832E-07  0.117E-03    0.70      13.2  T
   3    -83.7421936 -0.921659E-09  0.490E-04    0.70      31.5  T
   4    -83.7421936 -0.259533E-08  0.114E-04    0.70     135.2  T
   5    -83.7421936 -0.169720E-09  0.293E-05    0.70     527.4  T
     SCC iter.                  ...        0 min,  0.021 sec
     gradient                   ...        0 min,  0.080 sec
 * total energy  :   -82.9729102 Eh     change       -0.2223518E-04 Eh
   gradient norm :     0.0022603 Eh/α   predicted    -0.1414961E-04 ( -36.36%)
   displ. norm   :     0.1096863 α      lambda       -0.3656334E-04
   maximum displ.:     0.0798676 α      in ANC's #1, #5, #2, ...

........................................................................
.............................. CYCLE   34 ..............................
........................................................................
   1    -83.7418798 -0.837419E+02  0.229E-03    0.69       0.0  T
   2    -83.7418799 -0.108512E-06  0.113E-03    0.69      13.6  T
   3    -83.7418799 -0.423583E-08  0.584E-04    0.69      26.4  T
   4    -83.7418799 -0.653955E-09  0.150E-04    0.69     102.8  T
   5    -83.7418799 -0.330431E-09  0.252E-05    0.69     612.7  T
     SCC iter.                  ...        0 min,  0.021 sec
     gradient                   ...        0 min,  0.080 sec
 * total energy  :   -82.9729408 Eh     change       -0.3059234E-04 Eh
   gradient norm :     0.0017961 Eh/α   predicted    -0.1850206E-04 ( -39.52%)
   displ. norm   :     0.2812094 α      lambda       -0.5603833E-04
   maximum displ.:     0.1936822 α      in ANC's #1, #2, #13, ...

........................................................................
.............................. CYCLE   35 ..............................
........................................................................
   1    -83.7410733 -0.837411E+02  0.458E-03    0.69       0.0  T
   2    -83.7410739 -0.621037E-06  0.202E-03    0.69       7.6  T
   3    -83.7410739 -0.269928E-07  0.110E-03    0.69      14.1  T
   4    -83.7410739 -0.130417E-08  0.336E-04    0.69      45.9  T
   5    -83.7410739 -0.145765E-08  0.496E-05    0.69     311.1  T
   6    -83.7410739 -0.277822E-10  0.167E-05    0.69     926.4  T
     SCC iter.                  ...        0 min,  0.025 sec
     gradient                   ...        0 min,  0.080 sec
 * total energy  :   -82.9729961 Eh     change       -0.5529546E-04 Eh
   gradient norm :     0.0028926 Eh/α   predicted    -0.2900626E-04 ( -47.54%)
   displ. norm   :     0.1181002 α      lambda       -0.3238410E-04
   maximum displ.:     0.0835346 α      in ANC's #1, #2, #4, ...

........................................................................
.............................. CYCLE   36 ..............................
........................................................................
   1    -83.7415203 -0.837415E+02  0.137E-03    0.69       0.0  T
   2    -83.7415203 -0.238589E-07  0.672E-04    0.69      23.0  T
   3    -83.7415203 -0.135425E-08  0.347E-04    0.69      44.5  T
   4    -83.7415203 -0.535707E-09  0.695E-05    0.69     221.9  T
   5    -83.7415203 -0.688232E-10  0.164E-05    0.69     942.2  T
     SCC iter.                  ...        0 min,  0.021 sec
     gradient                   ...        0 min,  0.060 sec
 * total energy  :   -82.9730245 Eh     change       -0.2842191E-04 Eh
   gradient norm :     0.0025884 Eh/α   predicted    -0.1642039E-04 ( -42.23%)
   displ. norm   :     0.2446401 α      lambda       -0.6756146E-04
   maximum displ.:     0.1750824 α      in ANC's #1, #2, #3, ...

........................................................................
.............................. CYCLE   37 ..............................
........................................................................
   1    -83.7417206 -0.837417E+02  0.186E-03    0.69       0.0  T
   2    -83.7417207 -0.965912E-07  0.944E-04    0.69      16.3  T
   3    -83.7417207 -0.533971E-08  0.482E-04    0.69      32.0  T
   4    -83.7417208 -0.644803E-09  0.146E-04    0.69     105.4  T
   5    -83.7417208 -0.135188E-09  0.248E-05    0.69     621.9  T
     SCC iter.                  ...        0 min,  0.022 sec
     gradient                   ...        0 min,  0.082 sec
 * total energy  :   -82.9730806 Eh     change       -0.5614675E-04 Eh
   gradient norm :     0.0022224 Eh/α   predicted    -0.3580294E-04 ( -36.23%)
   displ. norm   :     0.2806570 α      lambda       -0.6360674E-04
   maximum displ.:     0.2070529 α      in ANC's #1, #2, #4, ...

........................................................................
.............................. CYCLE   38 ..............................
........................................................................
   1    -83.7416271 -0.837416E+02  0.207E-03    0.69       0.0  T
   2    -83.7416272 -0.140183E-06  0.107E-03    0.69      14.5  T
   3    -83.7416272 -0.826383E-08  0.557E-04    0.69      27.7  T
   4    -83.7416272 -0.445525E-09  0.182E-04    0.69      84.8  T
   5    -83.7416272 -0.356266E-09  0.370E-05    0.69     417.0  T
     SCC iter.                  ...        0 min,  0.017 sec
     gradient                   ...        0 min,  0.071 sec
 * total energy  :   -82.9731303 Eh     change       -0.4970516E-04 Eh
   gradient norm :     0.0019915 Eh/α   predicted    -0.3431063E-04 ( -30.97%)
   displ. norm   :     0.3106215 α      lambda       -0.3800264E-04
   maximum displ.:     0.2407204 α      in ANC's #1, #2, #3, ...

........................................................................
.............................. CYCLE   39 ..............................
........................................................................
   1    -83.7417293 -0.837417E+02  0.327E-03    0.70       0.0  T
   2    -83.7417296 -0.298779E-06  0.142E-03    0.70      10.8  T
   3    -83.7417296 -0.185500E-07  0.779E-04    0.70      19.8  T
   4    -83.7417296 -0.171700E-08  0.216E-04    0.70      71.4  T
   5    -83.7417296 -0.697256E-09  0.482E-05    0.70     320.4  T
   6    -83.7417296 -0.333671E-10  0.179E-05    0.70     862.5  T
     SCC iter.                  ...        0 min,  0.025 sec
     gradient                   ...        0 min,  0.079 sec
 * total energy  :   -82.9731703 Eh     change       -0.3992009E-04 Eh
   gradient norm :     0.0016969 Eh/α   predicted    -0.1981808E-04 ( -50.36%)
   displ. norm   :     0.1671394 α      lambda       -0.2185236E-04
   maximum displ.:     0.1382068 α      in ANC's #1, #2, #3, ...

........................................................................
.............................. CYCLE   40 ..............................
........................................................................
   1    -83.7419811 -0.837420E+02  0.279E-03    0.70       0.0  T
   2    -83.7419812 -0.881567E-07  0.142E-03    0.70      10.9  T
   3    -83.7419812 -0.941284E-08  0.754E-04    0.70      20.5  T
   4    -83.7419812 -0.360507E-08  0.121E-04    0.70     127.4  T
   5    -83.7419812 -0.178787E-09  0.412E-05    0.70     374.3  T
     SCC iter.                  ...        0 min,  0.021 sec
     gradient                   ...        0 min,  0.079 sec
 * total energy  :   -82.9731910 Eh     change       -0.2075568E-04 Eh
   gradient norm :     0.0019076 Eh/α   predicted    -0.1106440E-04 ( -46.69%)
   displ. norm   :     0.1116404 α      lambda       -0.1922603E-04
   maximum displ.:     0.0951812 α      in ANC's #1, #17, #5, ...

........................................................................
.............................. CYCLE   41 ..............................
........................................................................
   1    -83.7424489 -0.837424E+02  0.236E-03    0.70       0.0  T
   2    -83.7424490 -0.837480E-07  0.125E-03    0.70      12.3  T
   3    -83.7424490 -0.779474E-08  0.683E-04    0.70      22.6  T
   4    -83.7424490 -0.135400E-08  0.876E-05    0.70     176.2  T
   5    -83.7424490 -0.130484E-09  0.217E-05    0.70     712.6  T
     SCC iter.                  ...        0 min,  0.020 sec
     gradient                   ...        0 min,  0.080 sec
 * total energy  :   -82.9732134 Eh     change       -0.2240019E-04 Eh
   gradient norm :     0.0014183 Eh/α   predicted    -0.9671241E-05 ( -56.83%)
   displ. norm   :     0.1372725 α      lambda       -0.1976886E-04
   maximum displ.:     0.1146938 α      in ANC's #1, #17, #5, ...

........................................................................
.............................. CYCLE   42 ..............................
........................................................................
   1    -83.7421329 -0.837421E+02  0.215E-03    0.70       0.0  T
   2    -83.7421331 -0.222903E-06  0.103E-03    0.70      15.0  T
   3    -83.7421332 -0.270201E-07  0.502E-04    0.70      30.7  T
   4    -83.7421332 -0.214769E-09  0.200E-04    0.70      77.1  T
   5    -83.7421332 -0.384205E-09  0.289E-05    0.70     533.5  T
   6    -83.7421332 -0.125908E-10  0.812E-06    0.70    1899.6  T
     SCC iter.                  ...        0 min,  0.024 sec
     gradient                   ...        0 min,  0.080 sec
 * total energy  :   -82.9732362 Eh     change       -0.2280143E-04 Eh
   gradient norm :     0.0016912 Eh/α   predicted    -0.9969187E-05 ( -56.28%)
   displ. norm   :     0.1442317 α      lambda       -0.2067891E-04
   maximum displ.:     0.1204686 α      in ANC's #1, #17, #15, ...
 * RMSD in coord.:     0.5014782 α      energy gain  -0.1035960E-02 Eh

generating ANC from model Hessian ...
Using Lindh-Hessian (1995)
 Shifting diagonal of input Hessian by   9.748480464288927E-003
 Lowest  eigenvalues of input Hessian
    0.000000    0.000000    0.000000    0.000000    0.000000    0.000000
    0.010000    0.010105    0.010384    0.011341    0.011578    0.012355
    0.012662    0.013414    0.014069    0.014098    0.014427    0.016985
 Highest eigenvalues
    2.069364    2.163944    2.244209    2.306009    2.365668    2.386844
 

........................................................................
.............................. CYCLE   43 ..............................
........................................................................
   1    -83.7424582 -0.837425E+02  0.257E-03    0.70       0.0  T
   2    -83.7424583 -0.167995E-06  0.112E-03    0.70      13.8  T
   3    -83.7424583 -0.671504E-08  0.598E-04    0.70      25.8  T
   4    -83.7424583 -0.522675E-09  0.142E-04    0.70     108.8  T
   5    -83.7424583 -0.344741E-09  0.351E-05    0.70     439.2  T
     SCC iter.                  ...        0 min,  0.020 sec
     gradient                   ...        0 min,  0.080 sec
 * total energy  :   -82.9732571 Eh     change       -0.2092178E-04 Eh
   gradient norm :     0.0017969 Eh/α   predicted     0.0000000E+00 (-100.00%)
   displ. norm   :     0.0284369 α      lambda       -0.9952131E-05
   maximum displ.:     0.0226753 α      in ANC's #1, #11, #14, ...

........................................................................
.............................. CYCLE   44 ..............................
........................................................................
   1    -83.7422534 -0.837423E+02  0.221E-03    0.70       0.0  T
   2    -83.7422534 -0.534500E-07  0.113E-03    0.70      13.7  T
   3    -83.7422534 -0.294965E-08  0.586E-04    0.70      26.3  T
   4    -83.7422534 -0.119860E-08  0.808E-05    0.70     190.9  T
   5    -83.7422534 -0.995328E-10  0.159E-05    0.70     972.8  T
     SCC iter.                  ...        0 min,  0.020 sec
     gradient                   ...        0 min,  0.078 sec
 * total energy  :   -82.9732671 Eh     change       -0.9967811E-05 Eh
   gradient norm :     0.0006904 Eh/α   predicted    -0.4983695E-05 ( -50.00%)
   displ. norm   :     0.0420160 α      lambda       -0.6361780E-05
   maximum displ.:     0.0345571 α      in ANC's #1, #11, #2, ...

........................................................................
.............................. CYCLE   45 ..............................
........................................................................
   1    -83.7421690 -0.837422E+02  0.139E-03    0.70       0.0  T
   2    -83.7421691 -0.554158E-07  0.620E-04    0.70      24.9  T
   3    -83.7421691 -0.605922E-08  0.332E-04    0.70      46.4  T
   4    -83.7421691 -0.115492E-09  0.914E-05    0.70     168.9  T
   5    -83.7421691 -0.105530E-09  0.191E-05    0.70     808.7  T
     SCC iter.                  ...        0 min,  0.020 sec
     gradient                   ...        0 min,  0.078 sec
 * total energy  :   -82.9732746 Eh     change       -0.7472401E-05 Eh
   gradient norm :     0.0007280 Eh/α   predicted    -0.3216598E-05 ( -56.95%)
   displ. norm   :     0.0499441 α      lambda       -0.5848423E-05
   maximum displ.:     0.0411805 α      in ANC's #1, #11, #2, ...

........................................................................
.............................. CYCLE   46 ..............................
........................................................................
   1    -83.7421687 -0.837422E+02  0.109E-03    0.70       0.0  T
   2    -83.7421687 -0.330564E-07  0.458E-04    0.70      33.7  T
   3    -83.7421687 -0.464425E-08  0.240E-04    0.70      64.2  T
   4    -83.7421687 -0.166580E-09  0.680E-05    0.70     226.9  T
   5    -83.7421687 -0.495106E-10  0.197E-05    0.70     782.8  T
     SCC iter.                  ...        0 min,  0.019 sec
     gradient                   ...        0 min,  0.079 sec
 * total energy  :   -82.9732815 Eh     change       -0.6939145E-05 Eh
   gradient norm :     0.0007728 Eh/α   predicted    -0.2938076E-05 ( -57.66%)
   displ. norm   :     0.0511977 α      lambda       -0.5264354E-05
   maximum displ.:     0.0420145 α      in ANC's #1, #11, #2, ...

........................................................................
.............................. CYCLE   47 ..............................
........................................................................
   1    -83.7422112 -0.837422E+02  0.588E-04    0.70       0.0  T
   2    -83.7422112 -0.543596E-08  0.266E-04    0.70      58.0  T
   3    -83.7422112 -0.713939E-09  0.160E-04    0.70      96.1  T
   4    -83.7422112 -0.234436E-09  0.329E-05    0.70     468.4  T
     SCC iter.                  ...        0 min,  0.017 sec
     gradient                   ...        0 min,  0.077 sec
 * total energy  :   -82.9732884 Eh     change       -0.6854124E-05 Eh
   gradient norm :     0.0007357 Eh/α   predicted    -0.2680652E-05 ( -60.89%)
   displ. norm   :     0.0559880 α      lambda       -0.5498121E-05
   maximum displ.:     0.0455666 α      in ANC's #1, #2, #11, ...

........................................................................
.............................. CYCLE   48 ..............................
........................................................................
   1    -83.7422684 -0.837423E+02  0.583E-04    0.70       0.0  T
   2    -83.7422684 -0.105853E-07  0.303E-04    0.70      51.0  T
   3    -83.7422684 -0.956902E-09  0.161E-04    0.70      95.8  T
   4    -83.7422684 -0.527365E-10  0.396E-05    0.70     389.8  T
     SCC iter.                  ...        0 min,  0.016 sec
     gradient                   ...        0 min,  0.078 sec
 * total energy  :   -82.9732957 Eh     change       -0.7307157E-05 Eh
   gradient norm :     0.0006013 Eh/α   predicted    -0.2753478E-05 ( -62.32%)
   displ. norm   :     0.0628216 α      lambda       -0.5958296E-05
   maximum displ.:     0.0511420 α      in ANC's #1, #2, #10, ...

........................................................................
.............................. CYCLE   49 ..............................
........................................................................
   1    -83.7423337 -0.837423E+02  0.783E-04    0.70       0.0  T
   2    -83.7423338 -0.218973E-07  0.372E-04    0.70      41.5  T
   3    -83.7423338 -0.211516E-08  0.189E-04    0.70      81.5  T
   4    -83.7423338 -0.475069E-10  0.568E-05    0.70     271.5  T
     SCC iter.                  ...        0 min,  0.016 sec
     gradient                   ...        0 min,  0.077 sec
 * total energy  :   -82.9733033 Eh     change       -0.7586610E-05 Eh
   gradient norm :     0.0004739 Eh/α   predicted    -0.2987921E-05 ( -60.62%)
   displ. norm   :     0.0670692 α      lambda       -0.5784237E-05
   maximum displ.:     0.0547981 α      in ANC's #1, #2, #10, ...

........................................................................
.............................. CYCLE   50 ..............................
........................................................................
   1    -83.7423623 -0.837424E+02  0.760E-04    0.70       0.0  T
   2    -83.7423624 -0.177164E-07  0.330E-04    0.70      46.8  T
   3    -83.7423624 -0.207801E-08  0.171E-04    0.70      90.1  T
   4    -83.7423624 -0.785860E-10  0.496E-05    0.70     311.2  T
     SCC iter.                  ...        0 min,  0.016 sec
     gradient                   ...        0 min,  0.077 sec
 * total energy  :   -82.9733106 Eh     change       -0.7327944E-05 Eh
   gradient norm :     0.0004486 Eh/α   predicted    -0.2898965E-05 ( -60.44%)
   displ. norm   :     0.0615280 α      lambda       -0.4575603E-05
   maximum displ.:     0.0503718 α      in ANC's #1, #2, #10, ...

........................................................................
.............................. CYCLE   51 ..............................
........................................................................
   1    -83.7423630 -0.837424E+02  0.456E-04    0.70       0.0  T
   2    -83.7423630 -0.373214E-08  0.190E-04    0.70      81.4  T
   3    -83.7423631 -0.416961E-09  0.112E-04    0.70     137.4  T
     SCC iter.                  ...        0 min,  0.012 sec
     gradient                   ...        0 min,  0.077 sec
 * total energy  :   -82.9733169 Eh     change       -0.6256606E-05 Eh
   gradient norm :     0.0004594 Eh/α   predicted    -0.2300403E-05 ( -63.23%)
   displ. norm   :     0.0564645 α      lambda       -0.4048939E-05
   maximum displ.:     0.0464351 α      in ANC's #1, #2, #10, ...

........................................................................
.............................. CYCLE   52 ..............................
........................................................................
   1    -83.7423684 -0.837424E+02  0.408E-04    0.70       0.0  T
   2    -83.7423684 -0.360662E-08  0.206E-04    0.70      75.0  T
   3    -83.7423684 -0.385995E-09  0.115E-04    0.70     134.4  T
   4    -83.7423684 -0.473221E-10  0.192E-05    0.70     805.4  T
     SCC iter.                  ...        0 min,  0.016 sec
     gradient                   ...        0 min,  0.077 sec
 * total energy  :   -82.9733225 Eh     change       -0.5609409E-05 Eh
   gradient norm :     0.0003755 Eh/α   predicted    -0.2029286E-05 ( -63.82%)
   displ. norm   :     0.0523349 α      lambda       -0.3627082E-05
   maximum displ.:     0.0432593 α      in ANC's #1, #2, #10, ...

........................................................................
.............................. CYCLE   53 ..............................
........................................................................
   1    -83.7423506 -0.837424E+02  0.417E-04    0.70       0.0  T
   2    -83.7423506 -0.571416E-08  0.220E-04    0.70      70.3  T
   3    -83.7423506 -0.509914E-09  0.120E-04    0.70     128.8  T
   4    -83.7423506 -0.160867E-10  0.249E-05    0.70     619.3  T
     SCC iter.                  ...        0 min,  0.016 sec
     gradient                   ...        0 min,  0.077 sec
 * total energy  :   -82.9733276 Eh     change       -0.5085435E-05 Eh
   gradient norm :     0.0002685 Eh/α   predicted    -0.1817388E-05 ( -64.26%)
   displ. norm   :     0.0488158 α      lambda       -0.3290111E-05
   maximum displ.:     0.0404478 α      in ANC's #1, #2, #10, ...

........................................................................
.............................. CYCLE   54 ..............................
........................................................................
   1    -83.7423420 -0.837423E+02  0.363E-04    0.70       0.0  T
   2    -83.7423420 -0.418849E-08  0.184E-04    0.70      83.8  T
   3    -83.7423420 -0.385768E-09  0.991E-05    0.70     155.7  T
     SCC iter.                  ...        0 min,  0.013 sec
     gradient                   ...        0 min,  0.077 sec
 * total energy  :   -82.9733322 Eh     change       -0.4661651E-05 Eh
   gradient norm :     0.0002368 Eh/α   predicted    -0.1648710E-05 ( -64.63%)
   displ. norm   :     0.0468157 α      lambda       -0.3142495E-05
   maximum displ.:     0.0386443 α      in ANC's #1, #10, #2, ...

   *** GEOMETRY OPTIMIZATION CONVERGED AFTER 54 ITERATIONS ***

------------------------------------------------------------------------
 total energy gain   :        -0.0340616 Eh      -21.3740 kcal/mol
 total RMSD          :         1.2558551 a0        0.6646 Å
 total power (kW/mol):        -1.6560872 (step)  -11.7079 (real)
------------------------------------------------------------------------

 ANCopt (total)                0 d,  0 h,  0 min,  7.638 sec
 optimizer setup                ...        0 min,  0.001 sec (  0.012%)
 model hessian                  ...        0 min,  0.069 sec (  0.898%)
 ANC generation                 ...        0 min,  0.008 sec (  0.102%)
 coordinate transformation      ...        0 min,  0.003 sec (  0.036%)
 single point calculation       ...        0 min,  7.522 sec ( 98.474%)
 optimization log               ...        0 min,  0.018 sec (  0.241%)
 hessian update                 ...        0 min,  0.002 sec (  0.029%)
 rational function              ...        0 min,  0.009 sec (  0.115%)

================
 final structure:
================
42
 xtb: 6.5.1 (579679a)
C           -6.47921516593083       -1.28242485063455       -2.16922310019219
O           -5.16404758615639       -0.73105425754310       -2.19244198923779
C           -4.44102856149314       -0.87151670950847       -1.07159503009339
O           -4.88372663921234       -1.42348673991158       -0.08364958459694
C           -3.07436650296493       -0.30823781730771       -1.17176719956285
N           -2.30172556226277       -0.50055252633779       -0.05064145193469
C           -1.07151196463839       -0.06374055200174       -0.08785628956229
C           -0.23268120660208       -0.29495896190685        1.16608804203553
C           -0.29044568341445       -1.76697508659080        1.57802103989931
C           -0.71667765206150        0.62656533287338        2.29094075625528
N            1.12975789108210        0.08267582302998        0.77504027349406
C            2.22061560558254        0.01937077141317        1.46887825796361
O            2.17394356118511       -0.43454639468401        2.69522009619345
C            3.33934934920063       -0.56593311986442        3.51962738621418
C            3.45133657779163        0.45534551136907        0.83916926077025
N            4.66448459540736        0.49258422791275        1.31628460838777
N            5.45740787836306        0.97133037167918        0.33512089324366
C            4.69078296943243        1.20351223622619       -0.69480358159633
C            5.08813406568745        1.73123601337486       -2.01437719441731
O            3.41444827236767        0.89687053521016       -0.43441919185878
N           -0.44982831193084        0.56868428031001       -1.08494253072001
C           -1.15073481734529        0.81937081552458       -2.22101680752627
O           -0.69282317976166        1.40780935537958       -3.21314663585588
C           -2.54051660868554        0.34389348827501       -2.25125170907579
O           -3.19410734260634        0.60201337904729       -3.40130998487646
H           -6.91644414829031       -1.09555002156846       -3.14844857922394
H           -6.43617082939518       -2.35791681425542       -1.97587359967015
H           -7.07973400793549       -0.80319714283297       -1.39119339249753
H            0.18180251270494       -2.38615776309724        0.81710758827046
H            0.20715778871393       -1.92961081192576        2.53090780375173
H           -1.33891103692101       -2.05162188236120        1.66702474451069
H           -0.15311576442259        0.45016606666398        3.20446985500503
H           -0.59853470706190        1.66764836764662        1.99434186786481
H           -1.77132243246566        0.42468599679921        2.47449520894010
H            1.12892302731093        0.46994764079312       -0.19196548819606
H            2.98605689595153       -0.98189508876912        4.46130861470916
H            4.05864685154730       -1.23825803948706        3.04925259071350
H            3.79921881497849        0.41041298653716        3.68033281561724
H            6.16399094445522        1.88497279129283       -2.03838950626448
H            4.79795233054056        1.02887015118226       -2.79604364121168
H            4.57816339126748        2.67604607524859       -2.20480336897693
H           -2.55450361200982        1.07558736279768       -3.97447184669111
 
 Bond Distances (Angstroems)
 ---------------------------
C1-O2=1.4263         C1-H26=1.0886        C1-H27=1.0936        C1-H28=1.0934        O2-C1=1.4263         O2-C3=1.3412         
C3-O2=1.3412         C3-O4=1.2152         C3-C5=1.4816         O4-C3=1.2152         C5-C3=1.4816         C5-N6=1.3751         
C5-C24=1.3695        N6-C5=1.3751         N6-C7=1.3060         C7-N6=1.3060         C7-C8=1.5263         C7-N21=1.3344        
C8-C7=1.5263         C8-C9=1.5297         C8-C10=1.5326        C8-N11=1.4669        C9-C8=1.5297         C9-H29=1.0888        
C9-H30=1.0872        C9-H31=1.0901        C10-C8=1.5326        C10-H32=1.0878       C10-H33=1.0889       C10-H34=1.0894       
N11-C8=1.4669        N11-C12=1.2944       N11-H35=1.0417       C12-N11=1.2944       C12-O13=1.3085       C12-C15=1.4496       
O13-C12=1.3085       O13-C14=1.4336       C14-O13=1.4336       C14-H36=1.0884       C14-H37=1.0912       C14-H38=1.0911       
C15-C12=1.4496       C15-N16=1.3041       C15-O20=1.3485       N16-C15=1.3041       N16-N17=1.3493       N17-N16=1.3493       
N17-C18=1.3047       C18-N17=1.3047       C18-C19=1.4757       C18-O20=1.3382       C19-C18=1.4757       C19-H39=1.0871       
C19-H40=1.0902       C19-H41=1.0904       O20-C15=1.3485       O20-C18=1.3382       N21-C7=1.3344        N21-C22=1.3582       
C22-N21=1.3582       C22-O23=1.2411       C22-C24=1.4692       O23-C22=1.2411       C24-C5=1.3695        C24-C22=1.4692       
C24-O25=1.3478       O25-C24=1.3478       O25-H42=0.9808       H26-C1=1.0886        H27-C1=1.0936        H28-C1=1.0934        
H29-C9=1.0888        H30-C9=1.0872        H31-C9=1.0901        H32-C10=1.0878       H33-C10=1.0889       H34-C10=1.0894       
H35-N11=1.0417       H36-C14=1.0884       H37-C14=1.0912       H38-C14=1.0911       H39-C19=1.0871       H40-C19=1.0902       
H41-C19=1.0904       H42-O25=0.9808       
 C  H  Rav=1.0897 sigma=0.0019  Rmin=1.0871  Rmax=1.0936    15
 C  C  Rav=1.4793 sigma=0.0508  Rmin=1.3695  Rmax=1.5326     8
 N  H  Rav=1.0417 sigma=0.0000  Rmin=1.0417  Rmax=1.0417     1
 N  C  Rav=1.3430 sigma=0.0541  Rmin=1.2944  Rmax=1.4669     8
 N  N  Rav=1.3493 sigma=0.0000  Rmin=1.3493  Rmax=1.3493     1
 O  H  Rav=0.9808 sigma=0.0000  Rmin=0.9808  Rmax=0.9808     1
 O  C  Rav=1.3334 sigma=0.0685  Rmin=1.2152  Rmax=1.4336     9
 
 selected bond angles (degree)
 --------------------
H26-C1-O2=106.82               H27-C1-O2=110.29               H27-C1-H26=110.10              H28-C1-O2=110.40               
H28-C1-H26=110.14              H28-C1-H27=109.08              C3-O2-C1=116.30                O4-C3-O2=122.05                
C5-C3-O2=113.64                C5-C3-O4=124.31                N6-C5-C3=114.21                C24-C5-C3=126.43               
C24-C5-N6=119.35               C7-N6-C5=117.34                C8-C7-N6=116.34                N21-C7-N6=128.22               
N21-C7-C8=115.44               C9-C8-C7=110.26                C10-C8-C7=109.78               C10-C8-C9=111.66               
N11-C8-C7=104.62               N11-C8-C9=110.77               N11-C8-C10=109.52              H29-C9-C8=110.04               
H30-C9-C8=111.27               H30-C9-H29=109.20              H31-C9-C8=108.04               H31-C9-H29=109.01              
H31-C9-H30=109.24              H32-C10-C8=110.81              H33-C10-C8=109.92              H33-C10-H32=109.12             
H34-C10-C8=108.54              H34-C10-H32=109.27             H34-C10-H33=109.15             
 
 selected dihedral angles (degree)
 ---------------------------------
C3-O2-C1-H26=180.77           C3-O2-C1-H27=300.41           C3-O2-C1-H28= 61.02           O4-C3-O2-C1=359.17            
C5-C3-O2-C1=178.55            N6-C5-C3-O2=182.85            N6-C5-C3-O4=  2.22            C24-C5-C3-O2=  1.99           
C24-C5-C3-O4=181.36           C7-N6-C5-C3=177.98            C7-N6-C5-C24=358.77           C8-C7-N6-C5=180.27            
N21-C7-N6-C5=  0.62           C9-C8-C7-N6= 51.90            C9-C8-C7-N21=231.61           C10-C8-C7-N6=288.48           
C10-C8-C7-N21=108.19          N11-C8-C7-N6=171.04           N11-C8-C7-N21=350.75          H29-C9-C8-C7= 65.30           
H29-C9-C8-C10=187.62          H29-C9-C8-N11=309.97          H30-C9-C8-C7=186.48           H30-C9-C8-C10=308.79          
H30-C9-C8-N11= 71.15          H31-C9-C8-C7=306.39           H31-C9-C8-C10= 68.71          H31-C9-C8-N11=191.06          
H32-C10-C8-C7=177.96          H32-C10-C8-C9= 55.37          H32-C10-C8-N11=292.30         H33-C10-C8-C7=298.66          
H33-C10-C8-C9=176.06          H33-C10-C8-N11= 52.99         H34-C10-C8-C7= 57.97          H34-C10-C8-C9=295.38          
H34-C10-C8-N11=172.31         
           -------------------------------------------------
          |                Final Singlepoint                |
           -------------------------------------------------

          ...................................................
          :                      SETUP                      :
          :.................................................:
          :  # basis functions                 134          :
          :  # atomic orbitals                 134          :
          :  # shells                           84          :
          :  # electrons                       134          :
          :  # halogen bonds                     0          :
          :  max. iterations                   250          :
          :  Hamiltonian                  GFN1-xTB          :
          :  restarted?                      false          :
          :  GBSA solvation                   true          :
          :  PC potential                    false          :
          :  electronic temp.          300.0000000     K    :
          :  accuracy                    1.0000000          :
          :  -> integral cutoff          0.2500000E+02      :
          :  -> integral neglect         0.1000000E-07      :
          :  -> SCF convergence          0.1000000E-05 Eh   :
          :  -> wf. convergence          0.2000000E-04 e    :
          :  Broyden damping             0.4000000          :
          ...................................................

 iter      E             dE          RMSdq      gap      omega  full diag
   1    -83.7423420 -0.837423E+02  0.228E-05    0.70       0.0  T
   2    -83.7423420 -0.338218E-11  0.124E-05    0.70    1242.0  T
   3    -83.7423420  0.142109E-13  0.610E-06    0.70    2530.7  T

   *** convergence criteria satisfied after 3 iterations ***

         #    Occupation            Energy/Eh            Energy/eV
      -------------------------------------------------------------
         1        2.0000           -0.8930068             -24.3000
       ...           ...                  ...                  ...
        61        2.0000           -0.4731776             -12.8758
        62        2.0000           -0.4599126             -12.5149
        63        2.0000           -0.4541573             -12.3582
        64        2.0000           -0.4346865             -11.8284
        65        2.0000           -0.4175567             -11.3623
        66        2.0000           -0.3919673             -10.6660
        67        2.0000           -0.3853855             -10.4869 (HOMO)
        68        0.0000           -0.3597062              -9.7881 (LUMO)
        69                         -0.2863182              -7.7911
        70                         -0.2804289              -7.6309
        71                         -0.2444791              -6.6526
        72                         -0.2419525              -6.5839
       ...                                ...                  ...
       134                          0.7388865              20.1061
      -------------------------------------------------------------
                  HL-Gap            0.0256793 Eh            0.6988 eV
             Fermi-level           -0.3725453 Eh          -10.1375 eV

 SCC (total)                   0 d,  0 h,  0 min,  0.138 sec
 SCC setup                      ...        0 min,  0.002 sec (  1.758%)
 Dispersion                     ...        0 min,  0.000 sec (  0.304%)
 classical contributions        ...        0 min,  0.000 sec (  0.109%)
 integral evaluation            ...        0 min,  0.039 sec ( 28.276%)
 iterations                     ...        0 min,  0.017 sec ( 12.385%)
 molecular gradient             ...        0 min,  0.078 sec ( 56.364%)
 printout                       ...        0 min,  0.001 sec (  0.741%)

         :::::::::::::::::::::::::::::::::::::::::::::::::::::
         ::                     SUMMARY                     ::
         :::::::::::::::::::::::::::::::::::::::::::::::::::::
         :: total energy             -82.973332211955 Eh    ::
         :: total w/o Gsasa/hb       -82.948736233218 Eh    ::
         :: gradient norm              0.000238304540 Eh/a0 ::
         :: HOMO-LUMO gap              0.698769058332 eV    ::
         ::.................................................::
         :: SCC energy               -83.742342029773 Eh    ::
         :: -> electrostatic           0.375708576430 Eh    ::
         :: -> Gsolv                  -0.067567394370 Eh    ::
         ::    -> Gelec               -0.042971415632 Eh    ::
         ::    -> Gsasa               -0.025573195245 Eh    ::
         ::    -> Ghb                 -0.006647062497 Eh    ::
         ::    -> Gshift               0.007624279005 Eh    ::
         :: repulsion energy           0.794234790092 Eh    ::
         :: dispersion energy         -0.025224972273 Eh    ::
         :: halogen bond corr.         0.000000000000 Eh    ::
         :: add. restraining           0.000000000000 Eh    ::
         :: total charge               0.000000000000 e     ::
         :::::::::::::::::::::::::::::::::::::::::::::::::::::

           -------------------------------------------------
          |                Property Printout                |
           -------------------------------------------------

    * Orbital Energies and Occupations

         #    Occupation            Energy/Eh            Energy/eV
      -------------------------------------------------------------
         1        2.0000           -0.8930068             -24.3000
       ...           ...                  ...                  ...
        55        2.0000           -0.5003194             -13.6144
        56        2.0000           -0.4989632             -13.5775
        57        2.0000           -0.4880268             -13.2799
        58        2.0000           -0.4866014             -13.2411
        59        2.0000           -0.4826958             -13.1348
        60        2.0000           -0.4800854             -13.0638
        61        2.0000           -0.4731776             -12.8758
        62        2.0000           -0.4599126             -12.5149
        63        2.0000           -0.4541573             -12.3582
        64        2.0000           -0.4346865             -11.8284
        65        2.0000           -0.4175567             -11.3623
        66        2.0000           -0.3919673             -10.6660
        67        2.0000           -0.3853855             -10.4869 (HOMO)
        68        0.0000           -0.3597062              -9.7881 (LUMO)
        69                         -0.2863182              -7.7911
        70                         -0.2804289              -7.6309
        71                         -0.2444791              -6.6526
        72                         -0.2419525              -6.5839
        73                         -0.2014558              -5.4819
        74                         -0.1558194              -4.2401
        75                         -0.1506237              -4.0987
        76                         -0.1302005              -3.5429
        77                         -0.1273475              -3.4653
        78                         -0.1248945              -3.3986
       ...                                ...                  ...
       134                          0.7388865              20.1061
      -------------------------------------------------------------
                  HL-Gap            0.0256793 Eh            0.6988 eV
             Fermi-level           -0.3725453 Eh          -10.1375 eV

  Mulliken/CM5 charges         n(s)   n(p)   n(d)
     1C     0.16708  0.04694   0.976  2.857  0.000
     2O    -0.41974 -0.50334   1.686  4.733  0.000
     3C     0.56456  0.63064   0.977  2.459  0.000
     4O    -0.58488 -0.62880   1.729  4.856  0.000
     5C     0.06366  0.14002   1.038  2.899  0.000
     6N    -0.42180 -0.60361   1.542  3.880  0.000
     7C     0.27584  0.43294   1.009  2.715  0.000
     8C     0.14150  0.18263   1.072  2.787  0.000
     9C    -0.10077 -0.23947   1.018  3.083  0.000
    10C    -0.10038 -0.23943   1.019  3.081  0.000
    11N    -0.23190 -0.57923   1.443  3.789  0.000
    12C     0.43499  0.54626   0.976  2.589  0.000
    13O    -0.36759 -0.45797   1.664  4.704  0.000
    14C     0.15244  0.03249   0.992  2.855  0.000
    15C     0.33574  0.45922   0.985  2.679  0.000
    16N    -0.19673 -0.31005   1.563  3.634  0.000
    17N    -0.23743 -0.34406   1.558  3.679  0.000
    18C     0.40631  0.51359   1.015  2.579  0.000
    19C    -0.10977 -0.24710   1.014  3.096  0.000
    20O    -0.33555 -0.39186   1.690  4.645  0.000
    21N    -0.48478 -0.67617   1.539  3.945  0.000
    22C     0.43522  0.54186   0.985  2.580  0.000
    23O    -0.64960 -0.69438   1.739  4.910  0.000
    24C     0.20504  0.23829   1.037  2.758  0.000
    25O    -0.52769 -0.71670   1.705  4.823  0.000
    26H     0.04590  0.10623   0.954  0.000  0.000
    27H     0.04390  0.10565   0.956  0.000  0.000
    28H     0.04389  0.10552   0.956  0.000  0.000
    29H     0.04647  0.10366   0.954  0.000  0.000
    30H     0.04670  0.10578   0.953  0.000  0.000
    31H     0.05612  0.11461   0.944  0.000  0.000
    32H     0.04783  0.10650   0.952  0.000  0.000
    33H     0.04876  0.10587   0.951  0.000  0.000
    34H     0.05674  0.11315   0.943  0.000  0.000
    35H     0.28616  0.50161   0.714  0.000  0.000
    36H     0.08091  0.14156   0.919  0.000  0.000
    37H     0.06415  0.12847   0.936  0.000  0.000
    38H     0.06430  0.12860   0.936  0.000  0.000
    39H     0.07880  0.13467   0.921  0.000  0.000
    40H     0.09191  0.14648   0.908  0.000  0.000
    41H     0.09253  0.14697   0.907  0.000  0.000
    42H     0.39116  0.57195   0.609  0.000  0.000

Wiberg/Mayer (AO) data.
largest (>0.10) Wiberg bond orders for each atom

 ---------------------------------------------------------------------------
     #   Z sym  total        # sym  WBO       # sym  WBO       # sym  WBO
 ---------------------------------------------------------------------------
     1   6 C    3.884 --    26 H    0.987    27 H    0.980    28 H    0.980
                             2 O    0.909
     2   8 O    2.188 --     3 C    1.090     1 C    0.909     4 O    0.126
     3   6 C    3.841 --     4 O    1.636     2 O    1.090     5 C    1.023
     4   8 O    1.898 --     3 C    1.636     2 O    0.126
     5   6 C    3.961 --    24 C    1.490     6 N    1.186     3 C    1.023
     6   7 N    3.002 --     7 C    1.496     5 C    1.186
     7   6 C    3.961 --     6 N    1.496    21 N    1.345     8 C    0.963
     8   6 C    3.894 --     9 C    0.984    10 C    0.976     7 C    0.963
                            11 N    0.894
     9   6 C    3.986 --    29 H    0.985    30 H    0.984     8 C    0.984
                            31 H    0.979
    10   6 C    3.985 --    33 H    0.985    32 H    0.984    34 H    0.982
                             8 C    0.976
    11   7 N    3.516 --    12 C    1.515     8 C    0.894    35 H    0.807
                            13 O    0.114
    12   6 C    3.902 --    11 N    1.515    13 O    1.168    15 C    1.072
    13   8 O    2.258 --    12 C    1.168    14 C    0.870    11 N    0.114
    14   6 C    3.839 --    36 H    0.981    37 H    0.976    38 H    0.975
                            13 O    0.870
    15   6 C    3.887 --    16 N    1.561    12 C    1.072    20 O    1.053
    16   7 N    3.026 --    15 C    1.561    17 N    1.238
    17   7 N    2.985 --    18 C    1.563    16 N    1.238
    18   6 C    3.854 --    17 N    1.563    20 O    1.088    19 C    1.038
    19   6 C    3.981 --    18 C    1.038    39 H    0.981    40 H    0.957
                            41 H    0.956
    20   8 O    2.335 --    18 C    1.088    15 C    1.053
    21   7 N    3.048 --     7 C    1.345    22 C    1.231    23 O    0.126
                            35 H    0.104
    22   6 C    3.926 --    23 O    1.494    21 N    1.231    24 C    1.064
    23   8 O    1.829 --    22 C    1.494    21 N    0.126
    24   6 C    3.908 --     5 C    1.490    25 O    1.083    22 C    1.064
    25   8 O    2.058 --    24 C    1.083    42 H    0.811
    26   1 H    1.013 --     1 C    0.987
    27   1 H    1.010 --     1 C    0.980
    28   1 H    1.010 --     1 C    0.980
    29   1 H    1.001 --     9 C    0.985
    30   1 H    1.006 --     9 C    0.984
    31   1 H    1.014 --     9 C    0.979
    32   1 H    1.004 --    10 C    0.984
    33   1 H    1.001 --    10 C    0.985
    34   1 H    1.006 --    10 C    0.982
    35   1 H    0.951 --    11 N    0.807    21 N    0.104
    36   1 H    1.004 --    14 C    0.981
    37   1 H    1.010 --    14 C    0.976
    38   1 H    1.010 --    14 C    0.975
    39   1 H    0.996 --    19 C    0.981
    40   1 H    0.993 --    19 C    0.957
    41   1 H    0.993 --    19 C    0.956
    42   1 H    0.869 --    25 O    0.811
 ---------------------------------------------------------------------------

Topologies differ in total number of bonds
Writing topology from bond orders to xtbtopo.mol

 dipole moment from electron density (au)
     X       Y       Z   
   5.6346   0.2252   2.3968  total (Debye):   15.574

           -------------------------------------------------
          |                Geometry Summary                 |
           -------------------------------------------------

      molecular mass/u    :      351.3152409
   center of mass at/Å    :       -0.0794519       0.0724912      -0.2608004
  moments of inertia/u·Å² :        0.1151106E+04   0.4686099E+04   0.5689806E+04
rotational constants/cm⁻¹ :        0.1464473E-01   0.3597370E-02   0.2962778E-02

 * 39 selected distances

     #   Z          #   Z                                           value/Å
     1   6 C        2   8 O                                       1.4262590
     2   8 O        3   6 C                                       1.3411877
     3   6 C        4   8 O                                       1.2151909
     5   6 C        6   7 N                                       1.3750935
     6   7 N        7   6 C                                       1.3059921
     8   6 C        9   6 C                                       1.5296593
     8   6 C       10   6 C                                       1.5325644 (max)
     8   6 C       11   7 N                                       1.4668903
    11   7 N       12   6 C                                       1.2943684
    12   6 C       13   8 O                                       1.3084853
    13   8 O       14   6 C                                       1.4335553
    12   6 C       15   6 C                                       1.4495799
    15   6 C       16   7 N                                       1.3041297
    17   7 N       18   6 C                                       1.3047478
    18   6 C       19   6 C                                       1.4756880
    15   6 C       20   8 O                                       1.3484558
    18   6 C       20   8 O                                       1.3382301
     7   6 C       21   7 N                                       1.3344036
    21   7 N       22   6 C                                       1.3582263
    22   6 C       23   8 O                                       1.2410741
     5   6 C       24   6 C                                       1.3695102
    24   6 C       25   8 O                                       1.3477541
     1   6 C       26   1 H                                       1.0885652
     1   6 C       27   1 H                                       1.0935813
     1   6 C       28   1 H                                       1.0934407
     9   6 C       29   1 H                                       1.0887585
     9   6 C       30   1 H                                       1.0872226
     9   6 C       31   1 H                                       1.0900575
    10   6 C       32   1 H                                       1.0877749
    10   6 C       33   1 H                                       1.0889365
    10   6 C       34   1 H                                       1.0893683
    11   7 N       35   1 H                                       1.0416720
    14   6 C       36   1 H                                       1.0883950
    14   6 C       37   1 H                                       1.0911748
    14   6 C       38   1 H                                       1.0911270
    19   6 C       39   1 H                                       1.0870510
    19   6 C       40   1 H                                       1.0901953
    19   6 C       41   1 H                                       1.0904121
    25   8 O       42   1 H                                       0.9807548 (min)

 * 6 distinct bonds (by element types)

   Z      Z             #   av. dist./Å        max./Å        min./Å
   1 H    6 C          15     1.0897374     1.0935813     1.0870510
   6 C    6 C           5     1.4714004     1.5325644     1.3695102
   1 H    7 N           1     1.0416720     1.0416720     1.0416720
   6 C    7 N           8     1.3429815     1.4668903     1.2943684
   1 H    8 O           1     0.9807548     0.9807548     0.9807548
   6 C    8 O           9     1.3333547     1.4335553     1.2151909


optimized geometry written to: xtbopt.xyz


           -------------------------------------------------
          | TOTAL ENERGY              -82.973332211955 Eh   |
          | GRADIENT NORM               0.000238304540 Eh/α |
          | HOMO-LUMO GAP               0.698769058332 eV   |
           -------------------------------------------------

------------------------------------------------------------------------
 * finished run on 2023/06/20 at 18:07:05.050     
------------------------------------------------------------------------
 total:
 * wall-time:     0 d,  0 h,  0 min,  8.158 sec
 *  cpu-time:     0 d,  0 h,  0 min,  7.995 sec
 * ratio c/w:     0.980 speedup
 SCF:
 * wall-time:     0 d,  0 h,  0 min,  0.273 sec
 *  cpu-time:     0 d,  0 h,  0 min,  0.191 sec
 * ratio c/w:     0.699 speedup
 ANC optimizer:
 * wall-time:     0 d,  0 h,  0 min,  7.784 sec
 *  cpu-time:     0 d,  0 h,  0 min,  7.753 sec
 * ratio c/w:     0.996 speedup

