4
 energy: -3.171899376009 gnorm: 0.015250255961 xtb: 6.5.1 (579679a)
C            0.00031000000000       -0.00008000000000        0.00133000000000
H            1.07437000000000       -0.24786000000000        0.00701000000000
H           -0.75192000000000       -0.80607000000000       -0.01208000000000
H           -0.32276000000000        1.05401000000000        0.00375000000000
4
 energy: -3.172173159410 gnorm: 0.005722997168 xtb: 6.5.1 (579679a)
C            0.00034872566230       -0.00001207212387       -0.01534627265381
H            1.06317909953001       -0.24524167169561        0.01249598785052
H           -0.74416279661077       -0.79772618393801       -0.00640284607002
H           -0.31936502858128        1.04297992775743        0.00926313087324
4
 energy: -3.166800113477 gnorm: 0.040765635991 xtb: 6.5.1 (579679a)
C           -0.00108976845537       -0.00102070993709        0.11497940790171
H            1.02840629551294       -0.23654111313173       -0.03122369671585
H           -0.71921038388211       -0.77102877036341       -0.04944714284076
H           -0.30810614317731        1.00859059343263       -0.03429856834459
4
 energy: -3.172219414280 gnorm: 0.003899768370 xtb: 6.5.1 (579679a)
C            0.00005530303241       -0.00022986028255        0.01099767721145
H            1.05832321327171       -0.24395628544134        0.00367373236631
H           -0.74066831373340       -0.79401082816115       -0.01512793729767
H           -0.31771020257087        1.03819697388508        0.00046652771995
4
 energy: -3.172263820177 gnorm: 0.000907767732 xtb: 6.5.1 (579679a)
C            0.00017123292675       -0.00015849293674       -0.00196101727457
H            1.06095879545394       -0.24458717688937        0.00801535113005
H           -0.74258071080184       -0.79601988385568       -0.01083896418134
H           -0.31854931757880        1.04076555368178        0.00479463032584
4
 energy: -3.172265197289 gnorm: 0.000494617247 xtb: 6.5.1 (579679a)
C            0.00013480724123       -0.00018557146518        0.00096666111631
H            1.06000755824644       -0.24434505306460        0.00703206288710
H           -0.74190609164605       -0.79530315195076       -0.01180420870729
H           -0.31823627384161        1.03983377648053        0.00381548470388
