42
 energy: -82.986888156770 gnorm: 0.000913614818 xtb: 6.5.1 (579679a)
C           -2.09511595015465        3.95711183280631        2.37509977205203
O           -2.39343739154106        2.77844620698134        1.62925607952374
C           -1.34722771674223        2.14696835501334        1.07832616461074
O           -0.20993626386134        2.56107211723338        1.21940855752057
C           -1.72312214743654        0.95488087915174        0.31656110878835
N           -0.72021361246938        0.27611019336639       -0.37964120732310
C           -0.95541728924198       -0.74407235537703       -1.15335167075873
C            0.21550743178976       -1.28044270275837       -1.92894483037442
C            0.25700021358991       -2.80635768346285       -1.97097825214146
C            0.20580065647144       -0.67280539242185       -3.33436115209581
N            1.33967413681157       -0.78062173990789       -1.11382431583934
C            2.62913695767755       -0.56754219126080       -1.78211948069005
C            0.78052506132847        0.76174093927896       -0.47166905997478
O            1.00209405919030        1.65557197525418       -1.26978459819749
C            1.42291041767439        0.65478664158558        0.88544977707490
N            2.44875535538742        1.29694029071119        1.33532303637808
N            2.75153272084128        0.74225923235266        2.55134908208251
C            1.90740538245766       -0.21570037612647        2.74774311117023
C            1.82170340501622       -1.13174037291236        3.90634264359923
O            1.03809444086428       -0.33703120722660        1.71983082086729
N           -2.19820589393856       -1.24144370213929       -1.28794639369035
C           -3.31339683813542       -0.73640206284640       -0.62959415058562
O           -4.39346087916652       -1.26313871084125       -0.79049308188951
C           -3.06730320783958        0.48179519829691        0.23941391520527
O           -4.03775232624778        0.97692008222092        0.81270662623294
H           -3.04928677467988        4.37739304042192        2.68970017137881
H           -1.48681448858852        3.71064328285406        3.24938655492824
H           -1.55386974322598        4.67581624763257        1.75327608152609
H            0.19005921642905       -3.21774967212206       -0.96529614378913
H           -0.57073156077235       -3.18473525327675       -2.56719131286378
H            1.18879001906963       -3.13438812684211       -2.42708565529112
H            0.28440270164642        0.41269938084403       -3.28012559755534
H            1.02979807309470       -1.07004336637953       -3.92215176375095
H           -0.72992521970638       -0.93874516919415       -3.82313985644964
H            1.46600086322234       -1.41319780673606       -0.32689342282889
H            3.37098812452161       -0.37982472709415       -1.00790545802653
H            2.89629050330599       -1.45554787260632       -2.34827484505887
H            2.55211716511501        0.29831951982950       -2.43808041087600
H            1.99158333843443       -2.15709768216899        3.57943807254780
H            2.57274519085918       -0.85870460105695        4.64392733875033
H            0.82963616253953       -1.08189978533952        4.35476343877412
H           -2.34733229362572       -2.05024285573398       -1.86845069294072
