      -----------------------------------------------------------      
     |                   =====================                   |     
     |                           x T B                           |     
     |                   =====================                   |     
     |                         S. Grimme                         |     
     |          Mulliken Center for Theoretical Chemistry        |     
     |                    University of Bonn                     |     
      -----------------------------------------------------------      

   * xtb version 6.5.1 (579679a) compiled by 'ehlert@majestix' on 2022-07-11

   xtb is free software: you can redistribute it and/or modify it under
   the terms of the GNU Lesser General Public License as published by
   the Free Software Foundation, either version 3 of the License, or
   (at your option) any later version.
   
   xtb is distributed in the hope that it will be useful,
   but WITHOUT ANY WARRANTY; without even the implied warranty of
   MERCHANTABILITY or FITNESS FOR A PARTICULAR PURPOSE.  See the
   GNU Lesser General Public License for more details.
   
   Cite this work as:
   * C. Bannwarth, E. Caldeweyher, S. Ehlert, A. Hansen, P. Pracht,
     J. Seibert, S. Spicher, S. Grimme, WIREs Comput. Mol. Sci., 2020, 11,
     e01493. DOI: 10.1002/wcms.1493
   
   for GFN2-xTB:
   * C. Bannwarth, S. Ehlert and S. Grimme., J. Chem. Theory Comput., 2019,
     15, 1652-1671. DOI: 10.1021/acs.jctc.8b01176
   for GFN1-xTB:
   * S. Grimme, C. Bannwarth, P. Shushkov, J. Chem. Theory Comput., 2017,
     13, 1989-2009. DOI: 10.1021/acs.jctc.7b00118
   for GFN0-xTB:
   * P. Pracht, E. Caldeweyher, S. Ehlert, S. Grimme, ChemRxiv, 2019, preprint.
     DOI: 10.26434/chemrxiv.8326202.v1
   for GFN-FF:
   * S. Spicher and S. Grimme, Angew. Chem. Int. Ed., 2020, 59, 15665-15673.
     DOI: 10.1002/anie.202004239
   
   for ALPB and GBSA implicit solvation:
   * S. Ehlert, M. Stahn, S. Spicher, S. Grimme, J. Chem. Theory Comput.,
     2021, 17, 4250-4261. DOI: 10.1021/acs.jctc.1c00471
   
   for DFT-D4:
   * E. Caldeweyher, C. Bannwarth and S. Grimme, J. Chem. Phys., 2017,
     147, 034112. DOI: 10.1063/1.4993215
   * E. Caldeweyher, S. Ehlert, A. Hansen, H. Neugebauer, S. Spicher,
     C. Bannwarth and S. Grimme, J. Chem. Phys., 2019, 150, 154122.
     DOI: 10.1063/1.5090222
   * E. Caldeweyher, J.-M. Mewes, S. Ehlert and S. Grimme, Phys. Chem. Chem. Phys.
     2020, 22, 8499-8512. DOI: 10.1039/D0CP00502A
   
   for sTDA-xTB:
   * S. Grimme and C. Bannwarth, J. Chem. Phys., 2016, 145, 054103.
     DOI: 10.1063/1.4959605
   
   in the mass-spec context:
   * V. Asgeirsson, C. Bauer and S. Grimme, Chem. Sci., 2017, 8, 4879.
     DOI: 10.1039/c7sc00601b
   * J. Koopman and S. Grimme, ACS Omega 2019, 4, 12, 15120-15133.
     DOI: 10.1021/acsomega.9b02011
   
   for metadynamics refer to:
   * S. Grimme, J. Chem. Theory Comput., 2019, 155, 2847-2862
     DOI: 10.1021/acs.jctc.9b00143
   
   for SPH calculations refer to:
   * S. Spicher and S. Grimme, J. Chem. Theory Comput., 2021, 17, 1701-1714
     DOI: 10.1021/acs.jctc.0c01306
   
   with help from (in alphabetical order)
   P. Atkinson, C. Bannwarth, F. Bohle, G. Brandenburg, E. Caldeweyher
   M. Checinski, S. Dohm, S. Ehlert, S. Ehrlich, I. Gerasimov, C. Hölzer
   A. Katbashev, J. Koopman, C. Lavigne, S. Lehtola, F. März, M. Müller,
   F. Musil, H. Neugebauer, J. Pisarek, C. Plett, P. Pracht, F. Pultar,
   J. Seibert, P. Shushkov, S. Spicher, M. Stahn, M. Steiner, T. Strunk,
   J. Stückrath, T. Rose, and J. Unsleber
   
 * started run on 2023/06/20 at 15:35:50.438     

           -------------------------------------------------
          |                Calculation Setup                |
           -------------------------------------------------

          program call               : /lustre/hpc/kemi/ree/PhD/git/ReactivityQM/dep/xtb-6.5.1/bin/xtb --gfn 1 /lustre/hpc/kemi/ree/PhD/git/ReactivityQM/calculations/R02/reac01prodN13/conf17/R02_reac01prodN13_conf17_gfn1.xyz --opt --vfukui --chrg 1 --uhf 0 --alpb DMSO
          hostname                   : node315
          coordinate file            : /lustre/hpc/kemi/ree/PhD/git/ReactivityQM/calculations/R02/reac01prodN13/conf17/R02_reac01prodN13_conf17_gfn1.xyz
          omp threads                :                     1

   ID    Z sym.   atoms
    1    6 C      1, 3, 5, 7-10, 12, 14, 17-19, 22, 24
    2    8 O      2, 4, 13, 20, 23, 25
    3    7 N      6, 11, 15, 16, 21
    4    1 H      26-43

           -------------------------------------------------
          |                 G F N 1 - x T B                 |
           -------------------------------------------------

        Reference                      10.1021/acs.jctc.7b00118
      * Hamiltonian:
        H0-scaling (s, p, d)           1.850000    2.250000    2.000000
        zeta-weighting                 0.000000
      * Dispersion:
        s8                             2.400000
        a1                             0.630000
        a2                             5.000000
        s9                             0.000000
      * Repulsion:
        kExp                           1.500000
        rExp                           1.000000
      * Coulomb:
        alpha                          2.000000
        third order                    atomic
        anisotropic                    false
      * Halogen bond correction:
        rad-scale                      1.300000
        damping                        0.440000

      * Solvation model:               ALPB
        Solvent                        DMSO
        Parameter file                 internal GFN1-xTB/ALPB
        Dielectric constant                4.6680E+01
        Reference state                gsolv [1 M gas/solution]
        Free energy shift                  7.6243E-03 Eh       4.7843E+00 kcal/mol
        Temperature                        2.9815E+02 K
        Density                            1.1000E+00 kg/L
        Solvent mass                       7.8130E+01 g/mol
        Interaction kernel             P16
        Born radius scaling (c1)           1.7672E+00
        Born radii integrator          GBOBC
        Born offset                        0.0000E+00 a0       0.0000E+00 AA
        H-bond correction              true
        Ion screening                  false
        Surface tension                    1.0000E-05 Eh       1.5569E+01 dyn/cm
        Grid points                               230 per atom

          ...................................................
          :                      SETUP                      :
          :.................................................:
          :  # basis functions                 136          :
          :  # atomic orbitals                 136          :
          :  # shells                           86          :
          :  # electrons                       134          :
          :  # halogen bonds                     0          :
          :  max. iterations                   250          :
          :  Hamiltonian                  GFN1-xTB          :
          :  restarted?                      false          :
          :  GBSA solvation                   true          :
          :  PC potential                    false          :
          :  electronic temp.          300.0000000     K    :
          :  accuracy                    1.0000000          :
          :  -> integral cutoff          0.2500000E+02      :
          :  -> integral neglect         0.1000000E-07      :
          :  -> SCF convergence          0.1000000E-05 Eh   :
          :  -> wf. convergence          0.2000000E-04 e    :
          :  Broyden damping             0.4000000          :
          ...................................................

 iter      E             dE          RMSdq      gap      omega  full diag
   1    -83.4813936 -0.834814E+02  0.831E+00    1.54       0.0  T
   2    -83.8444295 -0.363036E+00  0.495E+00    0.13       1.0  T
   3    -83.8104023  0.340271E-01  0.182E+00    0.18       1.0  T
   4    -83.5907761  0.219626E+00  0.149E+00    0.12       1.0  T
   5    -83.8463342 -0.255558E+00  0.587E-01    0.85       1.0  T
   6    -83.8604281 -0.140939E-01  0.286E-01    0.48       1.0  T
   7    -83.8627792 -0.235110E-02  0.219E-01    0.29       1.0  T
   8    -83.8665627 -0.378347E-02  0.110E-01    0.16       1.0  T
   9    -83.8650069  0.155581E-02  0.152E-01    0.08       1.0  T
  10    -83.8675081 -0.250119E-02  0.661E-02    0.14       1.0  T
  11    -83.8679533 -0.445198E-03  0.273E-02    0.13       1.0  T
  12    -83.8680443 -0.910536E-04  0.357E-03    0.12       4.3  T
  13    -83.8680457 -0.138928E-05  0.964E-04    0.12      15.8  T
  14    -83.8680455  0.237830E-06  0.163E-03    0.12       9.4  T
  15    -83.8680458 -0.346394E-06  0.113E-04    0.12     135.3  T
  16    -83.8680458 -0.120774E-08  0.617E-05    0.12     247.2  T

   *** convergence criteria satisfied after 16 iterations ***

         #    Occupation            Energy/Eh            Energy/eV
      -------------------------------------------------------------
         1        2.0000           -0.9164546             -24.9380
       ...           ...                  ...                  ...
        61        2.0000           -0.5091103             -13.8536
        62        2.0000           -0.5000385             -13.6067
        63        2.0000           -0.4991635             -13.5829
        64        2.0000           -0.4926594             -13.4059
        65        2.0000           -0.4827089             -13.1352
        66        2.0000           -0.4727053             -12.8630
        67        1.8129           -0.4558153             -12.4034 (HOMO)
        68        0.1871           -0.4515007             -12.2860 (LUMO)
        69                         -0.3647245              -9.9247
        70                         -0.3541963              -9.6382
        71                         -0.3129970              -8.5171
        72                         -0.2638794              -7.1805
       ...                                ...                  ...
       136                          0.6855821              18.6556
      -------------------------------------------------------------
                  HL-Gap            0.0043146 Eh            0.1174 eV
             Fermi-level           -0.4536580 Eh          -12.3447 eV

 SCC (total)                   0 d,  0 h,  0 min,  0.196 sec
 SCC setup                      ...        0 min,  0.002 sec (  1.180%)
 Dispersion                     ...        0 min,  0.000 sec (  0.244%)
 classical contributions        ...        0 min,  0.000 sec (  0.088%)
 integral evaluation            ...        0 min,  0.050 sec ( 25.277%)
 iterations                     ...        0 min,  0.058 sec ( 29.607%)
 molecular gradient             ...        0 min,  0.084 sec ( 43.081%)
 printout                       ...        0 min,  0.001 sec (  0.496%)

         :::::::::::::::::::::::::::::::::::::::::::::::::::::
         ::                     SUMMARY                     ::
         :::::::::::::::::::::::::::::::::::::::::::::::::::::
         :: total energy             -83.101674164557 Eh    ::
         :: total w/o Gsasa/hb       -83.077076174996 Eh    ::
         :: gradient norm              0.142460350297 Eh/a0 ::
         :: HOMO-LUMO gap              0.117406494746 eV    ::
         ::.................................................::
         :: SCC energy               -83.868045825323 Eh    ::
         :: -> electrostatic           0.422029787001 Eh    ::
         :: -> Gsolv                  -0.119592005980 Eh    ::
         ::    -> Gelec               -0.094994016419 Eh    ::
         ::    -> Gsasa               -0.024483067553 Eh    ::
         ::    -> Ghb                 -0.007739201013 Eh    ::
         ::    -> Gshift               0.007624279005 Eh    ::
         :: repulsion energy           0.792676345835 Eh    ::
         :: dispersion energy         -0.026304685069 Eh    ::
         :: halogen bond corr.         0.000000000000 Eh    ::
         :: add. restraining           0.000000000000 Eh    ::
         :: total charge               1.000000000002 e     ::
         :::::::::::::::::::::::::::::::::::::::::::::::::::::

      ----------------------------------------------------------- 
     |                   =====================                   |
     |                        A N C O P T                        |
     |                   =====================                   |
     |               Approximate Normal Coordinate               |
     |                Rational Function Optimizer                |
      ----------------------------------------------------------- 

          ...................................................
          :                      SETUP                      :
          :.................................................:
          :   optimization level            normal          :
          :   max. optcycles                   200          :
          :   ANC micro-cycles                  20          :
          :   degrees of freedom               123          :
          :.................................................:
          :   RF solver                   davidson          :
          :   write xtbopt.log                true          :
          :   linear?                        false          :
          :   energy convergence         0.5000000E-05 Eh   :
          :   grad. convergence          0.1000000E-02 Eh/α :
          :   maximium RF displ.         1.0000000          :
          :   Hlow (freq-cutoff)         0.1000000E-01      :
          :   Hmax (freq-cutoff)         5.0000000          :
          :   S6 in model hess.         20.0000000          :
          ...................................................

generating ANC from model Hessian ...
Using Lindh-Hessian (1995)
 Shifting diagonal of input Hessian by   9.804737380666353E-003
 Lowest  eigenvalues of input Hessian
    0.000000    0.000000    0.000000    0.000000    0.000000    0.000000
    0.010000    0.010037    0.010492    0.011412    0.011954    0.012022
    0.013047    0.013145    0.014491    0.015269    0.018250    0.018808
 Highest eigenvalues
    2.011413    2.120161    2.194742    2.338455    2.342417    2.449979
 

........................................................................
.............................. CYCLE    1 ..............................
........................................................................
   1    -83.8680458 -0.838680E+02  0.879E-06    0.12       0.0  T
   2    -83.8680458  0.502439E-09  0.632E-05    0.12     241.2  T
   3    -83.8680458 -0.511676E-09  0.998E-07    0.12   15273.1  T
     SCC iter.                  ...        0 min,  0.011 sec
     gradient                   ...        0 min,  0.084 sec
 * total energy  :   -83.1016742 Eh     change       -0.4913261E-09 Eh
   gradient norm :     0.1424619 Eh/α   predicted     0.0000000E+00 (-100.00%)
   displ. norm   :     0.3191741 α      lambda       -0.1944827E-01
   maximum displ.:     0.1138137 α      in ANC's #22, #13, #27, ...

........................................................................
.............................. CYCLE    2 ..............................
........................................................................
   1    -83.8892477 -0.838892E+02  0.167E-01    0.19       0.0  T
   2    -83.5517787  0.337469E+00  0.162E+00    0.18       1.0  T
   3    -83.8917653 -0.339987E+00  0.851E-02    0.15       1.0  T
   4    -83.8921361 -0.370880E-03  0.527E-02    0.14       1.0  T
   5    -83.8924377 -0.301553E-03  0.155E-02    0.13       1.0  T
   6    -83.8923996  0.380698E-04  0.213E-02    0.11       1.0  T
   7    -83.8924473 -0.476263E-04  0.942E-03    0.12       1.6  T
   8    -83.8924587 -0.114811E-04  0.124E-03    0.12      12.3  T
   9    -83.8924589 -0.187974E-06  0.257E-04    0.12      59.4  T
  10    -83.8924589 -0.660607E-08  0.934E-05    0.12     163.3  T
  11    -83.8924589 -0.330260E-09  0.725E-05    0.12     210.3  T
     SCC iter.                  ...        0 min,  0.039 sec
     gradient                   ...        0 min,  0.084 sec
 * total energy  :   -83.1160530 Eh     change       -0.1437887E-01 Eh
   gradient norm :     0.0747296 Eh/α   predicted    -0.1072841E-01 ( -25.39%)
   displ. norm   :     0.3371580 α      lambda       -0.9569976E-02
   maximum displ.:     0.1341932 α      in ANC's #22, #13, #15, ...

........................................................................
.............................. CYCLE    3 ..............................
........................................................................
   1    -83.9040416 -0.839040E+02  0.166E-01    0.22       0.0  T
   2    -83.5550666  0.348975E+00  0.164E+00    0.18       1.0  T
   3    -83.9061543 -0.351088E+00  0.103E-01    0.17       1.0  T
   4    -83.9065890 -0.434728E-03  0.766E-02    0.16       1.0  T
   5    -83.9071060 -0.517007E-03  0.403E-02    0.14       1.0  T
   6    -83.9072766 -0.170564E-03  0.153E-02    0.12       1.0  T
   7    -83.9073005 -0.239468E-04  0.728E-03    0.13       2.1  T
   8    -83.9073075 -0.696416E-05  0.884E-04    0.13      17.2  T
   9    -83.9073075 -0.472404E-07  0.673E-04    0.13      22.7  T
  10    -83.9073076 -0.393160E-07  0.371E-04    0.13      41.1  T
  11    -83.9073076 -0.145982E-07  0.149E-04    0.13     102.4  T
  12    -83.9073076 -0.236886E-08  0.582E-05    0.13     262.0  T
     SCC iter.                  ...        0 min,  0.043 sec
     gradient                   ...        0 min,  0.084 sec
 * total energy  :   -83.1215085 Eh     change       -0.5455456E-02 Eh
   gradient norm :     0.0183767 Eh/α   predicted    -0.5330879E-02 (  -2.28%)
   displ. norm   :     0.2382063 α      lambda       -0.1327257E-02
   maximum displ.:     0.1057181 α      in ANC's #13, #7, #22, ...

........................................................................
.............................. CYCLE    4 ..............................
........................................................................
   1    -83.9055498 -0.839055E+02  0.459E-02    0.15       0.0  T
   2    -83.8692706  0.362791E-01  0.523E-01    0.04       1.0  T
   3    -83.9057472 -0.364766E-01  0.226E-02    0.14       1.0  T
   4    -83.9057712 -0.240050E-04  0.163E-02    0.14       1.0  T
   5    -83.9057967 -0.254287E-04  0.691E-03    0.13       2.2  T
   6    -83.9058022 -0.555596E-05  0.121E-03    0.13      12.6  T
   7    -83.9058023 -0.121085E-06  0.638E-04    0.13      23.9  T
   8    -83.9058024 -0.418131E-07  0.247E-04    0.13      61.7  T
   9    -83.9058024 -0.648812E-08  0.771E-05    0.13     197.7  T
  10    -83.9058024 -0.574005E-09  0.326E-05    0.13     468.2  T
     SCC iter.                  ...        0 min,  0.036 sec
     gradient                   ...        0 min,  0.085 sec
 * total energy  :   -83.1225336 Eh     change       -0.1025072E-02 Eh
   gradient norm :     0.0130823 Eh/α   predicted    -0.7013101E-03 ( -31.58%)
   displ. norm   :     0.3674332 α      lambda       -0.1261423E-02
   maximum displ.:     0.1773002 α      in ANC's #7, #13, #6, ...

........................................................................
.............................. CYCLE    5 ..............................
........................................................................
   1    -83.9036730 -0.839037E+02  0.429E-02    0.15       0.0  T
   2    -83.8856432  0.180298E-01  0.371E-01    0.06       1.0  T
   3    -83.9037584 -0.181152E-01  0.306E-02    0.14       1.0  T
   4    -83.9038166 -0.582742E-04  0.192E-02    0.14       1.0  T
   5    -83.9038526 -0.359538E-04  0.652E-03    0.13       2.3  T
   6    -83.9038573 -0.472996E-05  0.879E-04    0.13      17.3  T
   7    -83.9038574 -0.724668E-07  0.193E-04    0.13      79.1  T
   8    -83.9038574 -0.796092E-09  0.139E-04    0.13     109.9  T
     SCC iter.                  ...        0 min,  0.029 sec
     gradient                   ...        0 min,  0.085 sec
 * total energy  :   -83.1233919 Eh     change       -0.8583481E-03 Eh
   gradient norm :     0.0088811 Eh/α   predicted    -0.7158682E-03 ( -16.60%)
   displ. norm   :     0.3016740 α      lambda       -0.5346004E-03
   maximum displ.:     0.1733755 α      in ANC's #7, #6, #13, ...

........................................................................
.............................. CYCLE    6 ..............................
........................................................................
   1    -83.9040153 -0.839040E+02  0.233E-02    0.14       0.0  T
   2    -83.9007594  0.325583E-02  0.159E-01    0.09       1.0  T
   3    -83.9040404 -0.328092E-02  0.162E-02    0.14       1.0  T
   4    -83.9040633 -0.229612E-04  0.761E-03    0.14       2.0  T
   5    -83.9040693 -0.601848E-05  0.100E-03    0.13      15.2  T
   6    -83.9040693 -0.696247E-08  0.422E-04    0.13      36.2  T
   7    -83.9040694 -0.198151E-07  0.625E-05    0.13     244.0  T
   8    -83.9040694 -0.294875E-10  0.429E-05    0.13     355.6  T
     SCC iter.                  ...        0 min,  0.043 sec
     gradient                   ...        0 min,  0.084 sec
 * total energy  :   -83.1237931 Eh     change       -0.4012271E-03 Eh
   gradient norm :     0.0086824 Eh/α   predicted    -0.2916266E-03 ( -27.32%)
   displ. norm   :     0.3514281 α      lambda       -0.4902532E-03
   maximum displ.:     0.2251641 α      in ANC's #7, #6, #1, ...

........................................................................
.............................. CYCLE    7 ..............................
........................................................................
   1    -83.9057908 -0.839058E+02  0.105E-02    0.14       0.0  T
   2    -83.9056640  0.126803E-03  0.324E-02    0.13       1.0  T
   3    -83.9057712 -0.107198E-03  0.146E-02    0.14       1.0  T
   4    -83.9057967 -0.254317E-04  0.252E-03    0.14       6.1  T
   5    -83.9057970 -0.307905E-06  0.789E-04    0.14      19.3  T
   6    -83.9057970 -0.437387E-07  0.154E-04    0.14      99.1  T
   7    -83.9057970 -0.392745E-09  0.720E-05    0.14     211.9  T
     SCC iter.                  ...        0 min,  0.026 sec
     gradient                   ...        0 min,  0.085 sec
 * total energy  :   -83.1241652 Eh     change       -0.3720126E-03 Eh
   gradient norm :     0.0073678 Eh/α   predicted    -0.2754087E-03 ( -25.97%)
   displ. norm   :     0.3447053 α      lambda       -0.3951932E-03
   maximum displ.:     0.2229887 α      in ANC's #7, #6, #1, ...

........................................................................
.............................. CYCLE    8 ..............................
........................................................................
   1    -83.9076901 -0.839077E+02  0.210E-02    0.13       0.0  T
   2    -83.9067182  0.971957E-03  0.914E-02    0.18       1.0  T
   3    -83.9077328 -0.101464E-02  0.107E-02    0.14       1.4  T
   4    -83.9077447 -0.119331E-04  0.459E-03    0.14       3.3  T
   5    -83.9077465 -0.170972E-05  0.256E-03    0.14       6.0  T
   6    -83.9077472 -0.793845E-06  0.165E-04    0.14      92.7  T
   7    -83.9077472  0.535078E-08  0.218E-04    0.14      69.8  T
   8    -83.9077472 -0.599219E-08  0.193E-05    0.14     789.6  T
     SCC iter.                  ...        0 min,  0.027 sec
     gradient                   ...        0 min,  0.085 sec
 * total energy  :   -83.1244640 Eh     change       -0.2988901E-03 Eh
   gradient norm :     0.0054164 Eh/α   predicted    -0.2210849E-03 ( -26.03%)
   displ. norm   :     0.3111475 α      lambda       -0.2820217E-03
   maximum displ.:     0.1962043 α      in ANC's #7, #1, #6, ...

........................................................................
.............................. CYCLE    9 ..............................
........................................................................
   1    -83.9097741 -0.839098E+02  0.354E-02    0.13       0.0  T
   2    -83.9079334  0.184062E-02  0.130E-01    0.22       1.0  T
   3    -83.9098760 -0.194254E-02  0.210E-02    0.15       1.0  T
   4    -83.9099214 -0.453704E-04  0.973E-03    0.13       1.6  T
   5    -83.9099322 -0.108153E-04  0.269E-03    0.14       5.7  T
   6    -83.9099329 -0.758882E-06  0.695E-04    0.14      21.9  T
   7    -83.9099330 -0.399516E-07  0.392E-04    0.14      38.9  T
   8    -83.9099330 -0.196005E-07  0.169E-05    0.14     903.6  T
   9    -83.9099330  0.646594E-10  0.259E-05    0.14     588.0  T
     SCC iter.                  ...        0 min,  0.031 sec
     gradient                   ...        0 min,  0.085 sec
 * total energy  :   -83.1246612 Eh     change       -0.1971422E-03 Eh
   gradient norm :     0.0043037 Eh/α   predicted    -0.1546639E-03 ( -21.55%)
   displ. norm   :     0.2500439 α      lambda       -0.1406305E-03
   maximum displ.:     0.1404684 α      in ANC's #7, #1, #2, ...

........................................................................
.............................. CYCLE   10 ..............................
........................................................................
   1    -83.9093101 -0.839093E+02  0.418E-02    0.12       0.0  T
   2    -83.9071044  0.220567E-02  0.144E-01    0.23       1.0  T
   3    -83.9094327 -0.232822E-02  0.285E-02    0.15       1.0  T
   4    -83.9095244 -0.917578E-04  0.964E-03    0.13       1.6  T
   5    -83.9095328 -0.835898E-05  0.546E-03    0.14       2.8  T
   6    -83.9095363 -0.351258E-05  0.468E-04    0.14      32.6  T
   7    -83.9095363 -0.155455E-07  0.804E-05    0.14     189.6  T
   8    -83.9095363 -0.351406E-09  0.221E-05    0.14     689.3  T
     SCC iter.                  ...        0 min,  0.027 sec
     gradient                   ...        0 min,  0.085 sec
 * total energy  :   -83.1247456 Eh     change       -0.8436910E-04 Eh
   gradient norm :     0.0052417 Eh/α   predicted    -0.7471659E-04 ( -11.44%)
   displ. norm   :     0.1409226 α      lambda       -0.9248646E-04
   maximum displ.:     0.0807622 α      in ANC's #1, #2, #7, ...

........................................................................
.............................. CYCLE   11 ..............................
........................................................................
   1    -83.9114698 -0.839115E+02  0.167E-02    0.13       0.0  T
   2    -83.9108508  0.619011E-03  0.725E-02    0.17       1.0  T
   3    -83.9114989 -0.648170E-03  0.311E-03    0.14       4.9  T
   4    -83.9114990 -0.605216E-07  0.198E-03    0.14       7.7  T
   5    -83.9114988  0.191779E-06  0.156E-03    0.14       9.8  T
   6    -83.9114991 -0.297745E-06  0.134E-04    0.14     114.1  T
   7    -83.9114991 -0.162292E-08  0.401E-05    0.14     380.4  T
     SCC iter.                  ...        0 min,  0.024 sec
     gradient                   ...        0 min,  0.080 sec
 * total energy  :   -83.1247970 Eh     change       -0.5145684E-04 Eh
   gradient norm :     0.0036193 Eh/α   predicted    -0.4716757E-04 (  -8.34%)
   displ. norm   :     0.0959130 α      lambda       -0.5676718E-04
   maximum displ.:     0.0611453 α      in ANC's #1, #2, #3, ...

........................................................................
.............................. CYCLE   12 ..............................
........................................................................
   1    -83.9110234 -0.839110E+02  0.681E-03    0.13       0.0  T
   2    -83.9108609  0.162491E-03  0.368E-02    0.15       1.0  T
   3    -83.9110287 -0.167740E-03  0.261E-03    0.14       5.9  T
   4    -83.9110290 -0.300531E-06  0.176E-03    0.14       8.7  T
   5    -83.9110292 -0.272261E-06  0.321E-04    0.14      47.5  T
   6    -83.9110292 -0.631469E-08  0.954E-05    0.14     159.8  T
   7    -83.9110292 -0.860354E-09  0.161E-05    0.14     945.4  T
     SCC iter.                  ...        0 min,  0.024 sec
     gradient                   ...        0 min,  0.080 sec
 * total energy  :   -83.1248464 Eh     change       -0.4940298E-04 Eh
   gradient norm :     0.0026318 Eh/α   predicted    -0.2864492E-04 ( -42.02%)
   displ. norm   :     0.1864601 α      lambda       -0.1103287E-03
   maximum displ.:     0.1040424 α      in ANC's #2, #1, #3, ...

........................................................................
.............................. CYCLE   13 ..............................
........................................................................
   1    -83.9102207 -0.839102E+02  0.629E-03    0.14       0.0  T
   2    -83.9101561  0.645912E-04  0.226E-02    0.13       1.0  T
   3    -83.9102159 -0.597749E-04  0.814E-03    0.14       1.9  T
   4    -83.9102221 -0.616868E-05  0.331E-03    0.14       4.6  T
   5    -83.9102230 -0.928748E-06  0.109E-03    0.14      14.1  T
   6    -83.9102231 -0.120395E-06  0.905E-05    0.14     168.5  T
   7    -83.9102231 -0.382684E-09  0.293E-05    0.14     520.0  T
     SCC iter.                  ...        0 min,  0.024 sec
     gradient                   ...        0 min,  0.085 sec
 * total energy  :   -83.1249290 Eh     change       -0.8258976E-04 Eh
   gradient norm :     0.0031888 Eh/α   predicted    -0.5708338E-04 ( -30.88%)
   displ. norm   :     0.2043003 α      lambda       -0.8075275E-04
   maximum displ.:     0.1237367 α      in ANC's #2, #1, #3, ...

........................................................................
.............................. CYCLE   14 ..............................
........................................................................
   1    -83.9091113 -0.839091E+02  0.574E-03    0.14       0.0  T
   2    -83.9090043  0.106989E-03  0.291E-02    0.13       1.0  T
   3    -83.9091128 -0.108463E-03  0.371E-03    0.14       4.1  T
   4    -83.9091139 -0.115381E-05  0.167E-03    0.14       9.1  T
   5    -83.9091142 -0.221271E-06  0.369E-04    0.14      41.4  T
   6    -83.9091142 -0.116366E-07  0.532E-05    0.14     286.4  T
   7    -83.9091142 -0.546549E-10  0.168E-05    0.14     909.6  T
     SCC iter.                  ...        0 min,  0.024 sec
     gradient                   ...        0 min,  0.085 sec
 * total energy  :   -83.1249930 Eh     change       -0.6396638E-04 Eh
   gradient norm :     0.0040452 Eh/α   predicted    -0.4206226E-04 ( -34.24%)
   displ. norm   :     0.2231881 α      lambda       -0.7857567E-04
   maximum displ.:     0.1397691 α      in ANC's #1, #2, #3, ...

........................................................................
.............................. CYCLE   15 ..............................
........................................................................
   1    -83.9089513 -0.839090E+02  0.400E-03    0.14       0.0  T
   2    -83.9088943  0.569572E-04  0.215E-02    0.13       1.0  T
   3    -83.9089527 -0.583342E-04  0.157E-03    0.14       9.7  T
   4    -83.9089529 -0.256104E-06  0.533E-04    0.14      28.6  T
   5    -83.9089529 -0.977607E-09  0.307E-04    0.14      49.7  T
   6    -83.9089529 -0.886332E-08  0.437E-05    0.14     348.8  T
   7    -83.9089529 -0.198241E-10  0.127E-05    0.14    1198.1  T
     SCC iter.                  ...        0 min,  0.024 sec
     gradient                   ...        0 min,  0.084 sec
 * total energy  :   -83.1250614 Eh     change       -0.6845351E-04 Eh
   gradient norm :     0.0037945 Eh/α   predicted    -0.4124983E-04 ( -39.74%)
   displ. norm   :     0.3146763 α      lambda       -0.1114967E-03
   maximum displ.:     0.2027965 α      in ANC's #1, #2, #3, ...

........................................................................
.............................. CYCLE   16 ..............................
........................................................................
   1    -83.9091325 -0.839091E+02  0.438E-03    0.14       0.0  T
   2    -83.9090727  0.597050E-04  0.223E-02    0.13       1.0  T
   3    -83.9091342 -0.614705E-04  0.124E-03    0.14      12.3  T
   4    -83.9091339  0.274721E-06  0.192E-03    0.14       8.0  T
   5    -83.9091342 -0.259858E-06  0.918E-04    0.14      16.6  T
   6    -83.9091343 -0.909204E-07  0.104E-04    0.14     146.8  T
   7    -83.9091343 -0.862940E-09  0.141E-05    0.14    1082.0  T
     SCC iter.                  ...        0 min,  0.024 sec
     gradient                   ...        0 min,  0.084 sec
 * total energy  :   -83.1251567 Eh     change       -0.9525994E-04 Eh
   gradient norm :     0.0026754 Eh/α   predicted    -0.6127024E-04 ( -35.68%)
   displ. norm   :     0.4021609 α      lambda       -0.1226611E-03
   maximum displ.:     0.2612486 α      in ANC's #1, #2, #3, ...

........................................................................
.............................. CYCLE   17 ..............................
........................................................................
   1    -83.9095546 -0.839096E+02  0.474E-03    0.14       0.0  T
   2    -83.9095313  0.233024E-04  0.137E-02    0.14       1.1  T
   3    -83.9095514 -0.201468E-04  0.648E-03    0.13       2.4  T
   4    -83.9095555 -0.412739E-05  0.216E-03    0.14       7.1  T
   5    -83.9095558 -0.306150E-06  0.102E-03    0.14      14.9  T
   6    -83.9095559 -0.110699E-06  0.941E-05    0.14     162.1  T
   7    -83.9095559 -0.316433E-09  0.289E-05    0.14     527.2  T
     SCC iter.                  ...        0 min,  0.024 sec
     gradient                   ...        0 min,  0.084 sec
 * total energy  :   -83.1252568 Eh     change       -0.1001053E-03 Eh
   gradient norm :     0.0021882 Eh/α   predicted    -0.7125080E-04 ( -28.82%)
   displ. norm   :     0.4165001 α      lambda       -0.1053307E-03
   maximum displ.:     0.2702156 α      in ANC's #1, #2, #3, ...

........................................................................
.............................. CYCLE   18 ..............................
........................................................................
   1    -83.9101001 -0.839101E+02  0.618E-03    0.13       0.0  T
   2    -83.9099981  0.102028E-03  0.287E-02    0.15       1.0  T
   3    -83.9101034 -0.105266E-03  0.241E-03    0.14       6.3  T
   4    -83.9101036 -0.255699E-06  0.148E-03    0.14      10.3  T
   5    -83.9101037 -0.132894E-06  0.614E-04    0.14      24.8  T
   6    -83.9101038 -0.396045E-07  0.579E-05    0.14     263.3  T
   7    -83.9101038 -0.196493E-09  0.263E-05    0.14     580.6  T
     SCC iter.                  ...        0 min,  0.024 sec
     gradient                   ...        0 min,  0.084 sec
 * total energy  :   -83.1253437 Eh     change       -0.8689790E-04 Eh
   gradient norm :     0.0026768 Eh/α   predicted    -0.6180359E-04 ( -28.88%)
   displ. norm   :     0.4173813 α      lambda       -0.1009177E-03
   maximum displ.:     0.2698885 α      in ANC's #2, #1, #3, ...

........................................................................
.............................. CYCLE   19 ..............................
........................................................................
   1    -83.9107972 -0.839108E+02  0.878E-03    0.13       0.0  T
   2    -83.9105611  0.236071E-03  0.440E-02    0.15       1.0  T
   3    -83.9108060 -0.244838E-03  0.133E-03    0.14      11.5  T
   4    -83.9108060  0.476703E-09  0.893E-04    0.14      17.1  T
   5    -83.9108060 -0.189186E-07  0.489E-04    0.14      31.2  T
   6    -83.9108060 -0.229398E-07  0.788E-05    0.14     193.6  T
   7    -83.9108060 -0.622464E-09  0.233E-05    0.14     655.4  T
     SCC iter.                  ...        0 min,  0.024 sec
     gradient                   ...        0 min,  0.084 sec
 * total energy  :   -83.1254320 Eh     change       -0.8829393E-04 Eh
   gradient norm :     0.0031141 Eh/α   predicted    -0.5925038E-04 ( -32.89%)
   displ. norm   :     0.5164616 α      lambda       -0.1311267E-03
   maximum displ.:     0.3385405 α      in ANC's #2, #1, #3, ...

........................................................................
.............................. CYCLE   20 ..............................
........................................................................
   1    -83.9109729 -0.839110E+02  0.127E-02    0.13       0.0  T
   2    -83.9104894  0.483450E-03  0.636E-02    0.16       1.0  T
   3    -83.9109920 -0.502584E-03  0.298E-03    0.14       5.1  T
   4    -83.9109930 -0.944460E-06  0.624E-04    0.14      24.4  T
   5    -83.9109930 -0.632099E-09  0.238E-04    0.14      64.1  T
   6    -83.9109930  0.286357E-08  0.193E-04    0.14      79.0  T
   7    -83.9109930 -0.433290E-08  0.390E-05    0.14     390.5  T
     SCC iter.                  ...        0 min,  0.024 sec
     gradient                   ...        0 min,  0.084 sec
 * total energy  :   -83.1255493 Eh     change       -0.1173212E-03 Eh
   gradient norm :     0.0030170 Eh/α   predicted    -0.8305552E-04 ( -29.21%)
   displ. norm   :     0.5508113 α      lambda       -0.1476915E-03
   maximum displ.:     0.3657619 α      in ANC's #2, #1, #3, ...
 * RMSD in coord.:     0.7113910 α      energy gain  -0.2387514E-01 Eh

generating ANC from model Hessian ...
Using Lindh-Hessian (1995)
 Shifting diagonal of input Hessian by   9.805613929121958E-003
 Lowest  eigenvalues of input Hessian
    0.000000    0.000000    0.000000    0.000000    0.000000    0.000000
    0.010000    0.010047    0.010495    0.011134    0.011915    0.012121
    0.012902    0.013185    0.014353    0.014578    0.018203    0.018944
 Highest eigenvalues
    2.038172    2.081927    2.215191    2.391617    2.444267    2.448017
 

........................................................................
.............................. CYCLE   21 ..............................
........................................................................
   1    -83.9109365 -0.839109E+02  0.133E-02    0.13       0.0  T
   2    -83.9104079  0.528599E-03  0.666E-02    0.17       1.0  T
   3    -83.9109575 -0.549568E-03  0.357E-03    0.14       4.3  T
   4    -83.9109588 -0.127816E-05  0.896E-04    0.14      17.0  T
   5    -83.9109588 -0.347272E-07  0.265E-04    0.14      57.4  T
   6    -83.9109588  0.662575E-08  0.248E-04    0.14      61.5  T
   7    -83.9109588 -0.721305E-08  0.312E-05    0.14     488.5  T
   8    -83.9109588 -0.103384E-09  0.724E-06    0.14    2107.7  T
     SCC iter.                  ...        0 min,  0.027 sec
     gradient                   ...        0 min,  0.085 sec
 * total energy  :   -83.1256720 Eh     change       -0.1227472E-03 Eh
   gradient norm :     0.0030276 Eh/α   predicted     0.0000000E+00 (-100.00%)
   displ. norm   :     0.0362548 α      lambda       -0.3594330E-04
   maximum displ.:     0.0147592 α      in ANC's #7, #1, #2, ...

........................................................................
.............................. CYCLE   22 ..............................
........................................................................
   1    -83.9108147 -0.839108E+02  0.519E-03    0.14       0.0  T
   2    -83.9106710  0.143721E-03  0.341E-02    0.13       1.0  T
   3    -83.9108180 -0.146983E-03  0.165E-03    0.14       9.2  T
   4    -83.9108180  0.199525E-07  0.144E-03    0.14      10.6  T
   5    -83.9108182 -0.185864E-06  0.328E-04    0.14      46.6  T
   6    -83.9108182 -0.101339E-07  0.296E-05    0.14     515.9  T
   7    -83.9108182 -0.526654E-10  0.748E-06    0.14    2038.1  T
     SCC iter.                  ...        0 min,  0.024 sec
     gradient                   ...        0 min,  0.084 sec
 * total energy  :   -83.1257018 Eh     change       -0.2972639E-04 Eh
   gradient norm :     0.0014357 Eh/α   predicted    -0.1825388E-04 ( -38.59%)
   displ. norm   :     0.1642845 α      lambda       -0.6503894E-04
   maximum displ.:     0.0667166 α      in ANC's #1, #7, #2, ...

........................................................................
.............................. CYCLE   23 ..............................
........................................................................
   1    -83.9106110 -0.839106E+02  0.149E-02    0.14       0.0  T
   2    -83.9090035  0.160749E-02  0.113E-01    0.11       1.0  T
   3    -83.9106393 -0.163577E-02  0.249E-03    0.14       6.1  T
   4    -83.9106387  0.659108E-06  0.291E-03    0.14       5.2  T
   5    -83.9106391 -0.447550E-06  0.157E-03    0.14       9.7  T
   6    -83.9106394 -0.275013E-06  0.294E-04    0.14      51.9  T
   7    -83.9106394 -0.104302E-07  0.233E-05    0.14     654.0  T
   8    -83.9106394 -0.480327E-11  0.130E-05    0.14    1173.8  T
     SCC iter.                  ...        0 min,  0.027 sec
     gradient                   ...        0 min,  0.084 sec
 * total energy  :   -83.1257489 Eh     change       -0.4712630E-04 Eh
   gradient norm :     0.0034903 Eh/α   predicted    -0.3290996E-04 ( -30.17%)
   displ. norm   :     0.0481713 α      lambda       -0.2245298E-04
   maximum displ.:     0.0232214 α      in ANC's #1, #4, #7, ...

........................................................................
.............................. CYCLE   24 ..............................
........................................................................
   1    -83.9108770 -0.839109E+02  0.166E-03    0.14       0.0  T
   2    -83.9108687  0.825885E-05  0.834E-03    0.14       1.8  T
   3    -83.9108772 -0.847696E-05  0.947E-04    0.14      16.1  T
   4    -83.9108772  0.152109E-08  0.815E-04    0.14      18.7  T
   5    -83.9108772 -0.605431E-07  0.135E-04    0.14     113.2  T
   6    -83.9108772 -0.144156E-08  0.247E-05    0.14     617.5  T
     SCC iter.                  ...        0 min,  0.021 sec
     gradient                   ...        0 min,  0.084 sec
 * total energy  :   -83.1257688 Eh     change       -0.1990769E-04 Eh
   gradient norm :     0.0026165 Eh/α   predicted    -0.1125291E-04 ( -43.47%)
   displ. norm   :     0.1920965 α      lambda       -0.7296513E-04
   maximum displ.:     0.0928110 α      in ANC's #1, #4, #2, ...

........................................................................
.............................. CYCLE   25 ..............................
........................................................................
   1    -83.9112167 -0.839112E+02  0.855E-03    0.14       0.0  T
   2    -83.9109772  0.239423E-03  0.449E-02    0.16       1.0  T
   3    -83.9112236 -0.246358E-03  0.488E-03    0.14       3.1  T
   4    -83.9112255 -0.195005E-05  0.188E-03    0.14       8.1  T
   5    -83.9112258 -0.243435E-06  0.347E-04    0.14      43.9  T
   6    -83.9112258 -0.150273E-08  0.183E-04    0.14      83.2  T
   7    -83.9112258 -0.357937E-08  0.339E-05    0.14     450.0  T
     SCC iter.                  ...        0 min,  0.024 sec
     gradient                   ...        0 min,  0.073 sec
 * total energy  :   -83.1258144 Eh     change       -0.4563096E-04 Eh
   gradient norm :     0.0017408 Eh/α   predicted    -0.3790344E-04 ( -16.93%)
   displ. norm   :     0.1584249 α      lambda       -0.1894727E-04
   maximum displ.:     0.0822843 α      in ANC's #1, #4, #2, ...

........................................................................
.............................. CYCLE   26 ..............................
........................................................................
   1    -83.9112135 -0.839112E+02  0.569E-03    0.14       0.0  T
   2    -83.9110955  0.117970E-03  0.311E-02    0.15       1.0  T
   3    -83.9112174 -0.121896E-03  0.120E-03    0.14      12.7  T
   4    -83.9112175 -0.102023E-06  0.438E-04    0.14      34.8  T
   5    -83.9112175 -0.263218E-08  0.144E-04    0.14     105.6  T
   6    -83.9112175 -0.613184E-09  0.650E-05    0.14     234.7  T
     SCC iter.                  ...        0 min,  0.021 sec
     gradient                   ...        0 min,  0.079 sec
 * total energy  :   -83.1258344 Eh     change       -0.1999499E-04 Eh
   gradient norm :     0.0022576 Eh/α   predicted    -0.9580598E-05 ( -52.09%)
   displ. norm   :     0.0835130 α      lambda       -0.2031000E-04
   maximum displ.:     0.0474621 α      in ANC's #1, #4, #2, ...

........................................................................
.............................. CYCLE   27 ..............................
........................................................................
   1    -83.9114560 -0.839115E+02  0.244E-03    0.14       0.0  T
   2    -83.9114439  0.121187E-04  0.977E-03    0.14       1.6  T
   3    -83.9114558 -0.118633E-04  0.251E-03    0.14       6.1  T
   4    -83.9114563 -0.552019E-06  0.108E-03    0.14      14.1  T
   5    -83.9114564 -0.104988E-06  0.248E-04    0.14      61.5  T
   6    -83.9114564 -0.614891E-08  0.301E-05    0.14     507.4  T
   7    -83.9114564 -0.757296E-10  0.436E-06    0.14    3494.3  T
     SCC iter.                  ...        0 min,  0.025 sec
     gradient                   ...        0 min,  0.080 sec
 * total energy  :   -83.1258517 Eh     change       -0.1727953E-04 Eh
   gradient norm :     0.0015118 Eh/α   predicted    -0.1022645E-04 ( -40.82%)
   displ. norm   :     0.2324717 α      lambda       -0.3085369E-04
   maximum displ.:     0.1351285 α      in ANC's #1, #4, #2, ...

........................................................................
.............................. CYCLE   28 ..............................
........................................................................
   1    -83.9113605 -0.839114E+02  0.426E-03    0.14       0.0  T
   2    -83.9113461  0.143358E-04  0.106E-02    0.14       1.4  T
   3    -83.9113539 -0.782544E-05  0.802E-03    0.14       1.9  T
   4    -83.9113606 -0.668544E-05  0.253E-03    0.14       6.0  T
   5    -83.9113612 -0.571732E-06  0.575E-04    0.14      26.5  T
   6    -83.9113612 -0.328452E-07  0.738E-05    0.14     206.7  T
   7    -83.9113612 -0.510610E-09  0.142E-05    0.14    1077.3  T
     SCC iter.                  ...        0 min,  0.024 sec
     gradient                   ...        0 min,  0.080 sec
 * total energy  :   -83.1258792 Eh     change       -0.2750226E-04 Eh
   gradient norm :     0.0015593 Eh/α   predicted    -0.1580269E-04 ( -42.54%)
   displ. norm   :     0.1014175 α      lambda       -0.9767005E-05
   maximum displ.:     0.0637894 α      in ANC's #1, #2, #3, ...

........................................................................
.............................. CYCLE   29 ..............................
........................................................................
   1    -83.9114006 -0.839114E+02  0.888E-04    0.14       0.0  T
   2    -83.9113996  0.980665E-06  0.281E-03    0.14       5.4  T
   3    -83.9114005 -0.892278E-06  0.113E-03    0.14      13.5  T
   4    -83.9114006 -0.127063E-06  0.365E-04    0.14      41.8  T
   5    -83.9114006 -0.739324E-08  0.186E-04    0.14      82.0  T
   6    -83.9114006 -0.338494E-08  0.159E-05    0.14     957.5  T
     SCC iter.                  ...        0 min,  0.021 sec
     gradient                   ...        0 min,  0.080 sec
 * total energy  :   -83.1258923 Eh     change       -0.1310072E-04 Eh
   gradient norm :     0.0012845 Eh/α   predicted    -0.4906151E-05 ( -62.55%)
   displ. norm   :     0.1355982 α      lambda       -0.1903210E-04
   maximum displ.:     0.0844741 α      in ANC's #1, #2, #3, ...

........................................................................
.............................. CYCLE   30 ..............................
........................................................................
   1    -83.9115978 -0.839116E+02  0.388E-03    0.14       0.0  T
   2    -83.9115447  0.530585E-04  0.205E-02    0.13       1.0  T
   3    -83.9115986 -0.538750E-04  0.250E-03    0.14       6.1  T
   4    -83.9115990 -0.420278E-06  0.143E-03    0.14      10.7  T
   5    -83.9115992 -0.172506E-06  0.511E-04    0.14      29.8  T
   6    -83.9115992 -0.269426E-07  0.418E-05    0.14     365.0  T
   7    -83.9115992 -0.119286E-09  0.117E-05    0.14    1300.9  T
     SCC iter.                  ...        0 min,  0.024 sec
     gradient                   ...        0 min,  0.080 sec
 * total energy  :   -83.1259158 Eh     change       -0.2351462E-04 Eh
   gradient norm :     0.0009377 Eh/α   predicted    -0.9597758E-05 ( -59.18%)
   displ. norm   :     0.2151543 α      lambda       -0.2324272E-04
   maximum displ.:     0.1346646 α      in ANC's #1, #2, #3, ...

........................................................................
.............................. CYCLE   31 ..............................
........................................................................
   1    -83.9109364 -0.839109E+02  0.369E-03    0.14       0.0  T
   2    -83.9109049  0.314826E-04  0.157E-02    0.13       1.0  T
   3    -83.9109358 -0.309644E-04  0.380E-03    0.14       4.0  T
   4    -83.9109370 -0.114936E-05  0.187E-03    0.14       8.2  T
   5    -83.9109373 -0.308455E-06  0.527E-04    0.14      28.9  T
   6    -83.9109373 -0.281895E-07  0.414E-05    0.14     368.0  T
   7    -83.9109373 -0.119144E-09  0.144E-05    0.14    1056.4  T
     SCC iter.                  ...        0 min,  0.024 sec
     gradient                   ...        0 min,  0.080 sec
 * total energy  :   -83.1259429 Eh     change       -0.2704419E-04 Eh
   gradient norm :     0.0014859 Eh/α   predicted    -0.1186211E-04 ( -56.14%)
   displ. norm   :     0.2320806 α      lambda       -0.2070294E-04
   maximum displ.:     0.1463404 α      in ANC's #1, #2, #3, ...

........................................................................
.............................. CYCLE   32 ..............................
........................................................................
   1    -83.9108408 -0.839108E+02  0.158E-03    0.14       0.0  T
   2    -83.9108356  0.518943E-05  0.662E-03    0.14       2.3  T
   3    -83.9108410 -0.539630E-05  0.609E-04    0.14      25.0  T
   4    -83.9108410  0.227528E-07  0.637E-04    0.14      24.0  T
   5    -83.9108410 -0.329026E-07  0.129E-04    0.14     118.5  T
   6    -83.9108410 -0.836053E-09  0.282E-05    0.14     541.1  T
     SCC iter.                  ...        0 min,  0.021 sec
     gradient                   ...        0 min,  0.080 sec
 * total energy  :   -83.1259681 Eh     change       -0.2518434E-04 Eh
   gradient norm :     0.0017979 Eh/α   predicted    -0.1060041E-04 ( -57.91%)
   displ. norm   :     0.2591334 α      lambda       -0.2249999E-04
   maximum displ.:     0.1666230 α      in ANC's #1, #2, #3, ...

........................................................................
.............................. CYCLE   33 ..............................
........................................................................
   1    -83.9107041 -0.839107E+02  0.475E-03    0.14       0.0  T
   2    -83.9106190  0.851056E-04  0.264E-02    0.15       1.0  T
   3    -83.9107068 -0.878739E-04  0.875E-04    0.14      17.4  T
   4    -83.9107069 -0.592909E-07  0.305E-04    0.14      49.9  T
   5    -83.9107069 -0.819057E-09  0.113E-04    0.14     134.7  T
   6    -83.9107069 -0.171681E-09  0.554E-05    0.14     275.4  T
     SCC iter.                  ...        0 min,  0.021 sec
     gradient                   ...        0 min,  0.080 sec
 * total energy  :   -83.1259963 Eh     change       -0.2827323E-04 Eh
   gradient norm :     0.0016082 Eh/α   predicted    -0.1158671E-04 ( -59.02%)
   displ. norm   :     0.2984017 α      lambda       -0.2532942E-04
   maximum displ.:     0.1955794 α      in ANC's #1, #2, #3, ...

........................................................................
.............................. CYCLE   34 ..............................
........................................................................
   1    -83.9107816 -0.839108E+02  0.778E-03    0.14       0.0  T
   2    -83.9105815  0.200120E-03  0.404E-02    0.15       1.0  T
   3    -83.9107889 -0.207363E-03  0.758E-04    0.14      20.1  T
   4    -83.9107888  0.520560E-07  0.879E-04    0.14      17.4  T
   5    -83.9107889 -0.545613E-07  0.373E-04    0.14      40.9  T
   6    -83.9107889 -0.125666E-07  0.408E-05    0.14     373.9  T
   7    -83.9107889 -0.821103E-10  0.232E-05    0.14     658.5  T
     SCC iter.                  ...        0 min,  0.028 sec
     gradient                   ...        0 min,  0.080 sec
 * total energy  :   -83.1260278 Eh     change       -0.3150238E-04 Eh
   gradient norm :     0.0010517 Eh/α   predicted    -0.1316934E-04 ( -58.20%)
   displ. norm   :     0.3114066 α      lambda       -0.2305801E-04
   maximum displ.:     0.2077862 α      in ANC's #1, #2, #3, ...

........................................................................
.............................. CYCLE   35 ..............................
........................................................................
   1    -83.9109965 -0.839110E+02  0.885E-03    0.14       0.0  T
   2    -83.9107383  0.258234E-03  0.460E-02    0.16       1.0  T
   3    -83.9110060 -0.267738E-03  0.121E-03    0.14      12.6  T
   4    -83.9110061 -0.672985E-07  0.941E-04    0.14      16.2  T
   5    -83.9110062 -0.718400E-07  0.287E-04    0.14      53.0  T
   6    -83.9110062 -0.566551E-08  0.691E-05    0.14     220.8  T
   7    -83.9110062 -0.463544E-09  0.289E-05    0.14     528.5  T
     SCC iter.                  ...        0 min,  0.024 sec
     gradient                   ...        0 min,  0.080 sec
 * total energy  :   -83.1260554 Eh     change       -0.2758756E-04 Eh
   gradient norm :     0.0009475 Eh/α   predicted    -0.1203014E-04 ( -56.39%)
   displ. norm   :     0.2775124 α      lambda       -0.1730785E-04
   maximum displ.:     0.1879443 α      in ANC's #1, #2, #3, ...

........................................................................
.............................. CYCLE   36 ..............................
........................................................................
   1    -83.9111002 -0.839111E+02  0.439E-03    0.14       0.0  T
   2    -83.9110402  0.599943E-04  0.220E-02    0.15       1.0  T
   3    -83.9111021 -0.618559E-04  0.140E-03    0.14      10.9  T
   4    -83.9111021 -0.681778E-07  0.984E-04    0.14      15.5  T
   5    -83.9111022 -0.777548E-07  0.369E-04    0.14      41.4  T
   6    -83.9111022 -0.131901E-07  0.273E-05    0.14     558.9  T
   7    -83.9111022 -0.174936E-10  0.954E-06    0.14    1598.1  T
     SCC iter.                  ...        0 min,  0.024 sec
     gradient                   ...        0 min,  0.080 sec
 * total energy  :   -83.1260782 Eh     change       -0.2279733E-04 Eh
   gradient norm :     0.0011033 Eh/α   predicted    -0.8952909E-05 ( -60.73%)
   displ. norm   :     0.3135158 α      lambda       -0.2074307E-04
   maximum displ.:     0.2141847 α      in ANC's #1, #2, #3, ...

........................................................................
.............................. CYCLE   37 ..............................
........................................................................
   1    -83.9114239 -0.839114E+02  0.313E-03    0.14       0.0  T
   2    -83.9113982  0.256834E-04  0.144E-02    0.14       1.1  T
   3    -83.9114246 -0.263886E-04  0.144E-03    0.14      10.6  T
   4    -83.9114248 -0.154381E-06  0.656E-04    0.14      23.2  T
   5    -83.9114248 -0.293946E-07  0.247E-04    0.14      61.7  T
   6    -83.9114248 -0.528962E-08  0.269E-05    0.14     566.9  T
   7    -83.9114248 -0.143103E-10  0.820E-06    0.14    1858.7  T
     SCC iter.                  ...        0 min,  0.024 sec
     gradient                   ...        0 min,  0.080 sec
 * total energy  :   -83.1261041 Eh     change       -0.2584773E-04 Eh
   gradient norm :     0.0012100 Eh/α   predicted    -0.1082795E-04 ( -58.11%)
   displ. norm   :     0.2875449 α      lambda       -0.1820733E-04
   maximum displ.:     0.1990492 α      in ANC's #1, #2, #3, ...

........................................................................
.............................. CYCLE   38 ..............................
........................................................................
   1    -83.9112774 -0.839113E+02  0.168E-03    0.14       0.0  T
   2    -83.9112760  0.137064E-05  0.352E-03    0.14       4.3  T
   3    -83.9112770 -0.976726E-06  0.200E-03    0.14       7.6  T
   4    -83.9112775 -0.475488E-06  0.535E-04    0.14      28.5  T
   5    -83.9112775 -0.187424E-07  0.142E-04    0.14     107.3  T
   6    -83.9112775 -0.939181E-09  0.373E-05    0.14     409.3  T
     SCC iter.                  ...        0 min,  0.021 sec
     gradient                   ...        0 min,  0.080 sec
 * total energy  :   -83.1261250 Eh     change       -0.2088949E-04 Eh
   gradient norm :     0.0011138 Eh/α   predicted    -0.9443043E-05 ( -54.80%)
   displ. norm   :     0.1866074 α      lambda       -0.1383955E-04
   maximum displ.:     0.1343082 α      in ANC's #1, #2, #3, ...

........................................................................
.............................. CYCLE   39 ..............................
........................................................................
   1    -83.9121975 -0.839122E+02  0.556E-03    0.14       0.0  T
   2    -83.9120343  0.163243E-03  0.363E-02    0.13       1.0  T
   3    -83.9122012 -0.166900E-03  0.182E-03    0.14       8.4  T
   4    -83.9122014 -0.174324E-06  0.954E-04    0.14      16.0  T
   5    -83.9122014 -0.565718E-07  0.363E-04    0.14      42.0  T
   6    -83.9122014 -0.131807E-07  0.766E-05    0.14     199.1  T
   7    -83.9122014 -0.621100E-09  0.148E-05    0.14    1032.9  T
     SCC iter.                  ...        0 min,  0.024 sec
     gradient                   ...        0 min,  0.080 sec
 * total energy  :   -83.1261381 Eh     change       -0.1311648E-04 Eh
   gradient norm :     0.0013440 Eh/α   predicted    -0.7028612E-05 ( -46.41%)
   displ. norm   :     0.1572759 α      lambda       -0.8592849E-05
   maximum displ.:     0.1136456 α      in ANC's #1, #2, #3, ...

........................................................................
.............................. CYCLE   40 ..............................
........................................................................
   1    -83.9115246 -0.839115E+02  0.229E-03    0.14       0.0  T
   2    -83.9115129  0.117514E-04  0.101E-02    0.14       1.5  T
   3    -83.9115249 -0.120194E-04  0.159E-03    0.14       9.6  T
   4    -83.9115248  0.582621E-07  0.151E-03    0.14      10.1  T
   5    -83.9115250 -0.199893E-06  0.396E-04    0.14      38.5  T
   6    -83.9115251 -0.148258E-07  0.528E-05    0.14     288.8  T
   7    -83.9115251 -0.265956E-09  0.744E-06    0.14    2049.5  T
     SCC iter.                  ...        0 min,  0.024 sec
     gradient                   ...        0 min,  0.080 sec
 * total energy  :   -83.1261465 Eh     change       -0.8382050E-05 Eh
   gradient norm :     0.0006523 Eh/α   predicted    -0.4348157E-05 ( -48.13%)
   displ. norm   :     0.0402575 α      lambda       -0.3546860E-05
   maximum displ.:     0.0316493 α      in ANC's #1, #4, #2, ...

........................................................................
.............................. CYCLE   41 ..............................
........................................................................
   1    -83.9117789 -0.839118E+02  0.129E-03    0.14       0.0  T
   2    -83.9117776  0.123160E-05  0.331E-03    0.14       4.6  T
   3    -83.9117789 -0.123137E-05  0.799E-04    0.14      19.1  T
   4    -83.9117789 -0.368978E-07  0.507E-04    0.14      30.1  T
   5    -83.9117789 -0.173223E-07  0.193E-04    0.14      79.1  T
   6    -83.9117789 -0.352064E-08  0.325E-05    0.14     468.6  T
     SCC iter.                  ...        0 min,  0.021 sec
     gradient                   ...        0 min,  0.080 sec
 * total energy  :   -83.1261502 Eh     change       -0.3725950E-05 Eh
   gradient norm :     0.0006124 Eh/α   predicted    -0.1777976E-05 ( -52.28%)
   displ. norm   :     0.0443854 α      lambda       -0.3730654E-05
   maximum displ.:     0.0275081 α      in ANC's #1, #4, #16, ...

   *** GEOMETRY OPTIMIZATION CONVERGED AFTER 41 ITERATIONS ***

------------------------------------------------------------------------
 total energy gain   :        -0.0244760 Eh      -15.3589 kcal/mol
 total RMSD          :         1.1436378 a0        0.6052 Å
 total power (kW/mol):        -1.5673604 (step)  -10.5985 (real)
------------------------------------------------------------------------

 ANCopt (total)                0 d,  0 h,  0 min,  6.063 sec
 optimizer setup                ...        0 min,  0.001 sec (  0.014%)
 model hessian                  ...        0 min,  0.055 sec (  0.914%)
 ANC generation                 ...        0 min,  0.005 sec (  0.084%)
 coordinate transformation      ...        0 min,  0.001 sec (  0.023%)
 single point calculation       ...        0 min,  5.979 sec ( 98.616%)
 optimization log               ...        0 min,  0.011 sec (  0.179%)
 hessian update                 ...        0 min,  0.001 sec (  0.020%)
 rational function              ...        0 min,  0.005 sec (  0.089%)

================
 final structure:
================
43
 xtb: 6.5.1 (579679a)
C           -5.94909047681806       -1.10472837573886       -2.09358046822445
O           -4.73915365303180       -0.66181948504686       -1.46328024212591
C           -4.76252259077545       -0.54193789458517       -0.14964278875561
O           -5.73824197676069       -0.79276203414803        0.53479094788060
C           -3.48350697289661       -0.06380139932678        0.43661439166244
N           -2.44489473505879        0.17148027942337       -0.41666622342346
C           -1.32597434481537        0.60437128203112        0.06556506600096
C           -0.17901988356676        0.91911138009961       -0.86787091132838
C           -0.10576318386134        2.43229111708180       -1.09008372196991
C           -0.34759788155564        0.16796385590195       -2.19193984618693
N            1.07405268546901        0.49873797696974       -0.22752542959318
C            1.22174776851032       -0.73932370971862        0.27065980293020
O            0.36866960310477       -1.59797169684402        0.33058237234650
C            2.60995792997353       -0.97808781275636        0.79932112660340
N            3.03118243917409       -2.14630013721467        1.36841882190397
N            4.24702518365560       -2.00417277692511        1.68497221618090
C            4.70163322427126       -0.70439765339041        1.32638432676931
C            5.81523869217852       -0.78435974934784        0.27502062680900
C            5.12744385454384        0.08951549303536        2.56729380555042
O            3.54073746882908       -0.10205355077965        0.74785757270041
N           -1.14797326967284        0.84977128316811        1.38987698792684
C           -2.10525885392913        0.61689833000925        2.36615289368509
O           -1.86924588650314        0.82604930457617        3.53832999972823
C           -3.36943290800543        0.12078308388649        1.80069248175516
O           -4.34389714410616       -0.11768887956330        2.66323521713372
H           -6.26919910277926       -2.05419282050531       -1.65920168572694
H           -5.71958061065348       -1.22383894679237       -3.15023213054618
H           -6.73226630943827       -0.35680836640821       -1.95337428307291
H           -1.02918221505431        2.77853716622961       -1.55204932995349
H            0.72920279630694        2.66781973542387       -1.74670190644129
H            0.03105766595308        2.94545362003806       -0.14030331368669
H           -1.26877178689655        0.49651371145276       -2.67059725320877
H           -0.40593263461548       -0.90410534929965       -2.01035186104628
H            0.49688179965049        0.37999864043595       -2.84338339669889
H            1.86512876842640        1.11822806267178       -0.26752346127165
H            6.67631497752552       -1.28392278148730        0.71260860074309
H            6.08245328781120        0.22523737119107       -0.02645104651908
H            5.45611199721948       -1.34350577473036       -0.58614460261717
H            5.99156669847944       -0.39535440872733        3.01503227992463
H            4.30478305256618        0.11502268303542        3.27786193662722
H            5.38284971068991        1.10080095083245        2.26248441751950
H           -0.26281351501957        1.21092519153526        1.70818084015341
H           -5.15472066851129       -0.43437891572484        2.19201916990746
 
 Bond Distances (Angstroems)
 ---------------------------
C1-O2=1.4344         C1-H26=1.0921        C1-H27=1.0878        C1-H28=1.0920        O2-C1=1.4344         O2-C3=1.3193         
C3-O2=1.3193         C3-O4=1.2179         C3-C5=1.4860         O4-C3=1.2179         C5-C3=1.4860         C5-N6=1.3646         
C5-C24=1.3812        N6-C5=1.3646         N6-C7=1.2930         C7-N6=1.2930         C7-C8=1.5119         C7-N21=1.3586        
C8-C7=1.5119         C8-C9=1.5312         C8-C10=1.5316        C8-N11=1.4687        C9-C8=1.5312         C9-H29=1.0890        
C9-H30=1.0880        C9-H31=1.0882        C10-C8=1.5316        C10-H32=1.0889       C10-H33=1.0889       C10-H34=1.0874       
N11-C8=1.4687        N11-C12=1.3427       N11-H35=1.0056       C12-N11=1.3427       C12-O13=1.2119       C12-C14=1.5045       
O13-C12=1.2119       C14-C12=1.5045       C14-N15=1.3660       C14-O20=1.2792       N15-C14=1.3660       N15-N16=1.2644       
N16-N15=1.2644       N16-C17=1.4229       C17-N16=1.4229       C17-C18=1.5336       C17-C19=1.5335       C17-O20=1.4301       
C18-C17=1.5336       C18-H36=1.0874       C18-H37=1.0870       C18-H38=1.0878       C19-C17=1.5335       C19-H39=1.0873       
C19-H40=1.0873       C19-H41=1.0867       O20-C14=1.2792       O20-C17=1.4301       N21-C7=1.3586        N21-C22=1.3870       
N21-H42=1.0076       C22-N21=1.3870       C22-O23=1.2139       C22-C24=1.4711       O23-C22=1.2139       C24-C5=1.3812        
C24-C22=1.4711       C24-O25=1.3230       O25-C24=1.3230       O25-H43=0.9898       H26-C1=1.0921        H27-C1=1.0878        
H28-C1=1.0920        H29-C9=1.0890        H30-C9=1.0880        H31-C9=1.0882        H32-C10=1.0889       H33-C10=1.0889       
H34-C10=1.0874       H35-N11=1.0056       H36-C18=1.0874       H37-C18=1.0870       H38-C18=1.0878       H39-C19=1.0873       
H40-C19=1.0873       H41-C19=1.0867       H42-N21=1.0076       H43-O25=0.9898       
 C  H  Rav=1.0884 sigma=0.0016  Rmin=1.0867  Rmax=1.0921    15
 C  C  Rav=1.4983 sigma=0.0465  Rmin=1.3812  Rmax=1.5336     9
 N  H  Rav=1.0066 sigma=0.0010  Rmin=1.0056  Rmax=1.0076     2
 N  C  Rav=1.3754 sigma=0.0493  Rmin=1.2930  Rmax=1.4687     8
 N  N  Rav=1.2644 sigma=0.0000  Rmin=1.2644  Rmax=1.2644     1
 O  H  Rav=0.9898 sigma=0.0000  Rmin=0.9898  Rmax=0.9898     1
 O  C  Rav=1.3037 sigma=0.0852  Rmin=1.2119  Rmax=1.4344     8
 
 selected bond angles (degree)
 --------------------
H26-C1-O2=109.93               H27-C1-O2=106.42               H27-C1-H26=110.67              H28-C1-O2=109.70               
H28-C1-H26=109.52              H28-C1-H27=110.55              C3-O2-C1=116.79                O4-C3-O2=123.71                
C5-C3-O2=114.01                C5-C3-O4=122.28                N6-C5-C3=117.64                C24-C5-C3=120.25               
C24-C5-N6=122.12               C7-N6-C5=118.89                C8-C7-N6=119.73                N21-C7-N6=122.51               
N21-C7-C8=117.70               C9-C8-C7=109.37                C10-C8-C7=110.37               C10-C8-C9=111.38               
N11-C8-C7=108.57               N11-C8-C9=107.78               N11-C8-C10=109.30              H29-C9-C8=109.58               
H30-C9-C8=109.77               H30-C9-H29=109.02              H31-C9-C8=110.21               H31-C9-H29=109.08              
H31-C9-H30=109.16              H32-C10-C8=108.98              H33-C10-C8=110.16              H33-C10-H32=108.97             
H34-C10-C8=109.68              H34-C10-H32=109.56             H34-C10-H33=109.48             
 
 selected dihedral angles (degree)
 ---------------------------------
C3-O2-C1-H26=304.55           C3-O2-C1-H27=184.66           C3-O2-C1-H28= 65.04           O4-C3-O2-C1=  0.49            
C5-C3-O2-C1=180.71            N6-C5-C3-O2=358.93            N6-C5-C3-O4=179.14            C24-C5-C3-O2=179.34           
C24-C5-C3-O4=359.55           C7-N6-C5-C3=179.13            C7-N6-C5-C24=358.71           C8-C7-N6-C5=182.21            
N21-C7-N6-C5=359.21           C9-C8-C7-N6=100.81            C9-C8-C7-N21=283.67           C10-C8-C7-N6=337.95           
C10-C8-C7-N21=160.81          N11-C8-C7-N6=218.17           N11-C8-C7-N21= 41.03          H29-C9-C8-C7=298.66           
H29-C9-C8-C10= 60.93          H29-C9-C8-N11=180.81          H30-C9-C8-C7=178.96           H30-C9-C8-C10=301.23          
H30-C9-C8-N11= 61.11          H31-C9-C8-C7= 58.71           H31-C9-C8-C10=180.98          H31-C9-C8-N11=300.85          
H32-C10-C8-C7= 61.66          H32-C10-C8-C9=299.98          H32-C10-C8-N11=181.00         H33-C10-C8-C7=302.17          
H33-C10-C8-C9=180.48          H33-C10-C8-N11= 61.51         H34-C10-C8-C7=181.60          H34-C10-C8-C9= 59.91          
H34-C10-C8-N11=300.94         
           -------------------------------------------------
          |                Final Singlepoint                |
           -------------------------------------------------

          ...................................................
          :                      SETUP                      :
          :.................................................:
          :  # basis functions                 136          :
          :  # atomic orbitals                 136          :
          :  # shells                           86          :
          :  # electrons                       134          :
          :  # halogen bonds                     0          :
          :  max. iterations                   250          :
          :  Hamiltonian                  GFN1-xTB          :
          :  restarted?                      false          :
          :  GBSA solvation                   true          :
          :  PC potential                    false          :
          :  electronic temp.          300.0000000     K    :
          :  accuracy                    1.0000000          :
          :  -> integral cutoff          0.2500000E+02      :
          :  -> integral neglect         0.1000000E-07      :
          :  -> SCF convergence          0.1000000E-05 Eh   :
          :  -> wf. convergence          0.2000000E-04 e    :
          :  Broyden damping             0.4000000          :
          ...................................................

 iter      E             dE          RMSdq      gap      omega  full diag
   1    -83.9117789 -0.839118E+02  0.504E-06    0.14       0.0  T
   2    -83.9117789  0.648157E-10  0.230E-05    0.14     662.4  T
   3    -83.9117789 -0.667342E-10  0.172E-06    0.14    8886.1  T

   *** convergence criteria satisfied after 3 iterations ***

         #    Occupation            Energy/Eh            Energy/eV
      -------------------------------------------------------------
         1        2.0000           -0.9339948             -25.4153
       ...           ...                  ...                  ...
        61        2.0000           -0.5061444             -13.7729
        62        2.0000           -0.5046439             -13.7321
        63        2.0000           -0.5022298             -13.6664
        64        2.0000           -0.4958338             -13.4923
        65        2.0000           -0.4782431             -13.0137
        66        2.0000           -0.4645216             -12.6403
        67        1.8718           -0.4472674             -12.1708 (HOMO)
        68        0.1282           -0.4421736             -12.0322 (LUMO)
        69                         -0.3586201              -9.7586
        70                         -0.3423287              -9.3152
        71                         -0.3038539              -8.2683
        72                         -0.2587891              -7.0420
       ...                                ...                  ...
       136                          0.7117405              19.3674
      -------------------------------------------------------------
                  HL-Gap            0.0050938 Eh            0.1386 eV
             Fermi-level           -0.4447205 Eh          -12.1015 eV

 SCC (total)                   0 d,  0 h,  0 min,  0.128 sec
 SCC setup                      ...        0 min,  0.002 sec (  1.484%)
 Dispersion                     ...        0 min,  0.000 sec (  0.270%)
 classical contributions        ...        0 min,  0.000 sec (  0.089%)
 integral evaluation            ...        0 min,  0.034 sec ( 26.451%)
 iterations                     ...        0 min,  0.011 sec (  8.623%)
 molecular gradient             ...        0 min,  0.080 sec ( 62.406%)
 printout                       ...        0 min,  0.001 sec (  0.648%)

         :::::::::::::::::::::::::::::::::::::::::::::::::::::
         ::                     SUMMARY                     ::
         :::::::::::::::::::::::::::::::::::::::::::::::::::::
         :: total energy             -83.126150183373 Eh    ::
         :: total w/o Gsasa/hb       -83.101019488124 Eh    ::
         :: gradient norm              0.000610980172 Eh/a0 ::
         :: HOMO-LUMO gap              0.138609526047 eV    ::
         ::.................................................::
         :: SCC energy               -83.911778918894 Eh    ::
         :: -> electrostatic           0.422392999264 Eh    ::
         :: -> Gsolv                  -0.123790206820 Eh    ::
         ::    -> Gelec               -0.098659511571 Eh    ::
         ::    -> Gsasa               -0.024651280532 Eh    ::
         ::    -> Ghb                 -0.008103693722 Eh    ::
         ::    -> Gshift               0.007624279005 Eh    ::
         :: repulsion energy           0.812089048562 Eh    ::
         :: dispersion energy         -0.026460313041 Eh    ::
         :: halogen bond corr.         0.000000000000 Eh    ::
         :: add. restraining           0.000000000000 Eh    ::
         :: total charge               1.000000001776 e     ::
         :::::::::::::::::::::::::::::::::::::::::::::::::::::

           -------------------------------------------------
          |                Property Printout                |
           -------------------------------------------------

    * Orbital Energies and Occupations

         #    Occupation            Energy/Eh            Energy/eV
      -------------------------------------------------------------
         1        2.0000           -0.9339948             -25.4153
       ...           ...                  ...                  ...
        55        2.0000           -0.5373813             -14.6229
        56        2.0000           -0.5283783             -14.3779
        57        2.0000           -0.5241794             -14.2636
        58        2.0000           -0.5223558             -14.2140
        59        2.0000           -0.5154918             -14.0272
        60        2.0000           -0.5108615             -13.9012
        61        2.0000           -0.5061444             -13.7729
        62        2.0000           -0.5046439             -13.7321
        63        2.0000           -0.5022298             -13.6664
        64        2.0000           -0.4958338             -13.4923
        65        2.0000           -0.4782431             -13.0137
        66        2.0000           -0.4645216             -12.6403
        67        1.8718           -0.4472674             -12.1708 (HOMO)
        68        0.1282           -0.4421736             -12.0322 (LUMO)
        69                         -0.3586201              -9.7586
        70                         -0.3423287              -9.3152
        71                         -0.3038539              -8.2683
        72                         -0.2587891              -7.0420
        73                         -0.2576030              -7.0097
        74                         -0.1782354              -4.8500
        75                         -0.1608497              -4.3769
        76                         -0.1552689              -4.2251
        77                         -0.1495645              -4.0699
        78                         -0.1434659              -3.9039
       ...                                ...                  ...
       136                          0.7117405              19.3674
      -------------------------------------------------------------
                  HL-Gap            0.0050938 Eh            0.1386 eV
             Fermi-level           -0.4447205 Eh          -12.1015 eV

  Mulliken/CM5 charges         n(s)   n(p)   n(d)
     1C     0.15985  0.03881   0.985  2.856  0.000
     2O    -0.39483 -0.47790   1.681  4.714  0.000
     3C     0.57885  0.64385   0.966  2.455  0.000
     4O    -0.56297 -0.62903   1.724  4.839  0.000
     5C     0.07867  0.15620   1.046  2.875  0.000
     6N    -0.34388 -0.52905   1.525  3.819  0.000
     7C     0.29879  0.45207   1.016  2.685  0.000
     8C     0.14991  0.18965   1.069  2.781  0.000
     9C    -0.11669 -0.25742   1.027  3.090  0.000
    10C    -0.10141 -0.23969   1.021  3.080  0.000
    11N    -0.31797 -0.67618   1.444  3.873  0.000
    12C     0.48055  0.59205   0.965  2.555  0.000
    13O    -0.53905 -0.57922   1.719  4.820  0.000
    14C     0.43916  0.55644   1.060  2.501  0.000
    15N    -0.11537 -0.20662   1.546  3.570  0.000
    16N    -0.07371 -0.17233   1.580  3.494  0.000
    17C     0.34446  0.41447   1.055  2.600  0.000
    18C    -0.08897 -0.22745   1.032  3.057  0.000
    19C    -0.08916 -0.22775   1.032  3.057  0.000
    20O    -0.30867 -0.37362   1.690  4.619  0.000
    21N    -0.28433 -0.62995   1.437  3.847  0.000
    22C     0.46599  0.56801   0.982  2.552  0.000
    23O    -0.54562 -0.58453   1.723  4.823  0.000
    24C     0.25359  0.28858   1.033  2.713  0.000
    25O    -0.48554 -0.67281   1.695  4.791  0.000
    26H     0.06119  0.12339   0.939  0.000  0.000
    27H     0.06095  0.12129   0.939  0.000  0.000
    28H     0.06097  0.12229   0.939  0.000  0.000
    29H     0.06957  0.12428   0.930  0.000  0.000
    30H     0.07290  0.12848   0.927  0.000  0.000
    31H     0.06325  0.12099   0.937  0.000  0.000
    32H     0.06169  0.11953   0.938  0.000  0.000
    33H     0.06401  0.12530   0.936  0.000  0.000
    34H     0.06033  0.11624   0.940  0.000  0.000
    35H     0.29562  0.50040   0.704  0.000  0.000
    36H     0.08924  0.14492   0.911  0.000  0.000
    37H     0.09386  0.14936   0.906  0.000  0.000
    38H     0.08803  0.14645   0.912  0.000  0.000
    39H     0.08920  0.14486   0.911  0.000  0.000
    40H     0.08800  0.14643   0.912  0.000  0.000
    41H     0.09401  0.14959   0.906  0.000  0.000
    42H     0.28617  0.49303   0.714  0.000  0.000
    43H     0.41934  0.60658   0.581  0.000  0.000

Wiberg/Mayer (AO) data.
largest (>0.10) Wiberg bond orders for each atom

 ---------------------------------------------------------------------------
     #   Z sym  total        # sym  WBO       # sym  WBO       # sym  WBO
 ---------------------------------------------------------------------------
     1   6 C    3.858 --    27 H    0.986    26 H    0.978    28 H    0.978
                             2 O    0.885
     2   8 O    2.226 --     3 C    1.151     1 C    0.885     4 O    0.134
     3   6 C    3.850 --     4 O    1.609     2 O    1.151     5 C    1.009
     4   8 O    1.950 --     3 C    1.609     2 O    0.134
     5   6 C    3.920 --    24 C    1.438     6 N    1.209     3 C    1.009
     6   7 N    2.991 --     7 C    1.546     5 C    1.209
     7   6 C    3.900 --     6 N    1.546    21 N    1.193     8 C    0.977
     8   6 C    3.914 --     9 C    0.979    10 C    0.979     7 C    0.977
                            11 N    0.912
     9   6 C    3.981 --    31 H    0.983    29 H    0.981    30 H    0.980
                             8 C    0.979
    10   6 C    3.979 --    34 H    0.984    33 H    0.981    32 H    0.980
                             8 C    0.979
    11   7 N    3.399 --    12 C    1.280     8 C    0.912    35 H    0.879
                            13 O    0.211
    12   6 C    3.925 --    13 O    1.609    11 N    1.280    14 C    0.953
    13   8 O    1.929 --    12 C    1.609    11 N    0.211
    14   6 C    3.731 --    20 O    1.310    15 N    1.225    12 C    0.953
    15   7 N    3.012 --    16 N    1.647    14 C    1.225
    16   7 N    2.899 --    15 N    1.647    17 C    1.056
    17   6 C    3.815 --    16 N    1.056    19 C    0.906    18 C    0.905
                            20 O    0.859
    18   6 C    3.940 --    38 H    0.979    36 H    0.977    37 H    0.976
                            17 C    0.905
    19   6 C    3.940 --    40 H    0.979    39 H    0.977    41 H    0.976
                            17 C    0.906
    20   8 O    2.349 --    14 C    1.310    17 C    0.859
    21   7 N    3.455 --     7 C    1.193    22 C    1.105    42 H    0.881
                            23 O    0.127
    22   6 C    3.896 --    23 O    1.626    21 N    1.105    24 C    1.043
    23   8 O    1.894 --    22 C    1.626    21 N    0.127
    24   6 C    3.863 --     5 C    1.438    25 O    1.161    22 C    1.043
    25   8 O    2.093 --    24 C    1.161    43 H    0.760
    26   1 H    1.005 --     1 C    0.978
    27   1 H    1.009 --     1 C    0.986
    28   1 H    1.004 --     1 C    0.978
    29   1 H    0.997 --     9 C    0.981
    30   1 H    0.993 --     9 C    0.980
    31   1 H    0.996 --     9 C    0.983
    32   1 H    1.005 --    10 C    0.980
    33   1 H    1.004 --    10 C    0.981
    34   1 H    0.998 --    10 C    0.984
    35   1 H    0.916 --    11 N    0.879
    36   1 H    0.992 --    18 C    0.977
    37   1 H    0.991 --    18 C    0.976
    38   1 H    0.991 --    18 C    0.979
    39   1 H    0.992 --    19 C    0.977
    40   1 H    0.991 --    19 C    0.979
    41   1 H    0.991 --    19 C    0.976
    42   1 H    0.925 --    21 N    0.881
    43   1 H    0.842 --    25 O    0.760
 ---------------------------------------------------------------------------

Topologies differ in total number of bonds
Writing topology from bond orders to xtbtopo.mol

 dipole moment from electron density (au)
     X       Y       Z   
   6.8884   2.0220  -1.5643  total (Debye):   18.676

           -------------------------------------------------
          |                Geometry Summary                 |
           -------------------------------------------------

      molecular mass/u    :      352.3231817
   center of mass at/Å    :       -0.4354562      -0.2000677       0.5437181
  moments of inertia/u·Å² :        0.1092619E+04   0.4789494E+04   0.5164433E+04
rotational constants/cm⁻¹ :        0.1542864E-01   0.3519711E-02   0.3264179E-02

 * 40 selected distances

     #   Z          #   Z                                           value/Å
     1   6 C        2   8 O                                       1.4343619
     2   8 O        3   6 C                                       1.3193034
     3   6 C        4   8 O                                       1.2179454
     5   6 C        6   7 N                                       1.3646102
     6   7 N        7   6 C                                       1.2930293
     8   6 C        9   6 C                                       1.5311624
     8   6 C       10   6 C                                       1.5316005
     8   6 C       11   7 N                                       1.4686550
    11   7 N       12   6 C                                       1.3426837
    12   6 C       13   8 O                                       1.2118621
    14   6 C       15   7 N                                       1.3660244
    15   7 N       16   7 N                                       1.2643892
    16   7 N       17   6 C                                       1.4229088
    17   6 C       18   6 C                                       1.5335831 (max)
    17   6 C       19   6 C                                       1.5334502
    14   6 C       20   8 O                                       1.2792323
    17   6 C       20   8 O                                       1.4301017
     7   6 C       21   7 N                                       1.3585683
    21   7 N       22   6 C                                       1.3869897
    22   6 C       23   8 O                                       1.2138557
     5   6 C       24   6 C                                       1.3812291
    24   6 C       25   8 O                                       1.3230381
     1   6 C       26   1 H                                       1.0920794
     1   6 C       27   1 H                                       1.0878304
     1   6 C       28   1 H                                       1.0919738
     9   6 C       29   1 H                                       1.0890369
     9   6 C       30   1 H                                       1.0880209
     9   6 C       31   1 H                                       1.0881814
    10   6 C       32   1 H                                       1.0888616
    10   6 C       33   1 H                                       1.0889030
    10   6 C       34   1 H                                       1.0874206
    11   7 N       35   1 H                                       1.0055692
    18   6 C       36   1 H                                       1.0874277
    18   6 C       37   1 H                                       1.0870029
    18   6 C       38   1 H                                       1.0877601
    19   6 C       39   1 H                                       1.0873257
    19   6 C       40   1 H                                       1.0873494
    19   6 C       41   1 H                                       1.0866644
    21   7 N       42   1 H                                       1.0075999
    25   8 O       43   1 H                                       0.9898344 (min)

 * 7 distinct bonds (by element types)

   Z      Z             #   av. dist./Å        max./Å        min./Å
   1 H    6 C          15     1.0883892     1.0920794     1.0866644
   6 C    6 C           5     1.5022051     1.5335831     1.3812291
   1 H    7 N           2     1.0065845     1.0075999     1.0055692
   6 C    7 N           8     1.3754337     1.4686550     1.2930293
   7 N    7 N           1     1.2643892     1.2643892     1.2643892
   1 H    8 O           1     0.9898344     0.9898344     0.9898344
   6 C    8 O           8     1.3037126     1.4343619     1.2118621


optimized geometry written to: xtbopt.xyz


           -------------------------------------------------
          | TOTAL ENERGY              -83.126150183373 Eh   |
          | GRADIENT NORM               0.000610980172 Eh/α |
          | HOMO-LUMO GAP               0.138609526047 eV   |
           -------------------------------------------------

------------------------------------------------------------------------
 * finished run on 2023/06/20 at 15:35:56.925     
------------------------------------------------------------------------
 total:
 * wall-time:     0 d,  0 h,  0 min,  6.487 sec
 *  cpu-time:     0 d,  0 h,  0 min,  6.400 sec
 * ratio c/w:     0.987 speedup
 SCF:
 * wall-time:     0 d,  0 h,  0 min,  0.197 sec
 *  cpu-time:     0 d,  0 h,  0 min,  0.183 sec
 * ratio c/w:     0.931 speedup
 ANC optimizer:
 * wall-time:     0 d,  0 h,  0 min,  6.197 sec
 *  cpu-time:     0 d,  0 h,  0 min,  6.167 sec
 * ratio c/w:     0.995 speedup

