      -----------------------------------------------------------      
     |                   =====================                   |     
     |                           x T B                           |     
     |                   =====================                   |     
     |                         S. Grimme                         |     
     |          Mulliken Center for Theoretical Chemistry        |     
     |                    University of Bonn                     |     
      -----------------------------------------------------------      

   * xtb version 6.5.1 (579679a) compiled by 'ehlert@majestix' on 2022-07-11

   xtb is free software: you can redistribute it and/or modify it under
   the terms of the GNU Lesser General Public License as published by
   the Free Software Foundation, either version 3 of the License, or
   (at your option) any later version.
   
   xtb is distributed in the hope that it will be useful,
   but WITHOUT ANY WARRANTY; without even the implied warranty of
   MERCHANTABILITY or FITNESS FOR A PARTICULAR PURPOSE.  See the
   GNU Lesser General Public License for more details.
   
   Cite this work as:
   * C. Bannwarth, E. Caldeweyher, S. Ehlert, A. Hansen, P. Pracht,
     J. Seibert, S. Spicher, S. Grimme, WIREs Comput. Mol. Sci., 2020, 11,
     e01493. DOI: 10.1002/wcms.1493
   
   for GFN2-xTB:
   * C. Bannwarth, S. Ehlert and S. Grimme., J. Chem. Theory Comput., 2019,
     15, 1652-1671. DOI: 10.1021/acs.jctc.8b01176
   for GFN1-xTB:
   * S. Grimme, C. Bannwarth, P. Shushkov, J. Chem. Theory Comput., 2017,
     13, 1989-2009. DOI: 10.1021/acs.jctc.7b00118
   for GFN0-xTB:
   * P. Pracht, E. Caldeweyher, S. Ehlert, S. Grimme, ChemRxiv, 2019, preprint.
     DOI: 10.26434/chemrxiv.8326202.v1
   for GFN-FF:
   * S. Spicher and S. Grimme, Angew. Chem. Int. Ed., 2020, 59, 15665-15673.
     DOI: 10.1002/anie.202004239
   
   for ALPB and GBSA implicit solvation:
   * S. Ehlert, M. Stahn, S. Spicher, S. Grimme, J. Chem. Theory Comput.,
     2021, 17, 4250-4261. DOI: 10.1021/acs.jctc.1c00471
   
   for DFT-D4:
   * E. Caldeweyher, C. Bannwarth and S. Grimme, J. Chem. Phys., 2017,
     147, 034112. DOI: 10.1063/1.4993215
   * E. Caldeweyher, S. Ehlert, A. Hansen, H. Neugebauer, S. Spicher,
     C. Bannwarth and S. Grimme, J. Chem. Phys., 2019, 150, 154122.
     DOI: 10.1063/1.5090222
   * E. Caldeweyher, J.-M. Mewes, S. Ehlert and S. Grimme, Phys. Chem. Chem. Phys.
     2020, 22, 8499-8512. DOI: 10.1039/D0CP00502A
   
   for sTDA-xTB:
   * S. Grimme and C. Bannwarth, J. Chem. Phys., 2016, 145, 054103.
     DOI: 10.1063/1.4959605
   
   in the mass-spec context:
   * V. Asgeirsson, C. Bauer and S. Grimme, Chem. Sci., 2017, 8, 4879.
     DOI: 10.1039/c7sc00601b
   * J. Koopman and S. Grimme, ACS Omega 2019, 4, 12, 15120-15133.
     DOI: 10.1021/acsomega.9b02011
   
   for metadynamics refer to:
   * S. Grimme, J. Chem. Theory Comput., 2019, 155, 2847-2862
     DOI: 10.1021/acs.jctc.9b00143
   
   for SPH calculations refer to:
   * S. Spicher and S. Grimme, J. Chem. Theory Comput., 2021, 17, 1701-1714
     DOI: 10.1021/acs.jctc.0c01306
   
   with help from (in alphabetical order)
   P. Atkinson, C. Bannwarth, F. Bohle, G. Brandenburg, E. Caldeweyher
   M. Checinski, S. Dohm, S. Ehlert, S. Ehrlich, I. Gerasimov, C. Hölzer
   A. Katbashev, J. Koopman, C. Lavigne, S. Lehtola, F. März, M. Müller,
   F. Musil, H. Neugebauer, J. Pisarek, C. Plett, P. Pracht, F. Pultar,
   J. Seibert, P. Shushkov, S. Spicher, M. Stahn, M. Steiner, T. Strunk,
   J. Stückrath, T. Rose, and J. Unsleber
   
 * started run on 2023/06/21 at 17:31:07.098     

           -------------------------------------------------
          |                Calculation Setup                |
           -------------------------------------------------

          program call               : /lustre/hpc/kemi/ree/PhD/git/ReactivityQM/dep/xtb-6.5.1/bin/xtb --gfn 1 /lustre/hpc/kemi/ree/PhD/git/ReactivityQM/calculations/R02methylcation/reac01prodN02/conf06/R02methylcation_reac01prodN02_conf06_gfn1.xyz --opt --vfukui --chrg 0 --uhf 0 --alpb DMSO
          hostname                   : node317
          coordinate file            : /lustre/hpc/kemi/ree/PhD/git/ReactivityQM/calculations/R02methylcation/reac01prodN02/conf06/R02methylcation_reac01prodN02_conf06_gfn1.xyz
          omp threads                :                     1

   ID    Z sym.   atoms
    1    6 C      1, 3, 5, 7-10, 12, 14, 15, 18, 19, 22, 24
    2    8 O      2, 4, 13, 20, 23, 25
    3    7 N      6, 11, 16, 17, 21
    4    1 H      26-42

           -------------------------------------------------
          |                 G F N 1 - x T B                 |
           -------------------------------------------------

        Reference                      10.1021/acs.jctc.7b00118
      * Hamiltonian:
        H0-scaling (s, p, d)           1.850000    2.250000    2.000000
        zeta-weighting                 0.000000
      * Dispersion:
        s8                             2.400000
        a1                             0.630000
        a2                             5.000000
        s9                             0.000000
      * Repulsion:
        kExp                           1.500000
        rExp                           1.000000
      * Coulomb:
        alpha                          2.000000
        third order                    atomic
        anisotropic                    false
      * Halogen bond correction:
        rad-scale                      1.300000
        damping                        0.440000

      * Solvation model:               ALPB
        Solvent                        DMSO
        Parameter file                 internal GFN1-xTB/ALPB
        Dielectric constant                4.6680E+01
        Reference state                gsolv [1 M gas/solution]
        Free energy shift                  7.6243E-03 Eh       4.7843E+00 kcal/mol
        Temperature                        2.9815E+02 K
        Density                            1.1000E+00 kg/L
        Solvent mass                       7.8130E+01 g/mol
        Interaction kernel             P16
        Born radius scaling (c1)           1.7672E+00
        Born radii integrator          GBOBC
        Born offset                        0.0000E+00 a0       0.0000E+00 AA
        H-bond correction              true
        Ion screening                  false
        Surface tension                    1.0000E-05 Eh       1.5569E+01 dyn/cm
        Grid points                               230 per atom

          ...................................................
          :                      SETUP                      :
          :.................................................:
          :  # basis functions                 134          :
          :  # atomic orbitals                 134          :
          :  # shells                           84          :
          :  # electrons                       134          :
          :  # halogen bonds                     0          :
          :  max. iterations                   250          :
          :  Hamiltonian                  GFN1-xTB          :
          :  restarted?                      false          :
          :  GBSA solvation                   true          :
          :  PC potential                    false          :
          :  electronic temp.          300.0000000     K    :
          :  accuracy                    1.0000000          :
          :  -> integral cutoff          0.2500000E+02      :
          :  -> integral neglect         0.1000000E-07      :
          :  -> SCF convergence          0.1000000E-05 Eh   :
          :  -> wf. convergence          0.2000000E-04 e    :
          :  Broyden damping             0.4000000          :
          ...................................................

 iter      E             dE          RMSdq      gap      omega  full diag
   1    -83.3056592 -0.833057E+02  0.850E+00    2.50       0.0  T
   2    -83.6644847 -0.358826E+00  0.510E+00    0.45       1.0  T
   3    -83.3326831  0.331802E+00  0.241E+00    0.51       1.0  T
   4    -83.6018170 -0.269134E+00  0.130E+00    2.54       1.0  T
   5    -83.6780922 -0.762751E-01  0.576E-01    1.45       1.0  T
   6    -83.6855122 -0.742005E-02  0.393E-01    0.79       1.0  T
   7    -83.6916234 -0.611117E-02  0.232E-01    0.23       1.0  T
   8    -83.3731046  0.318519E+00  0.165E+00    0.35       1.0  T
   9    -83.6926477 -0.319543E+00  0.211E-01    0.19       1.0  T
  10    -83.6904921  0.215562E-02  0.254E-01    0.27       1.0  T
  11    -83.6927093 -0.221714E-02  0.204E-01    0.19       1.0  T
  12    -83.6963387 -0.362946E-02  0.981E-02    0.13       1.0  T
  13    -83.6974650 -0.112628E-02  0.132E-02    0.10       1.2  T
  14    -83.6974372  0.277724E-04  0.201E-02    0.11       1.0  T
  15    -83.6974748 -0.375880E-04  0.988E-03    0.10       1.6  T
  16    -83.6974857 -0.109390E-04  0.291E-03    0.10       5.3  T
  17    -83.6974866 -0.884300E-06  0.111E-03    0.10      13.9  T
  18    -83.6974868 -0.135348E-06  0.350E-04    0.10      44.1  T
  19    -83.6974868 -0.145684E-07  0.604E-05    0.10     255.4  T
  20    -83.6974868 -0.406430E-09  0.148E-05    0.10    1044.5  T

   *** convergence criteria satisfied after 20 iterations ***

         #    Occupation            Energy/Eh            Energy/eV
      -------------------------------------------------------------
         1        2.0000           -0.8835367             -24.0423
       ...           ...                  ...                  ...
        61        2.0000           -0.4722133             -12.8496
        62        2.0000           -0.4688836             -12.7590
        63        2.0000           -0.4662002             -12.6860
        64        2.0000           -0.4546036             -12.3704
        65        2.0000           -0.4427407             -12.0476
        66        2.0000           -0.3971400             -10.8067
        67        1.7503           -0.3816143             -10.3843 (HOMO)
        68        0.2497           -0.3779146             -10.2836 (LUMO)
        69                         -0.2905127              -7.9053
        70                         -0.2853901              -7.7659
        71                         -0.2661726              -7.2429
        72                         -0.2513939              -6.8408
       ...                                ...                  ...
       134                          0.7933985              21.5895
      -------------------------------------------------------------
                  HL-Gap            0.0036997 Eh            0.1007 eV
             Fermi-level           -0.3797644 Eh          -10.3339 eV

 SCC (total)                   0 d,  0 h,  0 min,  0.160 sec
 SCC setup                      ...        0 min,  0.002 sec (  1.382%)
 Dispersion                     ...        0 min,  0.000 sec (  0.261%)
 classical contributions        ...        0 min,  0.000 sec (  0.084%)
 integral evaluation            ...        0 min,  0.033 sec ( 20.617%)
 iterations                     ...        0 min,  0.070 sec ( 43.716%)
 molecular gradient             ...        0 min,  0.053 sec ( 33.359%)
 printout                       ...        0 min,  0.001 sec (  0.555%)

         :::::::::::::::::::::::::::::::::::::::::::::::::::::
         ::                     SUMMARY                     ::
         :::::::::::::::::::::::::::::::::::::::::::::::::::::
         :: total energy             -82.941331712332 Eh    ::
         :: total w/o Gsasa/hb       -82.919294882452 Eh    ::
         :: gradient norm              0.141805152480 Eh/a0 ::
         :: HOMO-LUMO gap              0.100674219759 eV    ::
         ::.................................................::
         :: SCC energy               -83.697486778239 Eh    ::
         :: -> electrostatic           0.395831531024 Eh    ::
         :: -> Gsolv                  -0.087715084502 Eh    ::
         ::    -> Gelec               -0.065678254621 Eh    ::
         ::    -> Gsasa               -0.025143328279 Eh    ::
         ::    -> Ghb                 -0.004517780606 Eh    ::
         ::    -> Gshift               0.007624279005 Eh    ::
         :: repulsion energy           0.781553115558 Eh    ::
         :: dispersion energy         -0.025398049651 Eh    ::
         :: halogen bond corr.         0.000000000000 Eh    ::
         :: add. restraining           0.000000000000 Eh    ::
         :: total charge              -0.000000000000 e     ::
         :::::::::::::::::::::::::::::::::::::::::::::::::::::

      ----------------------------------------------------------- 
     |                   =====================                   |
     |                        A N C O P T                        |
     |                   =====================                   |
     |               Approximate Normal Coordinate               |
     |                Rational Function Optimizer                |
      ----------------------------------------------------------- 

          ...................................................
          :                      SETUP                      :
          :.................................................:
          :   optimization level            normal          :
          :   max. optcycles                   200          :
          :   ANC micro-cycles                  20          :
          :   degrees of freedom               120          :
          :.................................................:
          :   RF solver                   davidson          :
          :   write xtbopt.log                true          :
          :   linear?                        false          :
          :   energy convergence         0.5000000E-05 Eh   :
          :   grad. convergence          0.1000000E-02 Eh/α :
          :   maximium RF displ.         1.0000000          :
          :   Hlow (freq-cutoff)         0.1000000E-01      :
          :   Hmax (freq-cutoff)         5.0000000          :
          :   S6 in model hess.         20.0000000          :
          ...................................................

generating ANC from model Hessian ...
Using Lindh-Hessian (1995)
 Shifting diagonal of input Hessian by   9.809360025399696E-003
 Lowest  eigenvalues of input Hessian
    0.000000    0.000000    0.000000    0.000000    0.000000    0.000000
    0.010000    0.010180    0.010308    0.011085    0.012066    0.012222
    0.012384    0.013153    0.013481    0.013861    0.014525    0.015917
 Highest eigenvalues
    2.024414    2.089264    2.137080    2.255027    2.332572    2.458235
 

........................................................................
.............................. CYCLE    1 ..............................
........................................................................
   1    -83.6974868 -0.836975E+02  0.118E-05    0.10       0.0  T
   2    -83.6974868  0.128934E-08  0.104E-04    0.10     149.0  T
   3    -83.6974868 -0.130639E-08  0.175E-07    0.10   88109.6  T
     SCC iter.                  ...        0 min,  0.011 sec
     gradient                   ...        0 min,  0.065 sec
 * total energy  :   -82.9413317 Eh     change       -0.2751221E-10 Eh
   gradient norm :     0.1418033 Eh/α   predicted     0.0000000E+00 (-100.00%)
   displ. norm   :     0.3339133 α      lambda       -0.2396917E-01
   maximum displ.:     0.1064213 α      in ANC's #27, #31, #23, ...

........................................................................
.............................. CYCLE    2 ..............................
........................................................................
   1    -83.7146137 -0.837146E+02  0.235E-01    0.48       0.0  T
   2    -83.4171503  0.297463E+00  0.158E+00    0.12       1.0  T
   3    -83.7168119 -0.299662E+00  0.189E-01    0.34       1.0  T
   4    -83.7172398 -0.427848E-03  0.167E-01    0.29       1.0  T
   5    -83.7190215 -0.178169E-02  0.108E-01    0.19       1.0  T
   6    -83.7201856 -0.116414E-02  0.394E-02    0.11       1.0  T
   7    -83.7203744 -0.188760E-03  0.259E-03    0.13       6.0  T
   8    -83.7203721  0.227078E-05  0.460E-03    0.13       3.4  T
   9    -83.7203744 -0.234884E-05  0.359E-04    0.13      43.0  T
  10    -83.7203742  0.206492E-06  0.136E-03    0.13      11.4  T
  11    -83.7203744 -0.210410E-06  0.657E-05    0.13     234.8  T
  12    -83.7203744  0.472411E-09  0.757E-05    0.13     203.9  T
     SCC iter.                  ...        0 min,  0.038 sec
     gradient                   ...        0 min,  0.081 sec
 * total energy  :   -82.9596323 Eh     change       -0.1830054E-01 Eh
   gradient norm :     0.0822502 Eh/α   predicted    -0.1334315E-01 ( -27.09%)
   displ. norm   :     0.3684444 α      lambda       -0.1410633E-01
   maximum displ.:     0.1261961 α      in ANC's #6, #23, #36, ...

........................................................................
.............................. CYCLE    3 ..............................
........................................................................
   1    -83.7389732 -0.837390E+02  0.183E-01    0.60       0.0  T
   2    -83.7413394 -0.236620E-02  0.888E-02    0.18       1.0  T
   3    -83.7416134 -0.273990E-03  0.358E-02    0.22       1.0  T
   4    -83.7390050  0.260839E-02  0.154E-01    0.11       1.0  T
   5    -83.7416810 -0.267594E-02  0.230E-02    0.17       1.0  T
   6    -83.7416668  0.142400E-04  0.213E-02    0.17       1.0  T
   7    -83.7417118 -0.450704E-04  0.607E-03    0.18       2.5  T
   8    -83.7417146 -0.280290E-05  0.319E-03    0.18       4.8  T
   9    -83.7417154 -0.819846E-06  0.151E-03    0.18      10.2  T
  10    -83.7417157 -0.215260E-06  0.472E-04    0.18      32.7  T
  11    -83.7417157 -0.173481E-07  0.223E-04    0.19      69.2  T
  12    -83.7417157 -0.445692E-08  0.846E-05    0.19     182.5  T
  13    -83.7417157 -0.699757E-09  0.149E-05    0.19    1039.1  T
     SCC iter.                  ...        0 min,  0.044 sec
     gradient                   ...        0 min,  0.068 sec
 * total energy  :   -82.9674275 Eh     change       -0.7795259E-02 Eh
   gradient norm :     0.0245894 Eh/α   predicted    -0.8012251E-02 (   2.78%)
   displ. norm   :     0.2401097 α      lambda       -0.1604925E-02
   maximum displ.:     0.1541902 α      in ANC's #6, #14, #13, ...

........................................................................
.............................. CYCLE    4 ..............................
........................................................................
   1    -83.7414365 -0.837414E+02  0.362E-02    0.23       0.0  T
   2    -83.7412197  0.216852E-03  0.528E-02    0.16       1.0  T
   3    -83.7415186 -0.298903E-03  0.154E-02    0.21       1.0  T
   4    -83.7415354 -0.168244E-04  0.628E-03    0.20       2.5  T
   5    -83.7415379 -0.251107E-05  0.183E-03    0.20       8.4  T
   6    -83.7415382 -0.278212E-06  0.479E-04    0.20      32.2  T
   7    -83.7415382 -0.234958E-07  0.129E-04    0.20     119.3  T
   8    -83.7415382 -0.434326E-09  0.544E-05    0.20     283.4  T
     SCC iter.                  ...        0 min,  0.027 sec
     gradient                   ...        0 min,  0.079 sec
 * total energy  :   -82.9686452 Eh     change       -0.1217644E-02 Eh
   gradient norm :     0.0134414 Eh/α   predicted    -0.8487564E-03 ( -30.30%)
   displ. norm   :     0.3328036 α      lambda       -0.1249615E-02
   maximum displ.:     0.2101950 α      in ANC's #6, #5, #2, ...

........................................................................
.............................. CYCLE    5 ..............................
........................................................................
   1    -83.7415968 -0.837416E+02  0.279E-02    0.22       0.0  T
   2    -83.7415874  0.941984E-05  0.219E-02    0.19       1.0  T
   3    -83.7416290 -0.415692E-04  0.127E-02    0.22       1.2  T
   4    -83.7416392 -0.102020E-04  0.486E-03    0.21       3.2  T
   5    -83.7416398 -0.662689E-06  0.103E-03    0.20      14.9  T
   6    -83.7416399 -0.444818E-07  0.237E-04    0.20      65.2  T
   7    -83.7416399 -0.187968E-08  0.101E-04    0.20     152.5  T
   8    -83.7416399 -0.332690E-09  0.361E-05    0.20     427.1  T
     SCC iter.                  ...        0 min,  0.028 sec
     gradient                   ...        0 min,  0.080 sec
 * total energy  :   -82.9694633 Eh     change       -0.8181771E-03 Eh
   gradient norm :     0.0073142 Eh/α   predicted    -0.6940295E-03 ( -15.17%)
   displ. norm   :     0.2583857 α      lambda       -0.4286731E-03
   maximum displ.:     0.1575151 α      in ANC's #6, #2, #5, ...

........................................................................
.............................. CYCLE    6 ..............................
........................................................................
   1    -83.7425965 -0.837426E+02  0.118E-02    0.21       0.0  T
   2    -83.7425979 -0.134085E-05  0.809E-03    0.20       1.9  T
   3    -83.7426026 -0.475530E-05  0.497E-03    0.21       3.1  T
   4    -83.7426041 -0.146432E-05  0.183E-03    0.21       8.4  T
   5    -83.7426041 -0.126545E-07  0.551E-04    0.21      28.0  T
   6    -83.7426041 -0.164593E-08  0.717E-05    0.21     215.1  T
   7    -83.7426041 -0.129177E-09  0.306E-05    0.21     503.7  T
     SCC iter.                  ...        0 min,  0.025 sec
     gradient                   ...        0 min,  0.080 sec
 * total energy  :   -82.9697885 Eh     change       -0.3252052E-03 Eh
   gradient norm :     0.0079192 Eh/α   predicted    -0.2286476E-03 ( -29.69%)
   displ. norm   :     0.3290826 α      lambda       -0.4249131E-03
   maximum displ.:     0.1747733 α      in ANC's #6, #2, #5, ...

........................................................................
.............................. CYCLE    7 ..............................
........................................................................
   1    -83.7440615 -0.837441E+02  0.884E-03    0.21       0.0  T
   2    -83.7440643 -0.277989E-05  0.490E-03    0.21       3.1  T
   3    -83.7440647 -0.343790E-06  0.281E-03    0.21       5.5  T
   4    -83.7440648 -0.891032E-07  0.217E-03    0.21       7.1  T
   5    -83.7440650 -0.261691E-06  0.531E-04    0.21      29.1  T
   6    -83.7440650 -0.635472E-08  0.584E-05    0.21     264.1  T
   7    -83.7440650 -0.929816E-10  0.204E-05    0.21     755.8  T
     SCC iter.                  ...        0 min,  0.026 sec
     gradient                   ...        0 min,  0.080 sec
 * total energy  :   -82.9700951 Eh     change       -0.3066020E-03 Eh
   gradient norm :     0.0072125 Eh/α   predicted    -0.2354650E-03 ( -23.20%)
   displ. norm   :     0.2783698 α      lambda       -0.2888029E-03
   maximum displ.:     0.1304663 α      in ANC's #2, #5, #6, ...

........................................................................
.............................. CYCLE    8 ..............................
........................................................................
   1    -83.7457203 -0.837457E+02  0.818E-03    0.20       0.0  T
   2    -83.7457191  0.121092E-05  0.742E-03    0.21       2.1  T
   3    -83.7457240 -0.492022E-05  0.264E-03    0.20       5.8  T
   4    -83.7457243 -0.314908E-06  0.102E-03    0.21      15.1  T
   5    -83.7457243 -0.315269E-08  0.326E-04    0.21      47.3  T
   6    -83.7457243 -0.209494E-08  0.678E-05    0.21     227.4  T
   7    -83.7457243 -0.263839E-09  0.162E-05    0.21     949.9  T
     SCC iter.                  ...        0 min,  0.026 sec
     gradient                   ...        0 min,  0.080 sec
 * total energy  :   -82.9703077 Eh     change       -0.2125997E-03 Eh
   gradient norm :     0.0060927 Eh/α   predicted    -0.1555918E-03 ( -26.81%)
   displ. norm   :     0.2551117 α      lambda       -0.2250063E-03
   maximum displ.:     0.1368510 α      in ANC's #2, #5, #3, ...

........................................................................
.............................. CYCLE    9 ..............................
........................................................................
   1    -83.7470472 -0.837470E+02  0.729E-03    0.20       0.0  T
   2    -83.7470464  0.781065E-06  0.572E-03    0.21       2.7  T
   3    -83.7470493 -0.286335E-05  0.311E-03    0.20       5.0  T
   4    -83.7470499 -0.545908E-06  0.105E-03    0.21      14.7  T
   5    -83.7470499 -0.795536E-08  0.279E-04    0.21      55.4  T
   6    -83.7470499 -0.144584E-08  0.670E-05    0.21     230.2  T
   7    -83.7470499 -0.251205E-09  0.170E-05    0.21     907.8  T
     SCC iter.                  ...        0 min,  0.028 sec
     gradient                   ...        0 min,  0.080 sec
 * total energy  :   -82.9704773 Eh     change       -0.1695495E-03 Eh
   gradient norm :     0.0056377 Eh/α   predicted    -0.1198715E-03 ( -29.30%)
   displ. norm   :     0.2796349 α      lambda       -0.1934934E-03
   maximum displ.:     0.1593468 α      in ANC's #2, #5, #3, ...

........................................................................
.............................. CYCLE   10 ..............................
........................................................................
   1    -83.7469356 -0.837469E+02  0.554E-03    0.21       0.0  T
   2    -83.7469364 -0.821369E-06  0.261E-03    0.21       5.9  T
   3    -83.7469364 -0.660667E-07  0.198E-03    0.20       7.8  T
   4    -83.7469365 -0.880442E-07  0.112E-03    0.21      13.8  T
   5    -83.7469366 -0.776855E-07  0.286E-04    0.21      53.9  T
   6    -83.7469366 -0.228478E-08  0.509E-05    0.21     302.9  T
   7    -83.7469366 -0.706990E-10  0.202E-05    0.21     762.2  T
     SCC iter.                  ...        0 min,  0.027 sec
     gradient                   ...        0 min,  0.080 sec
 * total energy  :   -82.9706284 Eh     change       -0.1511423E-03 Eh
   gradient norm :     0.0052315 Eh/α   predicted    -0.1043139E-03 ( -30.98%)
   displ. norm   :     0.3262939 α      lambda       -0.1922497E-03
   maximum displ.:     0.1938786 α      in ANC's #2, #5, #3, ...

........................................................................
.............................. CYCLE   11 ..............................
........................................................................
   1    -83.7463938 -0.837464E+02  0.631E-03    0.21       0.0  T
   2    -83.7463942 -0.389524E-06  0.462E-03    0.20       3.3  T
   3    -83.7463951 -0.849111E-06  0.237E-03    0.21       6.5  T
   4    -83.7463953 -0.201229E-06  0.142E-03    0.21      10.8  T
   5    -83.7463954 -0.962087E-07  0.252E-04    0.21      61.3  T
   6    -83.7463954 -0.699515E-09  0.574E-05    0.21     268.7  T
   7    -83.7463954 -0.470948E-10  0.232E-05    0.21     664.8  T
     SCC iter.                  ...        0 min,  0.026 sec
     gradient                   ...        0 min,  0.080 sec
 * total energy  :   -82.9707665 Eh     change       -0.1380610E-03 Eh
   gradient norm :     0.0042587 Eh/α   predicted    -0.1063613E-03 ( -22.96%)
   displ. norm   :     0.2125746 α      lambda       -0.1047968E-03
   maximum displ.:     0.1327660 α      in ANC's #2, #3, #4, ...

........................................................................
.............................. CYCLE   12 ..............................
........................................................................
   1    -83.7463676 -0.837464E+02  0.597E-03    0.22       0.0  T
   2    -83.7463666  0.103028E-05  0.582E-03    0.20       2.6  T
   3    -83.7463695 -0.298022E-05  0.172E-03    0.21       9.0  T
   4    -83.7463697 -0.141433E-06  0.677E-04    0.21      22.8  T
   5    -83.7463697 -0.482228E-08  0.161E-04    0.21      95.9  T
   6    -83.7463697 -0.342681E-09  0.404E-05    0.21     382.1  T
     SCC iter.                  ...        0 min,  0.023 sec
     gradient                   ...        0 min,  0.081 sec
 * total energy  :   -82.9708452 Eh     change       -0.7873545E-04 Eh
   gradient norm :     0.0033281 Eh/α   predicted    -0.5477011E-04 ( -30.44%)
   displ. norm   :     0.1887160 α      lambda       -0.9029337E-04
   maximum displ.:     0.1187212 α      in ANC's #2, #4, #3, ...

........................................................................
.............................. CYCLE   13 ..............................
........................................................................
   1    -83.7466852 -0.837467E+02  0.587E-03    0.22       0.0  T
   2    -83.7466846  0.651497E-06  0.507E-03    0.21       3.0  T
   3    -83.7466870 -0.241145E-05  0.178E-03    0.21       8.7  T
   4    -83.7466872 -0.179152E-06  0.585E-04    0.21      26.4  T
   5    -83.7466872 -0.100134E-08  0.113E-04    0.21     136.9  T
   6    -83.7466872 -0.227061E-09  0.363E-05    0.21     424.7  T
     SCC iter.                  ...        0 min,  0.024 sec
     gradient                   ...        0 min,  0.081 sec
 * total energy  :   -82.9709116 Eh     change       -0.6635193E-04 Eh
   gradient norm :     0.0029760 Eh/α   predicted    -0.4675560E-04 ( -29.53%)
   displ. norm   :     0.1754516 α      lambda       -0.6532923E-04
   maximum displ.:     0.1104183 α      in ANC's #2, #4, #3, ...

........................................................................
.............................. CYCLE   14 ..............................
........................................................................
   1    -83.7464814 -0.837465E+02  0.423E-03    0.22       0.0  T
   2    -83.7464811  0.207686E-06  0.360E-03    0.21       4.3  T
   3    -83.7464823 -0.119909E-05  0.133E-03    0.22      11.6  T
   4    -83.7464824 -0.777966E-07  0.514E-04    0.21      30.0  T
   5    -83.7464824 -0.170419E-08  0.106E-04    0.21     145.2  T
   6    -83.7464824 -0.918448E-10  0.330E-05    0.21     467.4  T
     SCC iter.                  ...        0 min,  0.022 sec
     gradient                   ...        0 min,  0.081 sec
 * total energy  :   -82.9709579 Eh     change       -0.4629037E-04 Eh
   gradient norm :     0.0028593 Eh/α   predicted    -0.3367331E-04 ( -27.26%)
   displ. norm   :     0.1437962 α      lambda       -0.5140045E-04
   maximum displ.:     0.0798999 α      in ANC's #2, #4, #11, ...

........................................................................
.............................. CYCLE   15 ..............................
........................................................................
   1    -83.7478073 -0.837478E+02  0.418E-03    0.22       0.0  T
   2    -83.7478074 -0.108992E-06  0.261E-03    0.21       5.9  T
   3    -83.7478075 -0.166763E-06  0.182E-03    0.22       8.5  T
   4    -83.7478077 -0.174619E-06  0.623E-04    0.22      24.8  T
   5    -83.7478077 -0.885518E-08  0.123E-04    0.22     125.6  T
   6    -83.7478077 -0.111086E-09  0.303E-05    0.22     508.8  T
     SCC iter.                  ...        0 min,  0.024 sec
     gradient                   ...        0 min,  0.080 sec
 * total energy  :   -82.9709882 Eh     change       -0.3033116E-04 Eh
   gradient norm :     0.0033582 Eh/α   predicted    -0.2623234E-04 ( -13.51%)
   displ. norm   :     0.1394320 α      lambda       -0.4823562E-04
   maximum displ.:     0.0872303 α      in ANC's #2, #4, #1, ...

........................................................................
.............................. CYCLE   16 ..............................
........................................................................
   1    -83.7469366 -0.837469E+02  0.460E-03    0.21       0.0  T
   2    -83.7469368 -0.208505E-06  0.285E-03    0.22       5.4  T
   3    -83.7469370 -0.186572E-06  0.180E-03    0.21       8.6  T
   4    -83.7469371 -0.109319E-06  0.869E-04    0.22      17.8  T
   5    -83.7469371 -0.407218E-07  0.139E-04    0.22     110.8  T
   6    -83.7469371 -0.242082E-09  0.360E-05    0.22     428.4  T
     SCC iter.                  ...        0 min,  0.022 sec
     gradient                   ...        0 min,  0.081 sec
 * total energy  :   -82.9710159 Eh     change       -0.2767675E-04 Eh
   gradient norm :     0.0025740 Eh/α   predicted    -0.2459316E-04 ( -11.14%)
   displ. norm   :     0.0798309 α      lambda       -0.3132732E-04
   maximum displ.:     0.0400286 α      in ANC's #2, #5, #1, ...

........................................................................
.............................. CYCLE   17 ..............................
........................................................................
   1    -83.7472715 -0.837473E+02  0.304E-03    0.21       0.0  T
   2    -83.7472715  0.669374E-09  0.224E-03    0.22       6.9  T
   3    -83.7472720 -0.415749E-06  0.101E-03    0.21      15.3  T
   4    -83.7472720 -0.533483E-07  0.336E-04    0.21      45.9  T
   5    -83.7472720 -0.106198E-09  0.743E-05    0.21     207.8  T
   6    -83.7472720 -0.144624E-09  0.185E-05    0.21     834.3  T
     SCC iter.                  ...        0 min,  0.022 sec
     gradient                   ...        0 min,  0.081 sec
 * total energy  :   -82.9710407 Eh     change       -0.2484290E-04 Eh
   gradient norm :     0.0021420 Eh/α   predicted    -0.1576543E-04 ( -36.54%)
   displ. norm   :     0.1611826 α      lambda       -0.5482922E-04
   maximum displ.:     0.0843895 α      in ANC's #2, #1, #5, ...

........................................................................
.............................. CYCLE   18 ..............................
........................................................................
   1    -83.7473461 -0.837473E+02  0.487E-03    0.21       0.0  T
   2    -83.7473456  0.502113E-06  0.438E-03    0.22       3.5  T
   3    -83.7473474 -0.186056E-05  0.132E-03    0.21      11.7  T
   4    -83.7473475 -0.683283E-07  0.433E-04    0.21      35.6  T
   5    -83.7473475 -0.621625E-09  0.895E-05    0.21     172.4  T
   6    -83.7473475 -0.210150E-09  0.302E-05    0.21     510.5  T
     SCC iter.                  ...        0 min,  0.022 sec
     gradient                   ...        0 min,  0.081 sec
 * total energy  :   -82.9710787 Eh     change       -0.3794882E-04 Eh
   gradient norm :     0.0027679 Eh/α   predicted    -0.2813068E-04 ( -25.87%)
   displ. norm   :     0.1497316 α      lambda       -0.3678780E-04
   maximum displ.:     0.0868872 α      in ANC's #2, #1, #5, ...

........................................................................
.............................. CYCLE   19 ..............................
........................................................................
   1    -83.7469651 -0.837470E+02  0.276E-03    0.21       0.0  T
   2    -83.7469649  0.185010E-06  0.267E-03    0.22       5.8  T
   3    -83.7469656 -0.661724E-06  0.797E-04    0.21      19.4  T
   4    -83.7469656 -0.171084E-07  0.293E-04    0.21      52.6  T
   5    -83.7469656 -0.475751E-09  0.615E-05    0.21     251.0  T
   6    -83.7469656 -0.359819E-10  0.202E-05    0.21     764.1  T
     SCC iter.                  ...        0 min,  0.022 sec
     gradient                   ...        0 min,  0.081 sec
 * total energy  :   -82.9711073 Eh     change       -0.2863038E-04 Eh
   gradient norm :     0.0031239 Eh/α   predicted    -0.1880750E-04 ( -34.31%)
   displ. norm   :     0.1854081 α      lambda       -0.4812594E-04
   maximum displ.:     0.1128782 α      in ANC's #2, #1, #8, ...

........................................................................
.............................. CYCLE   20 ..............................
........................................................................
   1    -83.7466007 -0.837466E+02  0.269E-03    0.21       0.0  T
   2    -83.7466008 -0.162673E-06  0.139E-03    0.21      11.1  T
   3    -83.7466008  0.769660E-10  0.931E-04    0.21      16.6  T
   4    -83.7466009 -0.269114E-07  0.612E-04    0.21      25.2  T
   5    -83.7466009 -0.209568E-07  0.101E-04    0.21     152.1  T
   6    -83.7466009 -0.160554E-09  0.288E-05    0.21     535.4  T
     SCC iter.                  ...        0 min,  0.022 sec
     gradient                   ...        0 min,  0.081 sec
 * total energy  :   -82.9711437 Eh     change       -0.3640341E-04 Eh
   gradient norm :     0.0029329 Eh/α   predicted    -0.2489154E-04 ( -31.62%)
   displ. norm   :     0.1825245 α      lambda       -0.4543502E-04
   maximum displ.:     0.1192989 α      in ANC's #2, #1, #13, ...
 * RMSD in coord.:     0.4891117 α      energy gain  -0.2981199E-01 Eh

generating ANC from model Hessian ...
Using Lindh-Hessian (1995)
 Shifting diagonal of input Hessian by   9.799512569876871E-003
 Lowest  eigenvalues of input Hessian
    0.000000    0.000000    0.000000    0.000000    0.000000    0.000000
    0.010000    0.010170    0.010307    0.011287    0.012000    0.012309
    0.012783    0.013242    0.013888    0.014289    0.014516    0.016062
 Highest eigenvalues
    2.079821    2.243551    2.254514    2.312667    2.328868    2.370114
 

........................................................................
.............................. CYCLE   21 ..............................
........................................................................
   1    -83.7463574 -0.837464E+02  0.354E-03    0.22       0.0  T
   2    -83.7463576 -0.145000E-06  0.204E-03    0.21       7.6  T
   3    -83.7463577 -0.164877E-06  0.143E-03    0.22      10.8  T
   4    -83.7463579 -0.111530E-06  0.475E-04    0.21      32.5  T
   5    -83.7463579 -0.335648E-08  0.121E-04    0.21     127.3  T
   6    -83.7463579 -0.439371E-09  0.275E-05    0.21     561.6  T
     SCC iter.                  ...        0 min,  0.022 sec
     gradient                   ...        0 min,  0.081 sec
 * total energy  :   -82.9711770 Eh     change       -0.3326193E-04 Eh
   gradient norm :     0.0026072 Eh/α   predicted     0.0000000E+00 (-100.00%)
   displ. norm   :     0.0287036 α      lambda       -0.1952991E-04
   maximum displ.:     0.0124378 α      in ANC's #4, #13, #5, ...

........................................................................
.............................. CYCLE   22 ..............................
........................................................................
   1    -83.7470240 -0.837470E+02  0.194E-03    0.21       0.0  T
   2    -83.7470240 -0.250671E-08  0.138E-03    0.21      11.2  T
   3    -83.7470241 -0.970718E-07  0.846E-04    0.21      18.2  T
   4    -83.7470241 -0.358068E-07  0.283E-04    0.21      54.6  T
   5    -83.7470241 -0.622009E-09  0.563E-05    0.21     274.2  T
   6    -83.7470241 -0.426468E-10  0.132E-05    0.21    1169.3  T
     SCC iter.                  ...        0 min,  0.022 sec
     gradient                   ...        0 min,  0.081 sec
 * total energy  :   -82.9711940 Eh     change       -0.1701025E-04 Eh
   gradient norm :     0.0012390 Eh/α   predicted    -0.1036683E-04 ( -39.06%)
   displ. norm   :     0.1355824 α      lambda       -0.3965284E-04
   maximum displ.:     0.0579763 α      in ANC's #4, #13, #5, ...

........................................................................
.............................. CYCLE   23 ..............................
........................................................................
   1    -83.7482790 -0.837483E+02  0.535E-03    0.22       0.0  T
   2    -83.7482787  0.274311E-06  0.459E-03    0.21       3.4  T
   3    -83.7482805 -0.178055E-05  0.190E-03    0.22       8.1  T
   4    -83.7482807 -0.145665E-06  0.729E-04    0.21      21.2  T
   5    -83.7482807 -0.163620E-08  0.150E-04    0.21     102.9  T
   6    -83.7482807 -0.224631E-09  0.377E-05    0.21     409.0  T
     SCC iter.                  ...        0 min,  0.022 sec
     gradient                   ...        0 min,  0.081 sec
 * total energy  :   -82.9712237 Eh     change       -0.2972310E-04 Eh
   gradient norm :     0.0028381 Eh/α   predicted    -0.1998930E-04 ( -32.75%)
   displ. norm   :     0.0468851 α      lambda       -0.1509775E-04
   maximum displ.:     0.0210983 α      in ANC's #13, #4, #2, ...

........................................................................
.............................. CYCLE   24 ..............................
........................................................................
   1    -83.7480052 -0.837480E+02  0.100E-03    0.21       0.0  T
   2    -83.7480052 -0.512166E-08  0.654E-04    0.21      23.6  T
   3    -83.7480052 -0.139590E-07  0.440E-04    0.21      35.1  T
   4    -83.7480053 -0.892693E-08  0.148E-04    0.21     104.2  T
   5    -83.7480053 -0.736890E-09  0.309E-05    0.21     499.8  T
     SCC iter.                  ...        0 min,  0.018 sec
     gradient                   ...        0 min,  0.081 sec
 * total energy  :   -82.9712371 Eh     change       -0.1339980E-04 Eh
   gradient norm :     0.0023117 Eh/α   predicted    -0.7565741E-05 ( -43.54%)
   displ. norm   :     0.2352822 α      lambda       -0.6656128E-04
   maximum displ.:     0.1086393 α      in ANC's #13, #4, #2, ...

........................................................................
.............................. CYCLE   25 ..............................
........................................................................
   1    -83.7461279 -0.837461E+02  0.553E-03    0.22       0.0  T
   2    -83.7461281 -0.237130E-06  0.314E-03    0.21       4.9  T
   3    -83.7461281  0.574983E-08  0.237E-03    0.22       6.5  T
   4    -83.7461284 -0.266450E-06  0.866E-04    0.21      17.8  T
   5    -83.7461284 -0.404369E-07  0.171E-04    0.21      90.0  T
   6    -83.7461284 -0.691443E-09  0.417E-05    0.21     369.9  T
     SCC iter.                  ...        0 min,  0.022 sec
     gradient                   ...        0 min,  0.081 sec
 * total energy  :   -82.9712674 Eh     change       -0.3029710E-04 Eh
   gradient norm :     0.0032859 Eh/α   predicted    -0.3512334E-04 (  15.93%)
   displ. norm   :     0.0205652 α      lambda       -0.1737244E-04
   maximum displ.:     0.0076892 α      in ANC's #5, #10, #13, ...

........................................................................
.............................. CYCLE   26 ..............................
........................................................................
   1    -83.7468045 -0.837468E+02  0.178E-03    0.21       0.0  T
   2    -83.7468045 -0.238680E-08  0.114E-03    0.22      13.6  T
   3    -83.7468045 -0.406283E-08  0.896E-04    0.21      17.2  T
   4    -83.7468045 -0.481834E-07  0.186E-04    0.21      83.1  T
   5    -83.7468045 -0.623899E-09  0.440E-05    0.21     350.6  T
     SCC iter.                  ...        0 min,  0.018 sec
     gradient                   ...        0 min,  0.081 sec
 * total energy  :   -82.9712808 Eh     change       -0.1339081E-04 Eh
   gradient norm :     0.0018616 Eh/α   predicted    -0.8699082E-05 ( -35.04%)
   displ. norm   :     0.1543717 α      lambda       -0.3265621E-04
   maximum displ.:     0.0736361 α      in ANC's #2, #3, #13, ...

........................................................................
.............................. CYCLE   27 ..............................
........................................................................
   1    -83.7476143 -0.837476E+02  0.342E-03    0.21       0.0  T
   2    -83.7476144 -0.157443E-06  0.213E-03    0.21       7.2  T
   3    -83.7476145 -0.116116E-06  0.148E-03    0.21      10.4  T
   4    -83.7476146 -0.111642E-06  0.582E-04    0.21      26.5  T
   5    -83.7476147 -0.825010E-08  0.116E-04    0.21     132.8  T
   6    -83.7476147 -0.305903E-09  0.347E-05    0.21     445.2  T
     SCC iter.                  ...        0 min,  0.022 sec
     gradient                   ...        0 min,  0.081 sec
 * total energy  :   -82.9713120 Eh     change       -0.3122741E-04 Eh
   gradient norm :     0.0019549 Eh/α   predicted    -0.1650183E-04 ( -47.16%)
   displ. norm   :     0.2316677 α      lambda       -0.2656075E-04
   maximum displ.:     0.1070128 α      in ANC's #2, #13, #3, ...

........................................................................
.............................. CYCLE   28 ..............................
........................................................................
   1    -83.7467252 -0.837467E+02  0.296E-03    0.21       0.0  T
   2    -83.7467252 -0.757100E-07  0.153E-03    0.21      10.1  T
   3    -83.7467252 -0.432978E-08  0.671E-04    0.21      23.0  T
   4    -83.7467252 -0.561506E-08  0.146E-04    0.21     106.0  T
   5    -83.7467252 -0.118519E-09  0.529E-05    0.21     291.9  T
     SCC iter.                  ...        0 min,  0.018 sec
     gradient                   ...        0 min,  0.081 sec
 * total energy  :   -82.9713401 Eh     change       -0.2804905E-04 Eh
   gradient norm :     0.0027820 Eh/α   predicted    -0.1359842E-04 ( -51.52%)
   displ. norm   :     0.1487927 α      lambda       -0.3157107E-04
   maximum displ.:     0.0770654 α      in ANC's #2, #3, #1, ...

........................................................................
.............................. CYCLE   29 ..............................
........................................................................
   1    -83.7467111 -0.837467E+02  0.186E-03    0.21       0.0  T
   2    -83.7467112 -0.990510E-07  0.861E-04    0.21      17.9  T
   3    -83.7467112 -0.488575E-08  0.545E-04    0.21      28.3  T
   4    -83.7467112  0.271868E-09  0.393E-04    0.21      39.2  T
   5    -83.7467112 -0.101378E-07  0.921E-05    0.21     167.6  T
   6    -83.7467112 -0.293838E-09  0.238E-05    0.21     648.9  T
     SCC iter.                  ...        0 min,  0.022 sec
     gradient                   ...        0 min,  0.081 sec
 * total energy  :   -82.9713638 Eh     change       -0.2371993E-04 Eh
   gradient norm :     0.0026546 Eh/α   predicted    -0.1613601E-04 ( -31.97%)
   displ. norm   :     0.1451155 α      lambda       -0.3449566E-04
   maximum displ.:     0.0817828 α      in ANC's #2, #3, #1, ...

........................................................................
.............................. CYCLE   30 ..............................
........................................................................
   1    -83.7471620 -0.837472E+02  0.223E-03    0.21       0.0  T
   2    -83.7471621 -0.116887E-06  0.120E-03    0.21      12.9  T
   3    -83.7471622 -0.187219E-07  0.861E-04    0.21      17.9  T
   4    -83.7471622 -0.310777E-07  0.444E-04    0.21      34.7  T
   5    -83.7471622 -0.771632E-08  0.101E-04    0.21     152.5  T
   6    -83.7471622 -0.151317E-09  0.252E-05    0.21     613.1  T
     SCC iter.                  ...        0 min,  0.022 sec
     gradient                   ...        0 min,  0.081 sec
 * total energy  :   -82.9713885 Eh     change       -0.2471501E-04 Eh
   gradient norm :     0.0022863 Eh/α   predicted    -0.1761331E-04 ( -28.73%)
   displ. norm   :     0.1924605 α      lambda       -0.2782972E-04
   maximum displ.:     0.1107177 α      in ANC's #2, #3, #1, ...

........................................................................
.............................. CYCLE   31 ..............................
........................................................................
   1    -83.7467791 -0.837468E+02  0.205E-03    0.21       0.0  T
   2    -83.7467792 -0.637324E-07  0.122E-03    0.21      12.7  T
   3    -83.7467792 -0.459818E-07  0.864E-04    0.21      17.8  T
   4    -83.7467793 -0.352195E-07  0.355E-04    0.21      43.5  T
   5    -83.7467793 -0.367753E-08  0.723E-05    0.21     213.5  T
   6    -83.7467793 -0.773213E-10  0.238E-05    0.21     647.3  T
     SCC iter.                  ...        0 min,  0.022 sec
     gradient                   ...        0 min,  0.080 sec
 * total energy  :   -82.9714087 Eh     change       -0.2017037E-04 Eh
   gradient norm :     0.0027179 Eh/α   predicted    -0.1443114E-04 ( -28.45%)
   displ. norm   :     0.1714547 α      lambda       -0.3704051E-04
   maximum displ.:     0.1097322 α      in ANC's #2, #3, #1, ...

........................................................................
.............................. CYCLE   32 ..............................
........................................................................
   1    -83.7477049 -0.837477E+02  0.375E-03    0.21       0.0  T
   2    -83.7477050 -0.987830E-07  0.253E-03    0.21       6.1  T
   3    -83.7477053 -0.265197E-06  0.163E-03    0.21       9.4  T
   4    -83.7477054 -0.120209E-06  0.630E-04    0.21      24.5  T
   5    -83.7477054 -0.971131E-08  0.106E-04    0.21     145.3  T
   6    -83.7477054 -0.109054E-09  0.288E-05    0.21     535.9  T
     SCC iter.                  ...        0 min,  0.021 sec
     gradient                   ...        0 min,  0.080 sec
 * total energy  :   -82.9714272 Eh     change       -0.1856579E-04 Eh
   gradient norm :     0.0020617 Eh/α   predicted    -0.1907257E-04 (   2.73%)
   displ. norm   :     0.2184784 α      lambda       -0.2647274E-04
   maximum displ.:     0.1330954 α      in ANC's #2, #3, #1, ...

........................................................................
.............................. CYCLE   33 ..............................
........................................................................
   1    -83.7464639 -0.837465E+02  0.360E-03    0.21       0.0  T
   2    -83.7464639 -0.621147E-07  0.201E-03    0.21       7.7  T
   3    -83.7464639  0.580233E-07  0.166E-03    0.21       9.3  T
   4    -83.7464640 -0.161366E-06  0.488E-04    0.21      31.6  T
   5    -83.7464641 -0.115799E-07  0.106E-04    0.21     146.2  T
   6    -83.7464641 -0.148475E-09  0.286E-05    0.21     539.2  T
     SCC iter.                  ...        0 min,  0.021 sec
     gradient                   ...        0 min,  0.081 sec
 * total energy  :   -82.9714408 Eh     change       -0.1357220E-04 Eh
   gradient norm :     0.0026969 Eh/α   predicted    -0.1386851E-04 (   2.18%)
   displ. norm   :     0.0293466 α      lambda       -0.1977113E-04
   maximum displ.:     0.0117806 α      in ANC's #8, #2, #15, ...

........................................................................
.............................. CYCLE   34 ..............................
........................................................................
   1    -83.7471553 -0.837472E+02  0.186E-03    0.21       0.0  T
   2    -83.7471553 -0.457589E-07  0.102E-03    0.21      15.2  T
   3    -83.7471553 -0.405336E-08  0.645E-04    0.21      23.9  T
   4    -83.7471553 -0.787566E-09  0.400E-04    0.21      38.6  T
   5    -83.7471553 -0.128457E-07  0.679E-05    0.21     227.3  T
   6    -83.7471553 -0.215820E-09  0.148E-05    0.21    1044.5  T
     SCC iter.                  ...        0 min,  0.021 sec
     gradient                   ...        0 min,  0.081 sec
 * total energy  :   -82.9714561 Eh     change       -0.1533730E-04 Eh
   gradient norm :     0.0014928 Eh/α   predicted    -0.9902664E-05 ( -35.43%)
   displ. norm   :     0.1987059 α      lambda       -0.2710655E-04
   maximum displ.:     0.1415193 α      in ANC's #2, #1, #3, ...

........................................................................
.............................. CYCLE   35 ..............................
........................................................................
   1    -83.7477624 -0.837478E+02  0.360E-03    0.21       0.0  T
   2    -83.7477628 -0.323439E-06  0.208E-03    0.21       7.4  T
   3    -83.7477628 -0.947073E-07  0.112E-03    0.21      13.8  T
   4    -83.7477629 -0.597932E-08  0.754E-04    0.21      20.5  T
   5    -83.7477629 -0.326743E-07  0.161E-04    0.21      95.9  T
   6    -83.7477629 -0.954458E-09  0.339E-05    0.21     455.3  T
     SCC iter.                  ...        0 min,  0.021 sec
     gradient                   ...        0 min,  0.081 sec
 * total energy  :   -82.9714754 Eh     change       -0.1926327E-04 Eh
   gradient norm :     0.0019746 Eh/α   predicted    -0.1379562E-04 ( -28.38%)
   displ. norm   :     0.0767094 α      lambda       -0.7831250E-05
   maximum displ.:     0.0551551 α      in ANC's #2, #1, #3, ...

........................................................................
.............................. CYCLE   36 ..............................
........................................................................
   1    -83.7476102 -0.837476E+02  0.126E-03    0.21       0.0  T
   2    -83.7476102 -0.337783E-07  0.762E-04    0.21      20.3  T
   3    -83.7476103 -0.196130E-07  0.446E-04    0.21      34.6  T
   4    -83.7476103 -0.743654E-08  0.233E-04    0.21      66.1  T
   5    -83.7476103 -0.179649E-08  0.530E-05    0.21     291.1  T
   6    -83.7476103 -0.760281E-10  0.117E-05    0.21    1320.5  T
     SCC iter.                  ...        0 min,  0.022 sec
     gradient                   ...        0 min,  0.080 sec
 * total energy  :   -82.9714852 Eh     change       -0.9817106E-05 Eh
   gradient norm :     0.0010371 Eh/α   predicted    -0.3926392E-05 ( -60.00%)
   displ. norm   :     0.1142353 α      lambda       -0.1157116E-04
   maximum displ.:     0.0840864 α      in ANC's #2, #1, #13, ...

........................................................................
.............................. CYCLE   37 ..............................
........................................................................
   1    -83.7476873 -0.837477E+02  0.207E-03    0.21       0.0  T
   2    -83.7476874 -0.943002E-07  0.124E-03    0.21      12.4  T
   3    -83.7476874 -0.689593E-07  0.722E-04    0.21      21.4  T
   4    -83.7476875 -0.265697E-07  0.335E-04    0.21      46.1  T
   5    -83.7476875 -0.217543E-08  0.933E-05    0.21     165.4  T
   6    -83.7476875 -0.151061E-09  0.213E-05    0.21     723.5  T
     SCC iter.                  ...        0 min,  0.021 sec
     gradient                   ...        0 min,  0.080 sec
 * total energy  :   -82.9714976 Eh     change       -0.1234530E-04 Eh
   gradient norm :     0.0008722 Eh/α   predicted    -0.5822642E-05 ( -52.84%)
   displ. norm   :     0.1351153 α      lambda       -0.7417301E-05
   maximum displ.:     0.0986080 α      in ANC's #2, #1, #13, ...

........................................................................
.............................. CYCLE   38 ..............................
........................................................................
   1    -83.7473022 -0.837473E+02  0.133E-03    0.21       0.0  T
   2    -83.7473022 -0.182678E-07  0.632E-04    0.21      24.4  T
   3    -83.7473022 -0.713385E-09  0.310E-04    0.21      49.9  T
   4    -83.7473022 -0.713257E-09  0.914E-05    0.21     168.7  T
   5    -83.7473022 -0.607656E-10  0.574E-05    0.21     268.7  T
     SCC iter.                  ...        0 min,  0.018 sec
     gradient                   ...        0 min,  0.081 sec
 * total energy  :   -82.9715055 Eh     change       -0.7938324E-05 Eh
   gradient norm :     0.0013413 Eh/α   predicted    -0.3741693E-05 ( -52.87%)
   displ. norm   :     0.1173445 α      lambda       -0.6893412E-05
   maximum displ.:     0.0870004 α      in ANC's #2, #1, #5, ...

........................................................................
.............................. CYCLE   39 ..............................
........................................................................
   1    -83.7475602 -0.837476E+02  0.119E-03    0.21       0.0  T
   2    -83.7475602  0.420613E-08  0.802E-04    0.21      19.3  T
   3    -83.7475602 -0.213124E-07  0.540E-04    0.21      28.5  T
   4    -83.7475602 -0.156225E-07  0.140E-04    0.21     109.9  T
   5    -83.7475602 -0.371486E-09  0.319E-05    0.21     483.4  T
     SCC iter.                  ...        0 min,  0.018 sec
     gradient                   ...        0 min,  0.080 sec
 * total energy  :   -82.9715133 Eh     change       -0.7838084E-05 Eh
   gradient norm :     0.0011367 Eh/α   predicted    -0.3472265E-05 ( -55.70%)
   displ. norm   :     0.1879515 α      lambda       -0.8565378E-05
   maximum displ.:     0.1391408 α      in ANC's #2, #1, #5, ...

........................................................................
.............................. CYCLE   40 ..............................
........................................................................
   1    -83.7475124 -0.837475E+02  0.199E-03    0.21       0.0  T
   2    -83.7475124  0.117280E-07  0.153E-03    0.21      10.1  T
   3    -83.7475126 -0.189160E-06  0.636E-04    0.21      24.3  T
   4    -83.7475126 -0.206627E-07  0.223E-04    0.21      69.3  T
   5    -83.7475126 -0.220822E-09  0.671E-05    0.21     229.9  T
   6    -83.7475126 -0.103185E-09  0.152E-05    0.21    1015.0  T
     SCC iter.                  ...        0 min,  0.032 sec
     gradient                   ...        0 min,  0.080 sec
 * total energy  :   -82.9715229 Eh     change       -0.9552668E-05 Eh
   gradient norm :     0.0007328 Eh/α   predicted    -0.4351374E-05 ( -54.45%)
   displ. norm   :     0.1555607 α      lambda       -0.5996043E-05
   maximum displ.:     0.1145327 α      in ANC's #2, #1, #4, ...

........................................................................
.............................. CYCLE   41 ..............................
........................................................................
   1    -83.7475926 -0.837476E+02  0.176E-03    0.21       0.0  T
   2    -83.7475926  0.472851E-08  0.135E-03    0.21      11.4  T
   3    -83.7475928 -0.154989E-06  0.532E-04    0.21      29.0  T
   4    -83.7475928 -0.154952E-07  0.186E-04    0.21      83.0  T
   5    -83.7475928 -0.772644E-10  0.561E-05    0.21     274.9  T
     SCC iter.                  ...        0 min,  0.017 sec
     gradient                   ...        0 min,  0.080 sec
 * total energy  :   -82.9715292 Eh     change       -0.6292013E-05 Eh
   gradient norm :     0.0006364 Eh/α   predicted    -0.3032861E-05 ( -51.80%)
   displ. norm   :     0.1348138 α      lambda       -0.4617905E-05
   maximum displ.:     0.0980545 α      in ANC's #2, #1, #4, ...

........................................................................
.............................. CYCLE   42 ..............................
........................................................................
   1    -83.7477241 -0.837477E+02  0.128E-03    0.21       0.0  T
   2    -83.7477241  0.631978E-08  0.987E-04    0.21      15.6  T
   3    -83.7477242 -0.788813E-07  0.412E-04    0.21      37.4  T
   4    -83.7477242 -0.825339E-08  0.142E-04    0.21     109.0  T
   5    -83.7477242 -0.763691E-10  0.380E-05    0.21     406.3  T
     SCC iter.                  ...        0 min,  0.017 sec
     gradient                   ...        0 min,  0.080 sec
 * total energy  :   -82.9715336 Eh     change       -0.4397745E-05 Eh
   gradient norm :     0.0008980 Eh/α   predicted    -0.2331992E-05 ( -46.97%)
   displ. norm   :     0.1149050 α      lambda       -0.3317042E-05
   maximum displ.:     0.0812122 α      in ANC's #2, #1, #4, ...

   *** GEOMETRY OPTIMIZATION CONVERGED AFTER 42 ITERATIONS ***

------------------------------------------------------------------------
 total energy gain   :        -0.0302019 Eh      -18.9520 kcal/mol
 total RMSD          :         0.7499038 a0        0.3968 Å
 total power (kW/mol):        -1.8879767 (step)  -13.2454 (real)
------------------------------------------------------------------------

 ANCopt (total)                0 d,  0 h,  0 min,  5.987 sec
 optimizer setup                ...        0 min,  0.001 sec (  0.013%)
 model hessian                  ...        0 min,  0.051 sec (  0.857%)
 ANC generation                 ...        0 min,  0.005 sec (  0.078%)
 coordinate transformation      ...        0 min,  0.001 sec (  0.025%)
 single point calculation       ...        0 min,  5.904 sec ( 98.627%)
 optimization log               ...        0 min,  0.012 sec (  0.196%)
 hessian update                 ...        0 min,  0.001 sec (  0.022%)
 rational function              ...        0 min,  0.007 sec (  0.112%)

================
 final structure:
================
42
 xtb: 6.5.1 (579679a)
C            6.38103399846003        0.02826782365330        2.57500016456913
O            5.35404036474740        0.62754412824061        1.79376883205757
C            4.31837654437969       -0.17590750242047        1.46123057727397
O            4.28618001057247       -1.34433624080334        1.82461754852688
C            3.28579486873635        0.46557599745423        0.65387417135419
N            2.25172678177282       -0.39134019907606        0.33886031766238
C            1.26332379259186        0.00488840408081       -0.36930992964205
C            0.16063155470453       -0.96189857859713       -0.74273220105010
C            0.28489722398239       -2.23486442948123        0.09612844827134
C            0.22218310358240       -1.26012606527801       -2.24582990327908
N           -1.12824340092679       -0.29259245506015       -0.42995411563848
C           -2.32695423674558       -0.77480510784132       -0.63779022133987
O           -2.45964911929214       -1.96531209101501       -1.14847171030184
C           -3.73875319270980       -2.56005544426239       -1.41414373126999
C           -3.45014344684693        0.05782646447669       -0.28067316888090
N           -4.73171996937936       -0.17461546567992       -0.37742587389308
N           -5.36487206127179        0.91928293769437        0.08757452846457
C           -4.44376990385845        1.77148381988915        0.44774475785254
C           -4.62982942890094        3.11800540336851        1.02046174754638
O           -3.21533315321754        1.28155607046487        0.23958639961673
N            1.18045927045263        1.29364098341632       -0.86275625107112
C            2.13549691640375        2.25695822529477       -0.62210648116473
O            1.99203132691568        3.38028917028367       -1.08802625411659
C            3.31656617443279        1.81865631373188        0.21990613830898
O            4.20723610317906        2.64764384419211        0.46314858863239
H            7.13566737820102        0.79427722745459        2.75053155417640
H            6.82641055829331       -0.81781636273838        2.04255860821991
H            5.98137053076166       -0.32588738847104        3.53014220531146
H            0.15523382268961       -1.99634381185891        1.15060978265532
H            1.28180259195003       -2.64992591980524       -0.04956546398672
H           -0.45707494624009       -2.97028501350730       -0.20218247522364
H            0.03180304920435       -0.35249311261813       -2.81479474471596
H           -0.50992999999357       -2.01328722182265       -2.52476585816917
H            1.21748575490393       -1.63062625854201       -2.48829818385173
H           -1.08513828273738        0.63199059532226       -0.01939689796720
H           -3.52166968912810       -3.54151050053710       -1.83135433036225
H           -4.30852221585356       -2.65084131961992       -0.48812700857470
H           -4.29214850279140       -1.95002622295176       -2.12942904992841
H           -4.18137343950545        3.16154980231856        2.01380148247851
H           -5.69025997658897        3.34618119843680        1.08620834807679
H           -4.12935204123049        3.85838555876448        0.39519950152913
H            0.39498228630014        1.57089374345217       -1.42382284816094
 
 Bond Distances (Angstroems)
 ---------------------------
C1-O2=1.4227         C1-H26=1.0895        C1-H27=1.0944        C1-H28=1.0943        O2-C1=1.4227         O2-C3=1.3523         
C3-O2=1.3523         C3-O4=1.2241         C3-C5=1.4593         O4-C3=1.2241         C5-C3=1.4593         C5-N6=1.3794         
C5-C24=1.4213        N6-C5=1.3794         N6-C7=1.2788         C7-N6=1.2788         C7-C8=1.5133         C7-N21=1.3825        
C8-C7=1.5133         C8-C9=1.5296         C8-C10=1.5336        C8-N11=1.4856        C9-C8=1.5296         C9-H29=1.0889        
C9-H30=1.0896        C9-H31=1.0864        C10-C8=1.5336        C10-H32=1.0880       C10-H33=1.0868       C10-H34=1.0894       
N11-C8=1.4856        N11-C12=1.3087       N11-H35=1.0126       C12-N11=1.3087       C12-O13=1.3022       C12-C15=1.4430       
O13-C12=1.3022       O13-C14=1.4354       C14-O13=1.4354       C14-H36=1.0883       C14-H37=1.0910       C14-H38=1.0909       
C15-C12=1.4430       C15-N16=1.3061       C15-O20=1.3503       N16-C15=1.3061       N16-N17=1.3467       N17-N16=1.3467       
N17-C18=1.3055       C18-N17=1.3055       C18-C19=1.4750       C18-O20=1.3388       C19-C18=1.4750       C19-H39=1.0907       
C19-H40=1.0867       C19-H41=1.0907       O20-C15=1.3503       O20-C18=1.3388       N21-C7=1.3825        N21-C22=1.3777       
N21-H42=1.0043       C22-N21=1.3777       C22-O23=1.2246       C22-C24=1.5153       O23-C22=1.2246       C24-C5=1.4213        
C24-C22=1.5153       C24-O25=1.2408       O25-C24=1.2408       H26-C1=1.0895        H27-C1=1.0944        H28-C1=1.0943        
H29-C9=1.0889        H30-C9=1.0896        H31-C9=1.0864        H32-C10=1.0880       H33-C10=1.0868       H34-C10=1.0894       
H35-N11=1.0126       H36-C14=1.0883       H37-C14=1.0910       H38-C14=1.0909       H39-C19=1.0907       H40-C19=1.0867       
H41-C19=1.0907       H42-N21=1.0043       
 C  H  Rav=1.0897 sigma=0.0023  Rmin=1.0864  Rmax=1.0944    15
 C  C  Rav=1.4863 sigma=0.0397  Rmin=1.4213  Rmax=1.5336     8
 N  H  Rav=1.0084 sigma=0.0041  Rmin=1.0043  Rmax=1.0126     2
 N  C  Rav=1.3530 sigma=0.0629  Rmin=1.2788  Rmax=1.4856     8
 N  N  Rav=1.3467 sigma=0.0000  Rmin=1.3467  Rmax=1.3467     1
 O  C  Rav=1.3212 sigma=0.0753  Rmin=1.2241  Rmax=1.4354     9
 
 selected bond angles (degree)
 --------------------
H26-C1-O2=107.00               H27-C1-O2=110.63               H27-C1-H26=109.88              H28-C1-O2=110.61               
H28-C1-H26=109.87              H28-C1-H27=108.85              C3-O2-C1=115.95                O4-C3-O2=120.95                
C5-C3-O2=114.63                C5-C3-O4=124.42                N6-C5-C3=112.56                C24-C5-C3=124.90               
C24-C5-N6=122.54               C7-N6-C5=120.89                C8-C7-N6=120.12                N21-C7-N6=122.20               
N21-C7-C8=117.63               C9-C8-C7=109.70                C10-C8-C7=109.68               C10-C8-C9=111.86               
N11-C8-C7=107.00               N11-C8-C9=109.27               N11-C8-C10=109.19              H29-C9-C8=109.82               
H30-C9-C8=108.54               H30-C9-H29=108.78              H31-C9-C8=110.93               H31-C9-H29=109.44              
H31-C9-H30=109.28              H32-C10-C8=110.08              H33-C10-C8=111.06              H33-C10-H32=109.03             
H34-C10-C8=108.72              H34-C10-H32=109.10             H34-C10-H33=108.82             
 
 selected dihedral angles (degree)
 ---------------------------------
C3-O2-C1-H26=179.62           C3-O2-C1-H27= 59.95           C3-O2-C1-H28=299.26           O4-C3-O2-C1=  0.18            
C5-C3-O2-C1=180.33            N6-C5-C3-O2=179.96            N6-C5-C3-O4=  0.12            C24-C5-C3-O2=  0.22           
C24-C5-C3-O4=180.38           C7-N6-C5-C3=180.31            C7-N6-C5-C24=  0.05           C8-C7-N6-C5=177.99            
N21-C7-N6-C5=  0.55           C9-C8-C7-N6= 12.96            C9-C8-C7-N21=190.51           C10-C8-C7-N6=249.71           
C10-C8-C7-N21= 67.27          N11-C8-C7-N6=131.38           N11-C8-C7-N21=308.94          H29-C9-C8-C7= 62.68           
H29-C9-C8-C10=184.63          H29-C9-C8-N11=305.67          H30-C9-C8-C7=303.88           H30-C9-C8-C10= 65.83          
H30-C9-C8-N11=186.86          H31-C9-C8-C7=183.79           H31-C9-C8-C10=305.75          H31-C9-C8-N11= 66.78          
H32-C10-C8-C7=296.32          H32-C10-C8-C9=174.35          H32-C10-C8-N11= 53.28         H33-C10-C8-C7=175.47          
H33-C10-C8-C9= 53.51          H33-C10-C8-N11=292.43         H34-C10-C8-C7= 55.77          H34-C10-C8-C9=293.80          
H34-C10-C8-N11=172.73         
           -------------------------------------------------
          |                Final Singlepoint                |
           -------------------------------------------------

          ...................................................
          :                      SETUP                      :
          :.................................................:
          :  # basis functions                 134          :
          :  # atomic orbitals                 134          :
          :  # shells                           84          :
          :  # electrons                       134          :
          :  # halogen bonds                     0          :
          :  max. iterations                   250          :
          :  Hamiltonian                  GFN1-xTB          :
          :  restarted?                      false          :
          :  GBSA solvation                   true          :
          :  PC potential                    false          :
          :  electronic temp.          300.0000000     K    :
          :  accuracy                    1.0000000          :
          :  -> integral cutoff          0.2500000E+02      :
          :  -> integral neglect         0.1000000E-07      :
          :  -> SCF convergence          0.1000000E-05 Eh   :
          :  -> wf. convergence          0.2000000E-04 e    :
          :  Broyden damping             0.4000000          :
          ...................................................

 iter      E             dE          RMSdq      gap      omega  full diag
   1    -83.7477242 -0.837477E+02  0.815E-06    0.21       0.0  T
   2    -83.7477242 -0.105160E-11  0.418E-06    0.21    3692.0  T
   3    -83.7477242  0.142109E-12  0.276E-06    0.21    5585.8  T

   *** convergence criteria satisfied after 3 iterations ***

         #    Occupation            Energy/Eh            Energy/eV
      -------------------------------------------------------------
         1        2.0000           -0.8979486             -24.4344
       ...           ...                  ...                  ...
        61        2.0000           -0.4699582             -12.7882
        62        2.0000           -0.4670501             -12.7091
        63        2.0000           -0.4520536             -12.3010
        64        2.0000           -0.4438143             -12.0768
        65        2.0000           -0.4298706             -11.6974
        66        2.0000           -0.3889810             -10.5847
        67        1.9684           -0.3768582             -10.2548 (HOMO)
        68        0.0316           -0.3690093             -10.0413 (LUMO)
        69                         -0.2843638              -7.7379
        70                         -0.2790027              -7.5920
        71                         -0.2544924              -6.9251
        72                         -0.2493846              -6.7861
       ...                                ...                  ...
       134                          0.7544987              20.5310
      -------------------------------------------------------------
                  HL-Gap            0.0078489 Eh            0.2136 eV
             Fermi-level           -0.3729337 Eh          -10.1480 eV

 SCC (total)                   0 d,  0 h,  0 min,  0.130 sec
 SCC setup                      ...        0 min,  0.002 sec (  1.512%)
 Dispersion                     ...        0 min,  0.000 sec (  0.276%)
 classical contributions        ...        0 min,  0.000 sec (  0.092%)
 integral evaluation            ...        0 min,  0.034 sec ( 26.502%)
 iterations                     ...        0 min,  0.011 sec (  8.700%)
 molecular gradient             ...        0 min,  0.081 sec ( 62.177%)
 printout                       ...        0 min,  0.001 sec (  0.698%)

         :::::::::::::::::::::::::::::::::::::::::::::::::::::
         ::                     SUMMARY                     ::
         :::::::::::::::::::::::::::::::::::::::::::::::::::::
         :: total energy             -82.971533590233 Eh    ::
         :: total w/o Gsasa/hb       -82.949351658031 Eh    ::
         :: gradient norm              0.000898412768 Eh/a0 ::
         :: HOMO-LUMO gap              0.213579527555 eV    ::
         ::.................................................::
         :: SCC energy               -83.747724222958 Eh    ::
         :: -> electrostatic           0.429670369211 Eh    ::
         :: -> Gsolv                  -0.103974612048 Eh    ::
         ::    -> Gelec               -0.081792679847 Eh    ::
         ::    -> Gsasa               -0.025296382589 Eh    ::
         ::    -> Ghb                 -0.004509828618 Eh    ::
         ::    -> Gshift               0.007624279005 Eh    ::
         :: repulsion energy           0.801548253497 Eh    ::
         :: dispersion energy         -0.025357620771 Eh    ::
         :: halogen bond corr.         0.000000000000 Eh    ::
         :: add. restraining           0.000000000000 Eh    ::
         :: total charge              -0.000000000000 e     ::
         :::::::::::::::::::::::::::::::::::::::::::::::::::::

           -------------------------------------------------
          |                Property Printout                |
           -------------------------------------------------

    * Orbital Energies and Occupations

         #    Occupation            Energy/Eh            Energy/eV
      -------------------------------------------------------------
         1        2.0000           -0.8979486             -24.4344
       ...           ...                  ...                  ...
        55        2.0000           -0.5076397             -13.8136
        56        2.0000           -0.5028275             -13.6826
        57        2.0000           -0.4982342             -13.5576
        58        2.0000           -0.4919569             -13.3868
        59        2.0000           -0.4836423             -13.1606
        60        2.0000           -0.4797943             -13.0559
        61        2.0000           -0.4699582             -12.7882
        62        2.0000           -0.4670501             -12.7091
        63        2.0000           -0.4520536             -12.3010
        64        2.0000           -0.4438143             -12.0768
        65        2.0000           -0.4298706             -11.6974
        66        2.0000           -0.3889810             -10.5847
        67        1.9684           -0.3768582             -10.2548 (HOMO)
        68        0.0316           -0.3690093             -10.0413 (LUMO)
        69                         -0.2843638              -7.7379
        70                         -0.2790027              -7.5920
        71                         -0.2544924              -6.9251
        72                         -0.2493846              -6.7861
        73                         -0.2056877              -5.5970
        74                         -0.1586469              -4.3170
        75                         -0.1521967              -4.1415
        76                         -0.1362145              -3.7066
        77                         -0.1340231              -3.6470
        78                         -0.1238765              -3.3709
       ...                                ...                  ...
       134                          0.7544987              20.5310
      -------------------------------------------------------------
                  HL-Gap            0.0078489 Eh            0.2136 eV
             Fermi-level           -0.3729337 Eh          -10.1480 eV

  Mulliken/CM5 charges         n(s)   n(p)   n(d)
     1C     0.17060  0.05100   0.973  2.857  0.000
     2O    -0.42674 -0.50951   1.687  4.740  0.000
     3C     0.55113  0.61633   0.974  2.475  0.000
     4O    -0.61761 -0.66104   1.734  4.884  0.000
     5C    -0.01259  0.06371   1.040  2.972  0.000
     6N    -0.36764 -0.55434   1.529  3.838  0.000
     7C     0.23023  0.38063   0.996  2.774  0.000
     8C     0.14260  0.18020   1.076  2.781  0.000
     9C    -0.09727 -0.23526   1.017  3.080  0.000
    10C    -0.10966 -0.24938   1.022  3.088  0.000
    11N    -0.25138 -0.60884   1.440  3.811  0.000
    12C     0.43988  0.54758   0.979  2.582  0.000
    13O    -0.35845 -0.45163   1.663  4.696  0.000
    14C     0.15116  0.03097   0.995  2.854  0.000
    15C     0.33270  0.45530   0.983  2.684  0.000
    16N    -0.18849 -0.30138   1.563  3.626  0.000
    17N    -0.23007 -0.33648   1.557  3.674  0.000
    18C     0.40951  0.51654   1.016  2.574  0.000
    19C    -0.11144 -0.24873   1.015  3.097  0.000
    20O    -0.34048 -0.39832   1.691  4.649  0.000
    21N    -0.32721 -0.67354   1.437  3.891  0.000
    22C     0.43292  0.53566   1.012  2.555  0.000
    23O    -0.59375 -0.63161   1.733  4.861  0.000
    24C     0.29417  0.33985   1.033  2.673  0.000
    25O    -0.61780 -0.65613   1.741  4.877  0.000
    26H     0.03826  0.09847   0.962  0.000  0.000
    27H     0.03627  0.09798   0.964  0.000  0.000
    28H     0.03616  0.09782   0.964  0.000  0.000
    29H     0.05185  0.11041   0.948  0.000  0.000
    30H     0.06045  0.11917   0.940  0.000  0.000
    31H     0.05051  0.11057   0.949  0.000  0.000
    32H     0.05425  0.11276   0.946  0.000  0.000
    33H     0.05938  0.11980   0.941  0.000  0.000
    34H     0.06209  0.11702   0.938  0.000  0.000
    35H     0.29256  0.50081   0.707  0.000  0.000
    36H     0.08499  0.14564   0.915  0.000  0.000
    37H     0.06838  0.13280   0.932  0.000  0.000
    38H     0.06931  0.13356   0.931  0.000  0.000
    39H     0.09435  0.14879   0.906  0.000  0.000
    40H     0.08188  0.13775   0.918  0.000  0.000
    41H     0.09490  0.14941   0.905  0.000  0.000
    42H     0.26008  0.46570   0.740  0.000  0.000

Wiberg/Mayer (AO) data.
largest (>0.10) Wiberg bond orders for each atom

 ---------------------------------------------------------------------------
     #   Z sym  total        # sym  WBO       # sym  WBO       # sym  WBO
 ---------------------------------------------------------------------------
     1   6 C    3.894 --    26 H    0.987    28 H    0.980    27 H    0.980
                             2 O    0.920
     2   8 O    2.167 --     3 C    1.060     1 C    0.920     4 O    0.113
     3   6 C    3.850 --     4 O    1.584     5 C    1.099     2 O    1.060
     4   8 O    1.855 --     3 C    1.584     2 O    0.113
     5   6 C    3.895 --    24 C    1.260     6 N    1.166     3 C    1.099
                            25 O    0.124
     6   7 N    3.036 --     7 C    1.628     5 C    1.166
     7   6 C    3.924 --     6 N    1.628    21 N    1.089     8 C    0.978
     8   6 C    3.893 --     9 C    0.989    10 C    0.979     7 C    0.978
                            11 N    0.874
     9   6 C    3.983 --     8 C    0.989    31 H    0.984    29 H    0.984
                            30 H    0.979
    10   6 C    3.982 --    32 H    0.983    34 H    0.982    33 H    0.981
                             8 C    0.979
    11   7 N    3.471 --    12 C    1.454     8 C    0.874    35 H    0.874
                            13 O    0.108
    12   6 C    3.880 --    11 N    1.454    13 O    1.188    15 C    1.089
    13   8 O    2.270 --    12 C    1.188    14 C    0.864    11 N    0.108
    14   6 C    3.831 --    36 H    0.980    37 H    0.974    38 H    0.974
                            13 O    0.864
    15   6 C    3.881 --    16 N    1.543    12 C    1.089    20 O    1.046
    16   7 N    3.014 --    15 C    1.543    17 N    1.247
    17   7 N    2.986 --    18 C    1.554    16 N    1.247
    18   6 C    3.847 --    17 N    1.554    20 O    1.086    19 C    1.039
    19   6 C    3.979 --    18 C    1.039    40 H    0.980    41 H    0.956
                            39 H    0.954
    20   8 O    2.328 --    18 C    1.086    15 C    1.046
    21   7 N    3.411 --    22 C    1.143     7 C    1.089    42 H    0.896
                            23 O    0.133
    22   6 C    3.871 --    23 O    1.599    21 N    1.143    24 C    0.962
    23   8 O    1.875 --    22 C    1.599    21 N    0.133
    24   6 C    3.937 --    25 O    1.537     5 C    1.260    22 C    0.962
    25   8 O    1.833 --    24 C    1.537     5 C    0.124
    26   1 H    1.015 --     1 C    0.987
    27   1 H    1.013 --     1 C    0.980
    28   1 H    1.013 --     1 C    0.980
    29   1 H    1.005 --     9 C    0.984
    30   1 H    1.012 --     9 C    0.979
    31   1 H    1.004 --     9 C    0.984
    32   1 H    0.999 --    10 C    0.983
    33   1 H    1.003 --    10 C    0.981
    34   1 H    1.000 --    10 C    0.982
    35   1 H    0.925 --    11 N    0.874
    36   1 H    1.003 --    14 C    0.980
    37   1 H    1.009 --    14 C    0.974
    38   1 H    1.008 --    14 C    0.974
    39   1 H    0.992 --    19 C    0.954
    40   1 H    0.995 --    19 C    0.980
    41   1 H    0.992 --    19 C    0.956
    42   1 H    0.940 --    21 N    0.896
 ---------------------------------------------------------------------------

Topologies differ in total number of bonds
Writing topology from bond orders to xtbtopo.mol

 dipole moment from electron density (au)
     X       Y       Z   
 -10.3373  -2.6400  -1.6432  total (Debye):   27.438

           -------------------------------------------------
          |                Geometry Summary                 |
           -------------------------------------------------

      molecular mass/u    :      351.3152409
   center of mass at/Å    :        0.2324442       0.2962436       0.0480047
  moments of inertia/u·Å² :        0.1286430E+04   0.4798428E+04   0.5422954E+04
rotational constants/cm⁻¹ :        0.1310419E-01   0.3513157E-02   0.3108570E-02

 * 37 selected distances

     #   Z          #   Z                                           value/Å
     1   6 C        2   8 O                                       1.4227336
     2   8 O        3   6 C                                       1.3523003
     3   6 C        4   8 O                                       1.2240558
     6   7 N        7   6 C                                       1.2788444
     8   6 C        9   6 C                                       1.5295658
     8   6 C       10   6 C                                       1.5336334 (max)
    11   7 N       12   6 C                                       1.3086760
    12   6 C       13   8 O                                       1.3021946
    13   8 O       14   6 C                                       1.4354124
    12   6 C       15   6 C                                       1.4430393
    15   6 C       16   7 N                                       1.3060739
    17   7 N       18   6 C                                       1.3055261
    18   6 C       19   6 C                                       1.4750402
    15   6 C       20   8 O                                       1.3503038
    18   6 C       20   8 O                                       1.3388115
     7   6 C       21   7 N                                       1.3824758
    21   7 N       22   6 C                                       1.3776755
    22   6 C       23   8 O                                       1.2245556
     5   6 C       24   6 C                                       1.4213029
    24   6 C       25   8 O                                       1.2408386
     1   6 C       26   1 H                                       1.0895198
     1   6 C       27   1 H                                       1.0944007
     1   6 C       28   1 H                                       1.0942821
     9   6 C       29   1 H                                       1.0888690
     9   6 C       30   1 H                                       1.0896437
     9   6 C       31   1 H                                       1.0864418
    10   6 C       32   1 H                                       1.0880089
    10   6 C       33   1 H                                       1.0867598
    10   6 C       34   1 H                                       1.0893525
    11   7 N       35   1 H                                       1.0125558
    14   6 C       36   1 H                                       1.0883217
    14   6 C       37   1 H                                       1.0910481
    14   6 C       38   1 H                                       1.0908782
    19   6 C       39   1 H                                       1.0907488
    19   6 C       40   1 H                                       1.0866922
    19   6 C       41   1 H                                       1.0906849
    21   7 N       42   1 H                                       1.0043103 (min)

 * 5 distinct bonds (by element types)

   Z      Z             #   av. dist./Å        max./Å        min./Å
   1 H    6 C          15     1.0897102     1.0944007     1.0864418
   6 C    6 C           5     1.4805163     1.5336334     1.4213029
   1 H    7 N           2     1.0084330     1.0125558     1.0043103
   6 C    7 N           6     1.3265453     1.3824758     1.2788444
   6 C    8 O           9     1.3212451     1.4354124     1.2240558


optimized geometry written to: xtbopt.xyz


           -------------------------------------------------
          | TOTAL ENERGY              -82.971533590233 Eh   |
          | GRADIENT NORM               0.000898412768 Eh/α |
          | HOMO-LUMO GAP               0.213579527555 eV   |
           -------------------------------------------------

------------------------------------------------------------------------
 * finished run on 2023/06/21 at 17:31:13.610     
------------------------------------------------------------------------
 total:
 * wall-time:     0 d,  0 h,  0 min,  6.512 sec
 *  cpu-time:     0 d,  0 h,  0 min,  6.297 sec
 * ratio c/w:     0.967 speedup
 SCF:
 * wall-time:     0 d,  0 h,  0 min,  0.161 sec
 *  cpu-time:     0 d,  0 h,  0 min,  0.160 sec
 * ratio c/w:     0.997 speedup
 ANC optimizer:
 * wall-time:     0 d,  0 h,  0 min,  6.180 sec
 *  cpu-time:     0 d,  0 h,  0 min,  6.086 sec
 * ratio c/w:     0.985 speedup

