      -----------------------------------------------------------      
     |                   =====================                   |     
     |                           x T B                           |     
     |                   =====================                   |     
     |                         S. Grimme                         |     
     |          Mulliken Center for Theoretical Chemistry        |     
     |                    University of Bonn                     |     
      -----------------------------------------------------------      

   * xtb version 6.5.1 (579679a) compiled by 'ehlert@majestix' on 2022-07-11

   xtb is free software: you can redistribute it and/or modify it under
   the terms of the GNU Lesser General Public License as published by
   the Free Software Foundation, either version 3 of the License, or
   (at your option) any later version.
   
   xtb is distributed in the hope that it will be useful,
   but WITHOUT ANY WARRANTY; without even the implied warranty of
   MERCHANTABILITY or FITNESS FOR A PARTICULAR PURPOSE.  See the
   GNU Lesser General Public License for more details.
   
   Cite this work as:
   * C. Bannwarth, E. Caldeweyher, S. Ehlert, A. Hansen, P. Pracht,
     J. Seibert, S. Spicher, S. Grimme, WIREs Comput. Mol. Sci., 2020, 11,
     e01493. DOI: 10.1002/wcms.1493
   
   for GFN2-xTB:
   * C. Bannwarth, S. Ehlert and S. Grimme., J. Chem. Theory Comput., 2019,
     15, 1652-1671. DOI: 10.1021/acs.jctc.8b01176
   for GFN1-xTB:
   * S. Grimme, C. Bannwarth, P. Shushkov, J. Chem. Theory Comput., 2017,
     13, 1989-2009. DOI: 10.1021/acs.jctc.7b00118
   for GFN0-xTB:
   * P. Pracht, E. Caldeweyher, S. Ehlert, S. Grimme, ChemRxiv, 2019, preprint.
     DOI: 10.26434/chemrxiv.8326202.v1
   for GFN-FF:
   * S. Spicher and S. Grimme, Angew. Chem. Int. Ed., 2020, 59, 15665-15673.
     DOI: 10.1002/anie.202004239
   
   for ALPB and GBSA implicit solvation:
   * S. Ehlert, M. Stahn, S. Spicher, S. Grimme, J. Chem. Theory Comput.,
     2021, 17, 4250-4261. DOI: 10.1021/acs.jctc.1c00471
   
   for DFT-D4:
   * E. Caldeweyher, C. Bannwarth and S. Grimme, J. Chem. Phys., 2017,
     147, 034112. DOI: 10.1063/1.4993215
   * E. Caldeweyher, S. Ehlert, A. Hansen, H. Neugebauer, S. Spicher,
     C. Bannwarth and S. Grimme, J. Chem. Phys., 2019, 150, 154122.
     DOI: 10.1063/1.5090222
   * E. Caldeweyher, J.-M. Mewes, S. Ehlert and S. Grimme, Phys. Chem. Chem. Phys.
     2020, 22, 8499-8512. DOI: 10.1039/D0CP00502A
   
   for sTDA-xTB:
   * S. Grimme and C. Bannwarth, J. Chem. Phys., 2016, 145, 054103.
     DOI: 10.1063/1.4959605
   
   in the mass-spec context:
   * V. Asgeirsson, C. Bauer and S. Grimme, Chem. Sci., 2017, 8, 4879.
     DOI: 10.1039/c7sc00601b
   * J. Koopman and S. Grimme, ACS Omega 2019, 4, 12, 15120-15133.
     DOI: 10.1021/acsomega.9b02011
   
   for metadynamics refer to:
   * S. Grimme, J. Chem. Theory Comput., 2019, 155, 2847-2862
     DOI: 10.1021/acs.jctc.9b00143
   
   for SPH calculations refer to:
   * S. Spicher and S. Grimme, J. Chem. Theory Comput., 2021, 17, 1701-1714
     DOI: 10.1021/acs.jctc.0c01306
   
   with help from (in alphabetical order)
   P. Atkinson, C. Bannwarth, F. Bohle, G. Brandenburg, E. Caldeweyher
   M. Checinski, S. Dohm, S. Ehlert, S. Ehrlich, I. Gerasimov, C. Hölzer
   A. Katbashev, J. Koopman, C. Lavigne, S. Lehtola, F. März, M. Müller,
   F. Musil, H. Neugebauer, J. Pisarek, C. Plett, P. Pracht, F. Pultar,
   J. Seibert, P. Shushkov, S. Spicher, M. Stahn, M. Steiner, T. Strunk,
   J. Stückrath, T. Rose, and J. Unsleber
   
 * started run on 2023/06/20 at 14:57:24.883     

           -------------------------------------------------
          |                Calculation Setup                |
           -------------------------------------------------

          program call               : /lustre/hpc/kemi/ree/PhD/git/ReactivityQM/dep/xtb-6.5.1/bin/xtb --gfn 1 /lustre/hpc/kemi/ree/PhD/git/ReactivityQM/calculations/R01/reac02prodE02/conf15/R01_reac02prodE02_conf15_gfn1.xyz --opt --vfukui --chrg -1 --uhf 0 --alpb DMSO
          hostname                   : node312
          coordinate file            : /lustre/hpc/kemi/ree/PhD/git/ReactivityQM/calculations/R01/reac02prodE02/conf15/R01_reac02prodE02_conf15_gfn1.xyz
          omp threads                :                     1

   ID    Z sym.   atoms
    1    6 C      1, 3, 5, 6, 8-11, 14, 16
    2    8 O      2, 4, 15, 17
    3    7 N      7, 12, 13
    4    1 H      18-33

           -------------------------------------------------
          |                 G F N 1 - x T B                 |
           -------------------------------------------------

        Reference                      10.1021/acs.jctc.7b00118
      * Hamiltonian:
        H0-scaling (s, p, d)           1.850000    2.250000    2.000000
        zeta-weighting                 0.000000
      * Dispersion:
        s8                             2.400000
        a1                             0.630000
        a2                             5.000000
        s9                             0.000000
      * Repulsion:
        kExp                           1.500000
        rExp                           1.000000
      * Coulomb:
        alpha                          2.000000
        third order                    atomic
        anisotropic                    false
      * Halogen bond correction:
        rad-scale                      1.300000
        damping                        0.440000

      * Solvation model:               ALPB
        Solvent                        DMSO
        Parameter file                 internal GFN1-xTB/ALPB
        Dielectric constant                4.6680E+01
        Reference state                gsolv [1 M gas/solution]
        Free energy shift                  7.6243E-03 Eh       4.7843E+00 kcal/mol
        Temperature                        2.9815E+02 K
        Density                            1.1000E+00 kg/L
        Solvent mass                       7.8130E+01 g/mol
        Interaction kernel             P16
        Born radius scaling (c1)           1.7672E+00
        Born radii integrator          GBOBC
        Born offset                        0.0000E+00 a0       0.0000E+00 AA
        H-bond correction              true
        Ion screening                  false
        Surface tension                    1.0000E-05 Eh       1.5569E+01 dyn/cm
        Grid points                               230 per atom

          ...................................................
          :                      SETUP                      :
          :.................................................:
          :  # basis functions                 100          :
          :  # atomic orbitals                 100          :
          :  # shells                           66          :
          :  # electrons                        96          :
          :  # halogen bonds                     0          :
          :  max. iterations                   250          :
          :  Hamiltonian                  GFN1-xTB          :
          :  restarted?                      false          :
          :  GBSA solvation                   true          :
          :  PC potential                    false          :
          :  electronic temp.          300.0000000     K    :
          :  accuracy                    1.0000000          :
          :  -> integral cutoff          0.2500000E+02      :
          :  -> integral neglect         0.1000000E-07      :
          :  -> SCF convergence          0.1000000E-05 Eh   :
          :  -> wf. convergence          0.2000000E-04 e    :
          :  Broyden damping             0.4000000          :
          ...................................................

 iter      E             dE          RMSdq      gap      omega  full diag
   1    -58.8875969 -0.588876E+02  0.836E+00    2.00       0.0  T
   2    -59.0124143 -0.124817E+00  0.501E+00    1.47       1.0  T
   3    -58.9746231  0.377912E-01  0.145E+00    1.20       1.0  T
   4    -59.0155104 -0.408873E-01  0.472E-01    1.38       1.0  T
   5    -59.0228677 -0.735733E-02  0.183E-01    1.25       1.0  T
   6    -59.0245740 -0.170626E-02  0.234E-02    1.31       1.0  T
   7    -59.0245904 -0.163804E-04  0.579E-03    1.30       3.0  T
   8    -59.0245909 -0.512239E-06  0.185E-03    1.30       9.4  T
   9    -59.0245909 -0.472795E-07  0.754E-04    1.30      23.1  T
  10    -59.0245909 -0.719112E-09  0.369E-04    1.30      47.2  T
  11    -59.0245909 -0.228881E-08  0.577E-05    1.30     301.7  T
  12    -59.0245909 -0.143956E-10  0.186E-05    1.30     936.5  T

   *** convergence criteria satisfied after 12 iterations ***

         #    Occupation            Energy/Eh            Energy/eV
      -------------------------------------------------------------
         1        2.0000           -0.7743795             -21.0719
       ...           ...                  ...                  ...
        42        2.0000           -0.4440467             -12.0831
        43        2.0000           -0.4060457             -11.0491
        44        2.0000           -0.3970745             -10.8049
        45        2.0000           -0.3795375             -10.3277
        46        2.0000           -0.3663800              -9.9697
        47        2.0000           -0.3484430              -9.4816
        48        2.0000           -0.2665430              -7.2530 (HOMO)
        49                         -0.2187520              -5.9525 (LUMO)
        50                         -0.1706628              -4.6440
        51                         -0.1170046              -3.1839
        52                         -0.1114381              -3.0324
        53                         -0.1097133              -2.9855
       ...                                ...                  ...
       100                          0.7168472              19.5064
      -------------------------------------------------------------
                  HL-Gap            0.0477910 Eh            1.3005 eV
             Fermi-level           -0.2426475 Eh           -6.6028 eV

 SCC (total)                   0 d,  0 h,  0 min,  0.060 sec
 SCC setup                      ...        0 min,  0.001 sec (  1.866%)
 Dispersion                     ...        0 min,  0.000 sec (  0.306%)
 classical contributions        ...        0 min,  0.000 sec (  0.113%)
 integral evaluation            ...        0 min,  0.013 sec ( 21.886%)
 iterations                     ...        0 min,  0.016 sec ( 27.186%)
 molecular gradient             ...        0 min,  0.029 sec ( 48.018%)
 printout                       ...        0 min,  0.000 sec (  0.573%)

         :::::::::::::::::::::::::::::::::::::::::::::::::::::
         ::                     SUMMARY                     ::
         :::::::::::::::::::::::::::::::::::::::::::::::::::::
         :: total energy             -58.496480933496 Eh    ::
         :: total w/o Gsasa/hb       -58.478440876111 Eh    ::
         :: gradient norm              0.151942105891 Eh/a0 ::
         :: HOMO-LUMO gap              1.300460014091 eV    ::
         ::.................................................::
         :: SCC energy               -59.024590929614 Eh    ::
         :: -> electrostatic           0.352194060357 Eh    ::
         :: -> Gsolv                  -0.113944824331 Eh    ::
         ::    -> Gelec               -0.095904766947 Eh    ::
         ::    -> Gsasa               -0.018429687394 Eh    ::
         ::    -> Ghb                 -0.007234648995 Eh    ::
         ::    -> Gshift               0.007624279005 Eh    ::
         :: repulsion energy           0.547226992392 Eh    ::
         :: dispersion energy         -0.019116996273 Eh    ::
         :: halogen bond corr.         0.000000000000 Eh    ::
         :: add. restraining           0.000000000000 Eh    ::
         :: total charge              -1.000000000000 e     ::
         :::::::::::::::::::::::::::::::::::::::::::::::::::::

      ----------------------------------------------------------- 
     |                   =====================                   |
     |                        A N C O P T                        |
     |                   =====================                   |
     |               Approximate Normal Coordinate               |
     |                Rational Function Optimizer                |
      ----------------------------------------------------------- 

          ...................................................
          :                      SETUP                      :
          :.................................................:
          :   optimization level            normal          :
          :   max. optcycles                   200          :
          :   ANC micro-cycles                  20          :
          :   degrees of freedom                93          :
          :.................................................:
          :   RF solver                   davidson          :
          :   write xtbopt.log                true          :
          :   linear?                        false          :
          :   energy convergence         0.5000000E-05 Eh   :
          :   grad. convergence          0.1000000E-02 Eh/α :
          :   maximium RF displ.         1.0000000          :
          :   Hlow (freq-cutoff)         0.1000000E-01      :
          :   Hmax (freq-cutoff)         5.0000000          :
          :   S6 in model hess.         20.0000000          :
          ...................................................

generating ANC from model Hessian ...
Using Lindh-Hessian (1995)
 Shifting diagonal of input Hessian by   9.506669077943694E-003
 Lowest  eigenvalues of input Hessian
    0.000000    0.000000    0.000000    0.000000    0.000000    0.000000
    0.010000    0.010213    0.011628    0.011704    0.012956    0.013582
    0.013860    0.015240    0.017323    0.017962    0.019067    0.019158
 Highest eigenvalues
    1.713926    1.808915    1.887557    1.962013    2.139992    2.338194
 

........................................................................
.............................. CYCLE    1 ..............................
........................................................................
   1    -59.0245909 -0.590246E+02  0.648E-06    1.30       0.0  T
   2    -59.0245909  0.497380E-13  0.336E-06    1.30    5187.5  T
   3    -59.0245909 -0.639488E-12  0.228E-06    1.30    7649.6  T
     SCC iter.                  ...        0 min,  0.006 sec
     gradient                   ...        0 min,  0.055 sec
 * total energy  :   -58.4964809 Eh     change       -0.1314504E-11 Eh
   gradient norm :     0.1519421 Eh/α   predicted     0.0000000E+00 (-100.00%)
   displ. norm   :     0.3477305 α      lambda       -0.1897397E-01
   maximum displ.:     0.1845718 α      in ANC's #20, #4, #7, ...

........................................................................
.............................. CYCLE    2 ..............................
........................................................................
   1    -59.0413128 -0.590413E+02  0.133E-01    1.69       0.0  T
   2    -59.0417359 -0.423116E-03  0.574E-02    1.68       1.0  T
   3    -59.0418572 -0.121318E-03  0.274E-02    1.67       1.0  T
   4    -59.0418715 -0.142877E-04  0.120E-02    1.68       1.4  T
   5    -59.0418717 -0.230972E-06  0.386E-03    1.68       4.5  T
   6    -59.0418720 -0.262450E-06  0.426E-04    1.68      40.9  T
   7    -59.0418720 -0.205018E-08  0.140E-04    1.68     124.6  T
   8    -59.0418720 -0.210633E-09  0.519E-05    1.68     335.2  T
     SCC iter.                  ...        0 min,  0.010 sec
     gradient                   ...        0 min,  0.029 sec
 * total energy  :   -58.5104230 Eh     change       -0.1394212E-01 Eh
   gradient norm :     0.0713870 Eh/α   predicted    -0.1064619E-01 ( -23.64%)
   displ. norm   :     0.3403655 α      lambda       -0.8844242E-02
   maximum displ.:     0.2052293 α      in ANC's #20, #6, #4, ...

........................................................................
.............................. CYCLE    3 ..............................
........................................................................
   1    -59.0540699 -0.590541E+02  0.114E-01    2.00       0.0  T
   2    -59.0544132 -0.343349E-03  0.507E-02    2.01       1.0  T
   3    -59.0545184 -0.105187E-03  0.175E-02    2.00       1.0  T
   4    -59.0545235 -0.509794E-05  0.748E-03    2.01       2.3  T
   5    -59.0545235 -0.147527E-07  0.238E-03    2.00       7.3  T
   6    -59.0545236 -0.865570E-07  0.284E-04    2.00      61.4  T
   7    -59.0545236 -0.933127E-09  0.970E-05    2.00     179.5  T
   8    -59.0545236 -0.546194E-10  0.367E-05    2.00     474.4  T
     SCC iter.                  ...        0 min,  0.013 sec
     gradient                   ...        0 min,  0.055 sec
 * total energy  :   -58.5154249 Eh     change       -0.5001872E-02 Eh
   gradient norm :     0.0265306 Eh/α   predicted    -0.4934420E-02 (  -1.35%)
   displ. norm   :     0.2547559 α      lambda       -0.1603092E-02
   maximum displ.:     0.1394556 α      in ANC's #6, #20, #4, ...

........................................................................
.............................. CYCLE    4 ..............................
........................................................................
   1    -59.0536709 -0.590537E+02  0.189E-02    2.04       0.0  T
   2    -59.0536826 -0.116745E-04  0.956E-03    2.04       1.8  T
   3    -59.0536840 -0.140535E-05  0.448E-03    2.04       3.9  T
   4    -59.0536840 -0.198649E-07  0.165E-03    2.04      10.5  T
   5    -59.0536840 -0.810449E-08  0.492E-04    2.04      35.4  T
   6    -59.0536840 -0.805623E-08  0.816E-05    2.04     213.3  T
   7    -59.0536840 -0.908997E-10  0.346E-05    2.04     503.2  T
     SCC iter.                  ...        0 min,  0.009 sec
     gradient                   ...        0 min,  0.029 sec
 * total energy  :   -58.5166647 Eh     change       -0.1239812E-02 Eh
   gradient norm :     0.0194120 Eh/α   predicted    -0.8536135E-03 ( -31.15%)
   displ. norm   :     0.3605116 α      lambda       -0.1625542E-02
   maximum displ.:     0.2090633 α      in ANC's #6, #4, #20, ...

........................................................................
.............................. CYCLE    5 ..............................
........................................................................
   1    -59.0527816 -0.590528E+02  0.287E-02    2.05       0.0  T
   2    -59.0528104 -0.288080E-04  0.131E-02    2.06       1.3  T
   3    -59.0528140 -0.355588E-05  0.636E-03    2.06       2.7  T
   4    -59.0528141 -0.103109E-06  0.281E-03    2.06       6.2  T
   5    -59.0528141 -0.388575E-07  0.112E-03    2.06      15.6  T
   6    -59.0528142 -0.322145E-07  0.135E-04    2.06     128.7  T
   7    -59.0528142 -0.263185E-09  0.578E-05    2.06     301.4  T
     SCC iter.                  ...        0 min,  0.013 sec
     gradient                   ...        0 min,  0.055 sec
 * total energy  :   -58.5178123 Eh     change       -0.1147616E-02 Eh
   gradient norm :     0.0123581 Eh/α   predicted    -0.9184392E-03 ( -19.97%)
   displ. norm   :     0.3076528 α      lambda       -0.8824661E-03
   maximum displ.:     0.1732468 α      in ANC's #6, #4, #8, ...

........................................................................
.............................. CYCLE    6 ..............................
........................................................................
   1    -59.0531678 -0.590532E+02  0.244E-02    2.06       0.0  T
   2    -59.0531861 -0.183561E-04  0.112E-02    2.06       1.6  T
   3    -59.0531911 -0.500551E-05  0.467E-03    2.07       3.7  T
   4    -59.0531914 -0.263160E-06  0.214E-03    2.07       8.1  T
   5    -59.0531914 -0.163394E-08  0.809E-04    2.07      21.5  T
   6    -59.0531914 -0.959967E-08  0.124E-04    2.07     140.2  T
   7    -59.0531914 -0.242231E-09  0.469E-05    2.07     370.8  T
     SCC iter.                  ...        0 min,  0.009 sec
     gradient                   ...        0 min,  0.029 sec
 * total energy  :   -58.5184784 Eh     change       -0.6660276E-03 Eh
   gradient norm :     0.0127076 Eh/α   predicted    -0.4830037E-03 ( -27.48%)
   displ. norm   :     0.3378149 α      lambda       -0.8239900E-03
   maximum displ.:     0.1709477 α      in ANC's #6, #8, #4, ...

........................................................................
.............................. CYCLE    7 ..............................
........................................................................
   1    -59.0547504 -0.590548E+02  0.276E-02    2.07       0.0  T
   2    -59.0547699 -0.194860E-04  0.145E-02    2.07       1.2  T
   3    -59.0547797 -0.988905E-05  0.428E-03    2.07       4.1  T
   4    -59.0547799 -0.189552E-06  0.201E-03    2.07       8.7  T
   5    -59.0547799 -0.841883E-08  0.641E-04    2.07      27.1  T
   6    -59.0547799 -0.709763E-08  0.124E-04    2.07     140.3  T
   7    -59.0547799 -0.207358E-09  0.392E-05    2.07     443.9  T
     SCC iter.                  ...        0 min,  0.009 sec
     gradient                   ...        0 min,  0.029 sec
 * total energy  :   -58.5190990 Eh     change       -0.6205983E-03 Eh
   gradient norm :     0.0131863 Eh/α   predicted    -0.4590221E-03 ( -26.04%)
   displ. norm   :     0.3407589 α      lambda       -0.6766420E-03
   maximum displ.:     0.1582549 α      in ANC's #6, #8, #3, ...

........................................................................
.............................. CYCLE    8 ..............................
........................................................................
   1    -59.0565318 -0.590565E+02  0.252E-02    2.08       0.0  T
   2    -59.0565472 -0.153341E-04  0.133E-02    2.07       1.3  T
   3    -59.0565551 -0.790387E-05  0.425E-03    2.08       4.1  T
   4    -59.0565552 -0.118647E-06  0.191E-03    2.08       9.1  T
   5    -59.0565552 -0.656259E-08  0.659E-04    2.08      26.4  T
   6    -59.0565552 -0.945497E-08  0.102E-04    2.08     170.8  T
   7    -59.0565552 -0.131983E-09  0.334E-05    2.08     521.1  T
     SCC iter.                  ...        0 min,  0.009 sec
     gradient                   ...        0 min,  0.029 sec
 * total energy  :   -58.5195927 Eh     change       -0.4936796E-03 Eh
   gradient norm :     0.0114391 Eh/α   predicted    -0.3776133E-03 ( -23.51%)
   displ. norm   :     0.2909341 α      lambda       -0.4852940E-03
   maximum displ.:     0.1254862 α      in ANC's #6, #3, #8, ...

........................................................................
.............................. CYCLE    9 ..............................
........................................................................
   1    -59.0588635 -0.590589E+02  0.173E-02    2.08       0.0  T
   2    -59.0588716 -0.810612E-05  0.715E-03    2.07       2.4  T
   3    -59.0588729 -0.137270E-05  0.406E-03    2.07       4.3  T
   4    -59.0588730 -0.707963E-07  0.160E-03    2.07      10.9  T
   5    -59.0588730 -0.577761E-08  0.645E-04    2.07      27.0  T
   6    -59.0588730 -0.108851E-07  0.556E-05    2.07     313.0  T
   7    -59.0588730 -0.292459E-10  0.232E-05    2.07     750.4  T
     SCC iter.                  ...        0 min,  0.009 sec
     gradient                   ...        0 min,  0.029 sec
 * total energy  :   -58.5199377 Eh     change       -0.3450151E-03 Eh
   gradient norm :     0.0080205 Eh/α   predicted    -0.2631893E-03 ( -23.72%)
   displ. norm   :     0.3778362 α      lambda       -0.3872074E-03
   maximum displ.:     0.1986601 α      in ANC's #6, #3, #8, ...

........................................................................
.............................. CYCLE   10 ..............................
........................................................................
   1    -59.0559387 -0.590559E+02  0.291E-02    2.09       0.0  T
   2    -59.0559598 -0.211138E-04  0.168E-02    2.08       1.0  T
   3    -59.0559689 -0.905824E-05  0.677E-03    2.09       2.6  T
   4    -59.0559690 -0.968309E-07  0.273E-03    2.08       6.4  T
   5    -59.0559690 -0.292047E-07  0.674E-04    2.08      25.8  T
   6    -59.0559690 -0.163815E-07  0.760E-05    2.08     229.0  T
   7    -59.0559690 -0.986873E-10  0.312E-05    2.08     558.3  T
     SCC iter.                  ...        0 min,  0.009 sec
     gradient                   ...        0 min,  0.029 sec
 * total energy  :   -58.5200586 Eh     change       -0.1208953E-03 Eh
   gradient norm :     0.0132857 Eh/α   predicted    -0.2212519E-03 (  83.01%)
   displ. norm   :     0.1556663 α      lambda       -0.5686699E-03
   maximum displ.:     0.0857811 α      in ANC's #3, #5, #8, ...

........................................................................
.............................. CYCLE   11 ..............................
........................................................................
   1    -59.0606354 -0.590606E+02  0.254E-02    2.07       0.0  T
   2    -59.0606500 -0.145396E-04  0.165E-02    2.08       1.1  T
   3    -59.0606563 -0.631520E-05  0.787E-03    2.07       2.2  T
   4    -59.0606564 -0.119710E-06  0.237E-03    2.07       7.4  T
   5    -59.0606564 -0.217029E-07  0.352E-04    2.07      49.5  T
   6    -59.0606564 -0.337371E-08  0.893E-05    2.07     194.9  T
   7    -59.0606564 -0.114547E-09  0.315E-05    2.07     553.0  T
     SCC iter.                  ...        0 min,  0.009 sec
     gradient                   ...        0 min,  0.029 sec
 * total energy  :   -58.5203148 Eh     change       -0.2562231E-03 Eh
   gradient norm :     0.0102511 Eh/α   predicted    -0.2912384E-03 (  13.67%)
   displ. norm   :     0.1069062 α      lambda       -0.1555514E-03
   maximum displ.:     0.0570263 α      in ANC's #6, #8, #3, ...

........................................................................
.............................. CYCLE   12 ..............................
........................................................................
   1    -59.0591890 -0.590592E+02  0.127E-02    2.08       0.0  T
   2    -59.0591941 -0.510091E-05  0.862E-03    2.08       2.0  T
   3    -59.0591969 -0.277444E-05  0.216E-03    2.08       8.1  T
   4    -59.0591969 -0.598305E-08  0.102E-03    2.08      17.1  T
   5    -59.0591969 -0.152789E-08  0.224E-04    2.08      77.8  T
   6    -59.0591969 -0.999798E-09  0.378E-05    2.08     461.0  T
   7    -59.0591969 -0.151914E-10  0.144E-05    2.08    1205.8  T
     SCC iter.                  ...        0 min,  0.009 sec
     gradient                   ...        0 min,  0.029 sec
 * total energy  :   -58.5204429 Eh     change       -0.1280639E-03 Eh
   gradient norm :     0.0075881 Eh/α   predicted    -0.7866696E-04 ( -38.57%)
   displ. norm   :     0.3027373 α      lambda       -0.3840431E-03
   maximum displ.:     0.1666521 α      in ANC's #6, #1, #3, ...

........................................................................
.............................. CYCLE   13 ..............................
........................................................................
   1    -59.0581058 -0.590581E+02  0.275E-02    2.09       0.0  T
   2    -59.0581322 -0.264419E-04  0.179E-02    2.09       1.0  T
   3    -59.0581437 -0.114840E-04  0.496E-03    2.09       3.5  T
   4    -59.0581438 -0.421865E-07  0.269E-03    2.09       6.5  T
   5    -59.0581438 -0.173085E-07  0.592E-04    2.09      29.4  T
   6    -59.0581438 -0.697089E-08  0.878E-05    2.09     198.3  T
   7    -59.0581438 -0.145448E-09  0.335E-05    2.09     519.4  T
     SCC iter.                  ...        0 min,  0.009 sec
     gradient                   ...        0 min,  0.029 sec
 * total energy  :   -58.5206275 Eh     change       -0.1846675E-03 Eh
   gradient norm :     0.0077032 Eh/α   predicted    -0.2096211E-03 (  13.51%)
   displ. norm   :     0.0935439 α      lambda       -0.1561334E-03
   maximum displ.:     0.0525913 α      in ANC's #1, #8, #2, ...

........................................................................
.............................. CYCLE   14 ..............................
........................................................................
   1    -59.0578464 -0.590578E+02  0.992E-03    2.10       0.0  T
   2    -59.0578473 -0.923194E-06  0.553E-03    2.10       3.1  T
   3    -59.0578475 -0.218501E-06  0.323E-03    2.10       5.4  T
   4    -59.0578476 -0.115456E-06  0.699E-04    2.10      24.9  T
   5    -59.0578476 -0.546549E-08  0.176E-04    2.10      99.1  T
   6    -59.0578476 -0.526555E-09  0.512E-05    2.10     340.3  T
     SCC iter.                  ...        0 min,  0.008 sec
     gradient                   ...        0 min,  0.029 sec
 * total energy  :   -58.5207197 Eh     change       -0.9213294E-04 Eh
   gradient norm :     0.0049579 Eh/α   predicted    -0.7875126E-04 ( -14.52%)
   displ. norm   :     0.1677006 α      lambda       -0.1249608E-03
   maximum displ.:     0.0898445 α      in ANC's #1, #6, #3, ...

........................................................................
.............................. CYCLE   15 ..............................
........................................................................
   1    -59.0580617 -0.590581E+02  0.671E-03    2.10       0.0  T
   2    -59.0580628 -0.102558E-05  0.375E-03    2.10       4.6  T
   3    -59.0580633 -0.501469E-06  0.126E-03    2.10      13.8  T
   4    -59.0580633 -0.573577E-08  0.432E-04    2.10      40.3  T
   5    -59.0580633 -0.204700E-08  0.139E-04    2.10     125.2  T
   6    -59.0580633 -0.318160E-09  0.316E-05    2.10     551.7  T
     SCC iter.                  ...        0 min,  0.011 sec
     gradient                   ...        0 min,  0.054 sec
 * total energy  :   -58.5208280 Eh     change       -0.1083926E-03 Eh
   gradient norm :     0.0054104 Eh/α   predicted    -0.6424100E-04 ( -40.73%)
   displ. norm   :     0.4659298 α      lambda       -0.3936232E-03
   maximum displ.:     0.2966253 α      in ANC's #1, #6, #7, ...

........................................................................
.............................. CYCLE   16 ..............................
........................................................................
   1    -59.0605824 -0.590606E+02  0.175E-02    2.11       0.0  T
   2    -59.0605891 -0.674196E-05  0.998E-03    2.11       1.7  T
   3    -59.0605924 -0.331413E-05  0.335E-03    2.11       5.2  T
   4    -59.0605924 -0.379372E-07  0.115E-03    2.11      15.1  T
   5    -59.0605925 -0.124249E-07  0.377E-04    2.11      46.2  T
   6    -59.0605925 -0.245240E-08  0.817E-05    2.11     213.1  T
   7    -59.0605925 -0.713527E-10  0.251E-05    2.11     693.1  T
     SCC iter.                  ...        0 min,  0.014 sec
     gradient                   ...        0 min,  0.054 sec
 * total energy  :   -58.5210762 Eh     change       -0.2481637E-03 Eh
   gradient norm :     0.0076470 Eh/α   predicted    -0.2395430E-03 (  -3.47%)
   displ. norm   :     0.2932898 α      lambda       -0.1836107E-03
   maximum displ.:     0.1756138 α      in ANC's #1, #8, #7, ...

........................................................................
.............................. CYCLE   17 ..............................
........................................................................
   1    -59.0592600 -0.590593E+02  0.159E-02    2.12       0.0  T
   2    -59.0592655 -0.544180E-05  0.995E-03    2.11       1.7  T
   3    -59.0592686 -0.313883E-05  0.383E-03    2.11       4.5  T
   4    -59.0592686 -0.227330E-07  0.997E-04    2.11      17.5  T
   5    -59.0592686 -0.663834E-08  0.285E-04    2.11      61.2  T
   6    -59.0592687 -0.243369E-08  0.577E-05    2.11     301.6  T
   7    -59.0592687 -0.279812E-10  0.187E-05    2.11     928.6  T
     SCC iter.                  ...        0 min,  0.013 sec
     gradient                   ...        0 min,  0.055 sec
 * total energy  :   -58.5211797 Eh     change       -0.1034811E-03 Eh
   gradient norm :     0.0097182 Eh/α   predicted    -0.9971237E-04 (  -3.64%)
   displ. norm   :     0.3648532 α      lambda       -0.4367319E-03
   maximum displ.:     0.2476933 α      in ANC's #1, #7, #2, ...

........................................................................
.............................. CYCLE   18 ..............................
........................................................................
   1    -59.0644810 -0.590645E+02  0.157E-02    2.11       0.0  T
   2    -59.0644817 -0.727786E-06  0.817E-03    2.11       2.1  T
   3    -59.0644816  0.779648E-07  0.288E-03    2.11       6.1  T
   4    -59.0644817 -0.118140E-06  0.860E-04    2.11      20.2  T
   5    -59.0644818 -0.154927E-07  0.143E-04    2.11     121.8  T
   6    -59.0644818 -0.487120E-09  0.477E-05    2.11     364.8  T
     SCC iter.                  ...        0 min,  0.013 sec
     gradient                   ...        0 min,  0.055 sec
 * total energy  :   -58.5213096 Eh     change       -0.1298934E-03 Eh
   gradient norm :     0.0122413 Eh/α   predicted    -0.2474391E-03 (  90.49%)
   displ. norm   :     0.4383930 α      lambda       -0.5074199E-03
   maximum displ.:     0.2995600 α      in ANC's #1, #7, #6, ...

........................................................................
.............................. CYCLE   19 ..............................
........................................................................
   1    -59.0578529 -0.590579E+02  0.233E-02    2.12       0.0  T
   2    -59.0578572 -0.425453E-05  0.132E-02    2.11       1.3  T
   3    -59.0578581 -0.981739E-06  0.779E-03    2.12       2.2  T
   4    -59.0578589 -0.737076E-06  0.143E-03    2.11      12.2  T
   5    -59.0578589 -0.237467E-07  0.454E-04    2.11      38.3  T
   6    -59.0578589 -0.302892E-08  0.972E-05    2.11     179.0  T
   7    -59.0578589 -0.949427E-10  0.272E-05    2.11     640.4  T
     SCC iter.                  ...        0 min,  0.013 sec
     gradient                   ...        0 min,  0.054 sec
 * total energy  :   -58.5214595 Eh     change       -0.1498788E-03 Eh
   gradient norm :     0.0115653 Eh/α   predicted    -0.3024753E-03 ( 101.81%)
   displ. norm   :     0.1672555 α      lambda       -0.3600825E-03
   maximum displ.:     0.0902478 α      in ANC's #1, #7, #5, ...

........................................................................
.............................. CYCLE   20 ..............................
........................................................................
   1    -59.0592094 -0.590592E+02  0.159E-02    2.12       0.0  T
   2    -59.0592109 -0.144523E-05  0.873E-03    2.12       2.0  T
   3    -59.0592111 -0.283130E-06  0.529E-03    2.12       3.3  T
   4    -59.0592114 -0.292005E-06  0.824E-04    2.12      21.1  T
   5    -59.0592114 -0.145526E-07  0.224E-04    2.12      77.7  T
   6    -59.0592114 -0.139893E-08  0.483E-05    2.12     360.1  T
   7    -59.0592114 -0.187086E-10  0.150E-05    2.12    1162.0  T
     SCC iter.                  ...        0 min,  0.013 sec
     gradient                   ...        0 min,  0.054 sec
 * total energy  :   -58.5216230 Eh     change       -0.1635406E-03 Eh
   gradient norm :     0.0056823 Eh/α   predicted    -0.1850827E-03 (  13.17%)
   displ. norm   :     0.1642319 α      lambda       -0.1507315E-03
   maximum displ.:     0.1027889 α      in ANC's #1, #7, #10, ...
 * RMSD in coord.:     0.6672750 α      energy gain  -0.2514207E-01 Eh

generating ANC from model Hessian ...
Using Lindh-Hessian (1995)
 Shifting diagonal of input Hessian by   9.414601560399109E-003
 Lowest  eigenvalues of input Hessian
    0.000000    0.000000    0.000000    0.000000    0.000000    0.000000
    0.010000    0.010166    0.011319    0.011619    0.012385    0.012840
    0.014064    0.015236    0.015836    0.017231    0.019150    0.019442
 Highest eigenvalues
    1.686209    1.804372    1.971394    2.027680    2.147829    2.335674
 

........................................................................
.............................. CYCLE   21 ..............................
........................................................................
   1    -59.0600154 -0.590600E+02  0.730E-03    2.13       0.0  T
   2    -59.0600156 -0.274552E-06  0.375E-03    2.12       4.6  T
   3    -59.0600156 -0.725835E-08  0.118E-03    2.12      14.8  T
   4    -59.0600156 -0.554665E-08  0.373E-04    2.12      46.6  T
   5    -59.0600156 -0.256574E-08  0.104E-04    2.12     166.7  T
   6    -59.0600156 -0.329571E-09  0.325E-05    2.12     536.1  T
     SCC iter.                  ...        0 min,  0.011 sec
     gradient                   ...        0 min,  0.054 sec
 * total energy  :   -58.5217039 Eh     change       -0.8090028E-04 Eh
   gradient norm :     0.0070434 Eh/α   predicted     0.0000000E+00 (-100.00%)
   displ. norm   :     0.0680760 α      lambda       -0.1409228E-03
   maximum displ.:     0.0360539 α      in ANC's #8, #6, #9, ...

........................................................................
.............................. CYCLE   22 ..............................
........................................................................
   1    -59.0608277 -0.590608E+02  0.506E-03    2.13       0.0  T
   2    -59.0608279 -0.171054E-06  0.260E-03    2.13       6.7  T
   3    -59.0608279 -0.394176E-08  0.124E-03    2.13      14.0  T
   4    -59.0608279 -0.111976E-07  0.299E-04    2.13      58.3  T
   5    -59.0608279 -0.754106E-09  0.110E-04    2.13     158.8  T
   6    -59.0608279 -0.371010E-09  0.229E-05    2.13     760.3  T
     SCC iter.                  ...        0 min,  0.008 sec
     gradient                   ...        0 min,  0.038 sec
 * total energy  :   -58.5218162 Eh     change       -0.1123256E-03 Eh
   gradient norm :     0.0026415 Eh/α   predicted    -0.7084003E-04 ( -36.93%)
   displ. norm   :     0.1999333 α      lambda       -0.2349616E-03
   maximum displ.:     0.1096273 α      in ANC's #8, #6, #9, ...

........................................................................
.............................. CYCLE   23 ..............................
........................................................................
   1    -59.0613453 -0.590613E+02  0.829E-03    2.13       0.0  T
   2    -59.0613464 -0.109663E-05  0.423E-03    2.13       4.1  T
   3    -59.0613467 -0.307055E-06  0.249E-03    2.13       7.0  T
   4    -59.0613467 -0.558897E-07  0.732E-04    2.13      23.8  T
   5    -59.0613467 -0.112802E-08  0.234E-04    2.13      74.5  T
   6    -59.0613467 -0.144937E-08  0.433E-05    2.13     401.9  T
   7    -59.0613467 -0.125766E-10  0.931E-06    2.13    1869.6  T
     SCC iter.                  ...        0 min,  0.009 sec
     gradient                   ...        0 min,  0.029 sec
 * total energy  :   -58.5219944 Eh     change       -0.1781832E-03 Eh
   gradient norm :     0.0047062 Eh/α   predicted    -0.1221851E-03 ( -31.43%)
   displ. norm   :     0.3459197 α      lambda       -0.2827604E-03
   maximum displ.:     0.1895963 α      in ANC's #8, #6, #9, ...

........................................................................
.............................. CYCLE   24 ..............................
........................................................................
   1    -59.0597170 -0.590597E+02  0.147E-02    2.14       0.0  T
   2    -59.0597222 -0.524265E-05  0.892E-03    2.13       2.0  T
   3    -59.0597249 -0.274150E-05  0.334E-03    2.13       5.2  T
   4    -59.0597250 -0.309197E-07  0.118E-03    2.13      14.7  T
   5    -59.0597250 -0.253945E-08  0.339E-04    2.13      51.3  T
   6    -59.0597250 -0.332809E-08  0.645E-05    2.13     269.8  T
   7    -59.0597250 -0.381419E-10  0.177E-05    2.13     981.1  T
     SCC iter.                  ...        0 min,  0.013 sec
     gradient                   ...        0 min,  0.042 sec
 * total energy  :   -58.5222105 Eh     change       -0.2160429E-03 Eh
   gradient norm :     0.0088533 Eh/α   predicted    -0.1582982E-03 ( -26.73%)
   displ. norm   :     0.3809277 α      lambda       -0.2749652E-03
   maximum displ.:     0.1928239 α      in ANC's #6, #8, #9, ...

........................................................................
.............................. CYCLE   25 ..............................
........................................................................
   1    -59.0568554 -0.590569E+02  0.210E-02    2.14       0.0  T
   2    -59.0568668 -0.113626E-04  0.137E-02    2.13       1.3  T
   3    -59.0568730 -0.624859E-05  0.501E-03    2.14       3.5  T
   4    -59.0568730 -0.350778E-07  0.174E-03    2.14      10.0  T
   5    -59.0568730 -0.484246E-08  0.404E-04    2.14      43.1  T
   6    -59.0568730 -0.510907E-08  0.739E-05    2.14     235.6  T
   7    -59.0568730 -0.615117E-10  0.278E-05    2.14     626.3  T
     SCC iter.                  ...        0 min,  0.014 sec
     gradient                   ...        0 min,  0.053 sec
 * total energy  :   -58.5223254 Eh     change       -0.1149448E-03 Eh
   gradient norm :     0.0118601 Eh/α   predicted    -0.1574488E-03 (  36.98%)
   displ. norm   :     0.0635031 α      lambda       -0.2799201E-03
   maximum displ.:     0.0397233 α      in ANC's #8, #5, #1, ...

........................................................................
.............................. CYCLE   26 ..............................
........................................................................
   1    -59.0605067 -0.590605E+02  0.119E-02    2.13       0.0  T
   2    -59.0605072 -0.458445E-06  0.677E-03    2.13       2.6  T
   3    -59.0605071  0.335337E-07  0.297E-03    2.13       5.9  T
   4    -59.0605072 -0.100472E-06  0.366E-04    2.13      47.6  T
   5    -59.0605072 -0.325591E-08  0.150E-04    2.13     116.2  T
   6    -59.0605072 -0.724008E-09  0.283E-05    2.13     614.2  T
     SCC iter.                  ...        0 min,  0.012 sec
     gradient                   ...        0 min,  0.054 sec
 * total energy  :   -58.5224862 Eh     change       -0.1607942E-03 Eh
   gradient norm :     0.0045596 Eh/α   predicted    -0.1405251E-03 ( -12.61%)
   displ. norm   :     0.1271339 α      lambda       -0.1036124E-03
   maximum displ.:     0.0623375 α      in ANC's #8, #9, #6, ...

........................................................................
.............................. CYCLE   27 ..............................
........................................................................
   1    -59.0614919 -0.590615E+02  0.445E-03    2.13       0.0  T
   2    -59.0614921 -0.228897E-06  0.218E-03    2.13       8.0  T
   3    -59.0614921 -0.324473E-07  0.126E-03    2.13      13.8  T
   4    -59.0614922 -0.118402E-07  0.415E-04    2.13      41.9  T
   5    -59.0614922 -0.245868E-08  0.120E-04    2.13     144.6  T
   6    -59.0614922 -0.256023E-09  0.271E-05    2.13     643.1  T
     SCC iter.                  ...        0 min,  0.008 sec
     gradient                   ...        0 min,  0.029 sec
 * total energy  :   -58.5225709 Eh     change       -0.8472835E-04 Eh
   gradient norm :     0.0038781 Eh/α   predicted    -0.5265062E-04 ( -37.86%)
   displ. norm   :     0.3556458 α      lambda       -0.2123214E-03
   maximum displ.:     0.1753215 α      in ANC's #8, #6, #9, ...

........................................................................
.............................. CYCLE   28 ..............................
........................................................................
   1    -59.0611193 -0.590611E+02  0.952E-03    2.14       0.0  T
   2    -59.0611204 -0.108165E-05  0.391E-03    2.14       4.5  T
   3    -59.0611206 -0.196424E-06  0.235E-03    2.14       7.4  T
   4    -59.0611207 -0.991476E-07  0.712E-04    2.14      24.4  T
   5    -59.0611207 -0.141620E-08  0.184E-04    2.14      94.7  T
   6    -59.0611207 -0.393058E-09  0.621E-05    2.14     280.2  T
     SCC iter.                  ...        0 min,  0.008 sec
     gradient                   ...        0 min,  0.029 sec
 * total energy  :   -58.5227258 Eh     change       -0.1549054E-03 Eh
   gradient norm :     0.0087214 Eh/α   predicted    -0.1195899E-03 ( -22.80%)
   displ. norm   :     0.3029062 α      lambda       -0.1963013E-03
   maximum displ.:     0.1533960 α      in ANC's #1, #8, #5, ...

........................................................................
.............................. CYCLE   29 ..............................
........................................................................
   1    -59.0613221 -0.590613E+02  0.601E-03    2.14       0.0  T
   2    -59.0613227 -0.595394E-06  0.261E-03    2.14       6.7  T
   3    -59.0613228 -0.247742E-07  0.125E-03    2.14      13.9  T
   4    -59.0613228 -0.846123E-08  0.590E-04    2.14      29.5  T
   5    -59.0613228 -0.416878E-08  0.148E-04    2.14     117.3  T
   6    -59.0613228 -0.426922E-09  0.567E-05    2.14     307.1  T
     SCC iter.                  ...        0 min,  0.008 sec
     gradient                   ...        0 min,  0.039 sec
 * total energy  :   -58.5228767 Eh     change       -0.1508465E-03 Eh
   gradient norm :     0.0106426 Eh/α   predicted    -0.1071617E-03 ( -28.96%)
   displ. norm   :     0.3355331 α      lambda       -0.2825987E-03
   maximum displ.:     0.1954516 α      in ANC's #1, #5, #4, ...

........................................................................
.............................. CYCLE   30 ..............................
........................................................................
   1    -59.0621103 -0.590621E+02  0.925E-03    2.16       0.0  T
   2    -59.0621115 -0.119251E-05  0.464E-03    2.15       3.7  T
   3    -59.0621116 -0.156336E-06  0.274E-03    2.15       6.4  T
   4    -59.0621116 -0.344359E-07  0.777E-04    2.15      22.4  T
   5    -59.0621117 -0.131080E-07  0.215E-04    2.15      80.8  T
   6    -59.0621117 -0.948837E-09  0.516E-05    2.15     337.1  T
   7    -59.0621117 -0.197744E-10  0.119E-05    2.15    1458.2  T
     SCC iter.                  ...        0 min,  0.013 sec
     gradient                   ...        0 min,  0.043 sec
 * total energy  :   -58.5230801 Eh     change       -0.2033850E-03 Eh
   gradient norm :     0.0085144 Eh/α   predicted    -0.1572219E-03 ( -22.70%)
   displ. norm   :     0.4647296 α      lambda       -0.2669649E-03
   maximum displ.:     0.2429166 α      in ANC's #1, #8, #5, ...

........................................................................
.............................. CYCLE   31 ..............................
........................................................................
   1    -59.0579811 -0.590580E+02  0.196E-02    2.17       0.0  T
   2    -59.0579893 -0.821160E-05  0.120E-02    2.16       1.4  T
   3    -59.0579937 -0.431633E-05  0.526E-03    2.17       3.3  T
   4    -59.0579937 -0.643375E-07  0.133E-03    2.17      13.1  T
   5    -59.0579937 -0.343712E-08  0.262E-04    2.17      66.4  T
   6    -59.0579937 -0.204229E-08  0.799E-05    2.17     217.9  T
   7    -59.0579937 -0.773284E-10  0.226E-05    2.17     768.9  T
     SCC iter.                  ...        0 min,  0.009 sec
     gradient                   ...        0 min,  0.030 sec
 * total energy  :   -58.5231800 Eh     change       -0.9990736E-04 Eh
   gradient norm :     0.0125449 Eh/α   predicted    -0.1623126E-03 (  62.46%)
   displ. norm   :     0.2361571 α      lambda       -0.5031693E-03
   maximum displ.:     0.1690382 α      in ANC's #1, #7, #9, ...

........................................................................
.............................. CYCLE   32 ..............................
........................................................................
   1    -59.0619606 -0.590620E+02  0.214E-02    2.17       0.0  T
   2    -59.0619642 -0.355557E-05  0.111E-02    2.17       1.6  T
   3    -59.0619645 -0.295558E-06  0.661E-03    2.17       2.6  T
   4    -59.0619652 -0.674913E-06  0.172E-03    2.17      10.1  T
   5    -59.0619652 -0.129714E-07  0.273E-04    2.17      63.8  T
   6    -59.0619652 -0.141041E-08  0.737E-05    2.17     236.0  T
   7    -59.0619652 -0.397193E-10  0.205E-05    2.17     850.1  T
     SCC iter.                  ...        0 min,  0.009 sec
     gradient                   ...        0 min,  0.050 sec
 * total energy  :   -58.5232694 Eh     change       -0.8946112E-04 Eh
   gradient norm :     0.0132854 Eh/α   predicted    -0.2656210E-03 ( 196.91%)
   displ. norm   :     0.0853013 α      lambda       -0.3118552E-03
   maximum displ.:     0.0386411 α      in ANC's #6, #7, #4, ...

........................................................................
.............................. CYCLE   33 ..............................
........................................................................
   1    -59.0621020 -0.590621E+02  0.116E-02    2.17       0.0  T
   2    -59.0621039 -0.187978E-05  0.706E-03    2.17       2.5  T
   3    -59.0621044 -0.478944E-06  0.425E-03    2.17       4.1  T
   4    -59.0621045 -0.917602E-07  0.984E-04    2.17      17.7  T
   5    -59.0621045 -0.946596E-08  0.238E-04    2.17      73.1  T
   6    -59.0621045 -0.168427E-08  0.410E-05    2.17     424.6  T
   7    -59.0621045 -0.994760E-11  0.972E-06    2.17    1791.4  T
     SCC iter.                  ...        0 min,  0.013 sec
     gradient                   ...        0 min,  0.051 sec
 * total energy  :   -58.5234485 Eh     change       -0.1790662E-03 Eh
   gradient norm :     0.0069629 Eh/α   predicted    -0.1570640E-03 ( -12.29%)
   displ. norm   :     0.1974374 α      lambda       -0.1706951E-03
   maximum displ.:     0.1092028 α      in ANC's #1, #7, #8, ...

........................................................................
.............................. CYCLE   34 ..............................
........................................................................
   1    -59.0603924 -0.590604E+02  0.119E-02    2.17       0.0  T
   2    -59.0603944 -0.203472E-05  0.603E-03    2.16       2.9  T
   3    -59.0603948 -0.462124E-06  0.348E-03    2.17       5.0  T
   4    -59.0603949 -0.102673E-06  0.106E-03    2.17      16.4  T
   5    -59.0603950 -0.853846E-08  0.279E-04    2.17      62.4  T
   6    -59.0603950 -0.141647E-08  0.445E-05    2.17     391.5  T
   7    -59.0603950 -0.221618E-10  0.116E-05    2.17    1497.2  T
     SCC iter.                  ...        0 min,  0.009 sec
     gradient                   ...        0 min,  0.031 sec
 * total energy  :   -58.5235405 Eh     change       -0.9201769E-04 Eh
   gradient norm :     0.0063823 Eh/α   predicted    -0.8867492E-04 (  -3.63%)
   displ. norm   :     0.1212128 α      lambda       -0.1274726E-03
   maximum displ.:     0.0741530 α      in ANC's #1, #7, #4, ...

........................................................................
.............................. CYCLE   35 ..............................
........................................................................
   1    -59.0617985 -0.590618E+02  0.665E-03    2.16       0.0  T
   2    -59.0617998 -0.125771E-05  0.318E-03    2.16       5.5  T
   3    -59.0618001 -0.283932E-06  0.127E-03    2.16      13.7  T
   4    -59.0618001 -0.975060E-08  0.628E-04    2.16      27.7  T
   5    -59.0618001 -0.220855E-08  0.184E-04    2.16      94.8  T
   6    -59.0618001 -0.561080E-09  0.258E-05    2.16     675.5  T
     SCC iter.                  ...        0 min,  0.011 sec
     gradient                   ...        0 min,  0.033 sec
 * total energy  :   -58.5236403 Eh     change       -0.9975131E-04 Eh
   gradient norm :     0.0058582 Eh/α   predicted    -0.6467414E-04 ( -35.16%)
   displ. norm   :     0.3735982 α      lambda       -0.2045667E-03
   maximum displ.:     0.2499060 α      in ANC's #1, #7, #4, ...

........................................................................
.............................. CYCLE   36 ..............................
........................................................................
   1    -59.0614391 -0.590614E+02  0.140E-02    2.17       0.0  T
   2    -59.0614448 -0.568852E-05  0.829E-03    2.16       2.1  T
   3    -59.0614473 -0.252721E-05  0.238E-03    2.17       7.3  T
   4    -59.0614474 -0.252504E-07  0.115E-03    2.17      15.1  T
   5    -59.0614474 -0.335858E-08  0.313E-04    2.17      55.6  T
   6    -59.0614474 -0.187244E-08  0.674E-05    2.17     258.5  T
   7    -59.0614474 -0.357971E-10  0.244E-05    2.17     714.2  T
     SCC iter.                  ...        0 min,  0.009 sec
     gradient                   ...        0 min,  0.039 sec
 * total energy  :   -58.5237771 Eh     change       -0.1368838E-03 Eh
   gradient norm :     0.0068189 Eh/α   predicted    -0.1165636E-03 ( -14.84%)
   displ. norm   :     0.2592913 α      lambda       -0.2155615E-03
   maximum displ.:     0.1771421 α      in ANC's #1, #4, #7, ...

........................................................................
.............................. CYCLE   37 ..............................
........................................................................
   1    -59.0639990 -0.590640E+02  0.124E-02    2.17       0.0  T
   2    -59.0640013 -0.237864E-05  0.654E-03    2.17       2.7  T
   3    -59.0640019 -0.568843E-06  0.346E-03    2.17       5.0  T
   4    -59.0640020 -0.684688E-07  0.108E-03    2.17      16.1  T
   5    -59.0640020 -0.148737E-07  0.257E-04    2.17      67.8  T
   6    -59.0640020 -0.129529E-08  0.508E-05    2.17     342.8  T
   7    -59.0640020 -0.337153E-10  0.195E-05    2.17     891.8  T
     SCC iter.                  ...        0 min,  0.011 sec
     gradient                   ...        0 min,  0.029 sec
 * total energy  :   -58.5238628 Eh     change       -0.8564908E-04 Eh
   gradient norm :     0.0053891 Eh/α   predicted    -0.1150275E-03 (  34.30%)
   displ. norm   :     0.4327785 α      lambda       -0.1780369E-03
   maximum displ.:     0.2877298 α      in ANC's #1, #7, #4, ...

........................................................................
.............................. CYCLE   38 ..............................
........................................................................
   1    -59.0603801 -0.590604E+02  0.177E-02    2.18       0.0  T
   2    -59.0603863 -0.627080E-05  0.112E-02    2.18       1.6  T
   3    -59.0603895 -0.319335E-05  0.519E-03    2.18       3.4  T
   4    -59.0603896 -0.568802E-07  0.111E-03    2.18      15.7  T
   5    -59.0603896 -0.736340E-08  0.317E-04    2.18      55.0  T
   6    -59.0603896 -0.280722E-08  0.863E-05    2.18     201.6  T
   7    -59.0603896 -0.832898E-10  0.248E-05    2.18     700.9  T
     SCC iter.                  ...        0 min,  0.014 sec
     gradient                   ...        0 min,  0.054 sec
 * total energy  :   -58.5239197 Eh     change       -0.5693614E-04 Eh
   gradient norm :     0.0073581 Eh/α   predicted    -0.1056983E-03 (  85.64%)
   displ. norm   :     0.1302918 α      lambda       -0.1233709E-03
   maximum displ.:     0.0824291 α      in ANC's #1, #7, #4, ...

........................................................................
.............................. CYCLE   39 ..............................
........................................................................
   1    -59.0631324 -0.590631E+02  0.992E-03    2.18       0.0  T
   2    -59.0631342 -0.180406E-05  0.589E-03    2.18       3.0  T
   3    -59.0631348 -0.579494E-06  0.313E-03    2.18       5.6  T
   4    -59.0631348 -0.261633E-07  0.932E-04    2.18      18.7  T
   5    -59.0631348 -0.101208E-07  0.191E-04    2.18      91.3  T
   6    -59.0631348 -0.109474E-08  0.341E-05    2.18     509.8  T
     SCC iter.                  ...        0 min,  0.012 sec
     gradient                   ...        0 min,  0.051 sec
 * total energy  :   -58.5239845 Eh     change       -0.6471829E-04 Eh
   gradient norm :     0.0032296 Eh/α   predicted    -0.6273343E-04 (  -3.07%)
   displ. norm   :     0.1239601 α      lambda       -0.5488914E-04
   maximum displ.:     0.0788415 α      in ANC's #1, #7, #4, ...

........................................................................
.............................. CYCLE   40 ..............................
........................................................................
   1    -59.0636236 -0.590636E+02  0.390E-03    2.19       0.0  T
   2    -59.0636239 -0.235853E-06  0.167E-03    2.19      10.4  T
   3    -59.0636239 -0.455259E-07  0.990E-04    2.19      17.6  T
   4    -59.0636239 -0.566300E-08  0.342E-04    2.19      50.9  T
   5    -59.0636239 -0.174315E-08  0.762E-05    2.19     228.4  T
   6    -59.0636239 -0.865370E-10  0.202E-05    2.19     861.7  T
     SCC iter.                  ...        0 min,  0.012 sec
     gradient                   ...        0 min,  0.034 sec
 * total energy  :   -58.5240267 Eh     change       -0.4227365E-04 Eh
   gradient norm :     0.0023360 Eh/α   predicted    -0.2787089E-04 ( -34.07%)
   displ. norm   :     0.3161956 α      lambda       -0.9552281E-04
   maximum displ.:     0.1916036 α      in ANC's #1, #4, #7, ...

........................................................................
.............................. CYCLE   41 ..............................
........................................................................
   1    -59.0633388 -0.590633E+02  0.885E-03    2.19       0.0  T
   2    -59.0633405 -0.173722E-05  0.450E-03    2.19       3.9  T
   3    -59.0633412 -0.722257E-06  0.174E-03    2.19      10.0  T
   4    -59.0633412 -0.183113E-07  0.737E-04    2.19      23.6  T
   5    -59.0633412 -0.684658E-09  0.162E-04    2.19     107.7  T
   6    -59.0633412 -0.600011E-09  0.420E-05    2.19     414.6  T
     SCC iter.                  ...        0 min,  0.011 sec
     gradient                   ...        0 min,  0.050 sec
 * total energy  :   -58.5240827 Eh     change       -0.5597432E-04 Eh
   gradient norm :     0.0045185 Eh/α   predicted    -0.5253901E-04 (  -6.14%)
   displ. norm   :     0.1452792 α      lambda       -0.5153249E-04
   maximum displ.:     0.0721125 α      in ANC's #1, #7, #4, ...

........................................................................
.............................. CYCLE   42 ..............................
........................................................................
   1    -59.0632278 -0.590632E+02  0.433E-03    2.20       0.0  T
   2    -59.0632281 -0.299089E-06  0.226E-03    2.19       7.7  T
   3    -59.0632283 -0.145816E-06  0.112E-03    2.19      15.6  T
   4    -59.0632283 -0.766552E-08  0.268E-04    2.19      65.0  T
   5    -59.0632283 -0.195257E-09  0.489E-05    2.19     356.3  T
   6    -59.0632283 -0.578098E-10  0.141E-05    2.19    1236.5  T
     SCC iter.                  ...        0 min,  0.011 sec
     gradient                   ...        0 min,  0.055 sec
 * total energy  :   -58.5241227 Eh     change       -0.3999967E-04 Eh
   gradient norm :     0.0036792 Eh/α   predicted    -0.2631341E-04 ( -34.22%)
   displ. norm   :     0.2311649 α      lambda       -0.8215165E-04
   maximum displ.:     0.0908600 α      in ANC's #7, #1, #4, ...
 * RMSD in coord.:     0.7251880 α      energy gain  -0.2499695E-02 Eh

generating ANC from model Hessian ...
Using Lindh-Hessian (1995)
 Shifting diagonal of input Hessian by   9.413944122990755E-003
 Lowest  eigenvalues of input Hessian
    0.000000    0.000000    0.000000    0.000000    0.000000    0.000000
    0.010000    0.010151    0.011158    0.011707    0.012022    0.012566
    0.013964    0.015118    0.015713    0.016835    0.019129    0.019368
 Highest eigenvalues
    1.690369    1.812426    1.951690    2.028982    2.155762    2.339639
 

........................................................................
.............................. CYCLE   43 ..............................
........................................................................
   1    -59.0632785 -0.590633E+02  0.679E-03    2.20       0.0  T
   2    -59.0632795 -0.104893E-05  0.374E-03    2.19       4.7  T
   3    -59.0632801 -0.540079E-06  0.130E-03    2.20      13.4  T
   4    -59.0632801 -0.788633E-08  0.478E-04    2.20      36.4  T
   5    -59.0632801 -0.269665E-09  0.101E-04    2.20     172.2  T
   6    -59.0632801 -0.270319E-09  0.237E-05    2.20     736.0  T
     SCC iter.                  ...        0 min,  0.011 sec
     gradient                   ...        0 min,  0.053 sec
 * total energy  :   -58.5241833 Eh     change       -0.6058211E-04 Eh
   gradient norm :     0.0029073 Eh/α   predicted     0.0000000E+00 (-100.00%)
   displ. norm   :     0.0472580 α      lambda       -0.3994544E-04
   maximum displ.:     0.0265265 α      in ANC's #5, #1, #8, ...

........................................................................
.............................. CYCLE   44 ..............................
........................................................................
   1    -59.0635882 -0.590636E+02  0.215E-03    2.20       0.0  T
   2    -59.0635883 -0.105381E-06  0.123E-03    2.20      14.2  T
   3    -59.0635883 -0.274887E-07  0.608E-04    2.20      28.6  T
   4    -59.0635883 -0.323454E-08  0.217E-04    2.20      80.2  T
   5    -59.0635883 -0.937774E-10  0.470E-05    2.20     370.5  T
   6    -59.0635883 -0.279883E-10  0.119E-05    2.20    1459.8  T
     SCC iter.                  ...        0 min,  0.011 sec
     gradient                   ...        0 min,  0.053 sec
 * total energy  :   -58.5242192 Eh     change       -0.3593741E-04 Eh
   gradient norm :     0.0016346 Eh/α   predicted    -0.2058701E-04 ( -42.71%)
   displ. norm   :     0.2867864 α      lambda       -0.1194496E-03
   maximum displ.:     0.1634624 α      in ANC's #5, #1, #8, ...

........................................................................
.............................. CYCLE   45 ..............................
........................................................................
   1    -59.0635079 -0.590635E+02  0.879E-03    2.19       0.0  T
   2    -59.0635104 -0.248586E-05  0.504E-03    2.19       3.5  T
   3    -59.0635112 -0.795455E-06  0.188E-03    2.20       9.2  T
   4    -59.0635113 -0.253376E-07  0.860E-04    2.20      20.2  T
   5    -59.0635113 -0.102100E-08  0.232E-04    2.20      75.2  T
   6    -59.0635113 -0.603045E-09  0.541E-05    2.20     321.7  T
   7    -59.0635113 -0.339213E-10  0.190E-05    2.20     914.6  T
     SCC iter.                  ...        0 min,  0.013 sec
     gradient                   ...        0 min,  0.053 sec
 * total energy  :   -58.5243074 Eh     change       -0.8817789E-04 Eh
   gradient norm :     0.0041207 Eh/α   predicted    -0.6191163E-04 ( -29.79%)
   displ. norm   :     0.0527421 α      lambda       -0.3265414E-04
   maximum displ.:     0.0290406 α      in ANC's #5, #1, #2, ...

........................................................................
.............................. CYCLE   46 ..............................
........................................................................
   1    -59.0636275 -0.590636E+02  0.152E-03    2.19       0.0  T
   2    -59.0636276 -0.256615E-07  0.707E-04    2.19      24.6  T
   3    -59.0636276 -0.362494E-08  0.471E-04    2.19      36.9  T
   4    -59.0636276 -0.220342E-08  0.117E-04    2.19     148.4  T
   5    -59.0636276 -0.131401E-09  0.301E-05    2.19     579.0  T
     SCC iter.                  ...        0 min,  0.010 sec
     gradient                   ...        0 min,  0.053 sec
 * total energy  :   -58.5243358 Eh     change       -0.2839252E-04 Eh
   gradient norm :     0.0030544 Eh/α   predicted    -0.1637589E-04 ( -42.32%)
   displ. norm   :     0.1618455 α      lambda       -0.7284139E-04
   maximum displ.:     0.0847751 α      in ANC's #5, #1, #2, ...

........................................................................
.............................. CYCLE   47 ..............................
........................................................................
   1    -59.0635282 -0.590635E+02  0.408E-03    2.19       0.0  T
   2    -59.0635285 -0.262518E-06  0.186E-03    2.19       9.3  T
   3    -59.0635285 -0.166103E-07  0.117E-03    2.19      14.9  T
   4    -59.0635285 -0.758784E-08  0.380E-04    2.19      45.8  T
   5    -59.0635285 -0.251644E-08  0.103E-04    2.19     169.1  T
   6    -59.0635285 -0.185786E-09  0.227E-05    2.19     765.7  T
     SCC iter.                  ...        0 min,  0.010 sec
     gradient                   ...        0 min,  0.053 sec
 * total energy  :   -58.5243814 Eh     change       -0.4562130E-04 Eh
   gradient norm :     0.0018880 Eh/α   predicted    -0.3740429E-04 ( -18.01%)
   displ. norm   :     0.1329048 α      lambda       -0.1709014E-04
   maximum displ.:     0.0686402 α      in ANC's #1, #5, #2, ...

........................................................................
.............................. CYCLE   48 ..............................
........................................................................
   1    -59.0634459 -0.590634E+02  0.249E-03    2.19       0.0  T
   2    -59.0634460 -0.169012E-06  0.974E-04    2.19      17.9  T
   3    -59.0634461 -0.943508E-08  0.549E-04    2.19      31.7  T
   4    -59.0634461 -0.395268E-09  0.230E-04    2.19      75.6  T
   5    -59.0634461 -0.227814E-09  0.788E-05    2.19     220.8  T
   6    -59.0634461 -0.177842E-09  0.109E-05    2.19    1603.7  T
     SCC iter.                  ...        0 min,  0.008 sec
     gradient                   ...        0 min,  0.029 sec
 * total energy  :   -58.5243984 Eh     change       -0.1703640E-04 Eh
   gradient norm :     0.0020723 Eh/α   predicted    -0.8612903E-05 ( -49.44%)
   displ. norm   :     0.0639873 α      lambda       -0.1512391E-04
   maximum displ.:     0.0346744 α      in ANC's #1, #2, #5, ...

........................................................................
.............................. CYCLE   49 ..............................
........................................................................
   1    -59.0637350 -0.590637E+02  0.181E-03    2.20       0.0  T
   2    -59.0637351 -0.549549E-07  0.761E-04    2.20      22.9  T
   3    -59.0637351 -0.541805E-08  0.414E-04    2.20      42.0  T
   4    -59.0637351 -0.425402E-09  0.149E-04    2.20     117.2  T
   5    -59.0637351 -0.265366E-09  0.376E-05    2.20     463.0  T
     SCC iter.                  ...        0 min,  0.007 sec
     gradient                   ...        0 min,  0.029 sec
 * total energy  :   -58.5244104 Eh     change       -0.1196443E-04 Eh
   gradient norm :     0.0011397 Eh/α   predicted    -0.7593052E-05 ( -36.54%)
   displ. norm   :     0.1766717 α      lambda       -0.1715630E-04
   maximum displ.:     0.0953147 α      in ANC's #2, #1, #5, ...

........................................................................
.............................. CYCLE   50 ..............................
........................................................................
   1    -59.0636537 -0.590637E+02  0.289E-03    2.20       0.0  T
   2    -59.0636538 -0.169872E-06  0.103E-03    2.20      16.8  T
   3    -59.0636539 -0.151168E-07  0.526E-04    2.20      33.1  T
   4    -59.0636539 -0.837815E-09  0.177E-04    2.20      98.2  T
   5    -59.0636539 -0.757368E-10  0.510E-05    2.20     341.4  T
     SCC iter.                  ...        0 min,  0.007 sec
     gradient                   ...        0 min,  0.029 sec
 * total energy  :   -58.5244230 Eh     change       -0.1263714E-04 Eh
   gradient norm :     0.0014259 Eh/α   predicted    -0.8699081E-05 ( -31.16%)
   displ. norm   :     0.0360866 α      lambda       -0.5237000E-05
   maximum displ.:     0.0217225 α      in ANC's #2, #3, #1, ...

........................................................................
.............................. CYCLE   51 ..............................
........................................................................
   1    -59.0640907 -0.590641E+02  0.145E-03    2.20       0.0  T
   2    -59.0640907 -0.136657E-07  0.757E-04    2.20      23.0  T
   3    -59.0640907 -0.439059E-09  0.363E-04    2.20      48.0  T
   4    -59.0640907 -0.643297E-09  0.498E-05    2.20     349.9  T
   5    -59.0640907 -0.352998E-10  0.181E-05    2.20     960.3  T
     SCC iter.                  ...        0 min,  0.007 sec
     gradient                   ...        0 min,  0.029 sec
 * total energy  :   -58.5244289 Eh     change       -0.5855509E-05 Eh
   gradient norm :     0.0011724 Eh/α   predicted    -0.2620309E-05 ( -55.25%)
   displ. norm   :     0.0928691 α      lambda       -0.9602796E-05
   maximum displ.:     0.0559849 α      in ANC's #2, #3, #1, ...

........................................................................
.............................. CYCLE   52 ..............................
........................................................................
   1    -59.0640822 -0.590641E+02  0.247E-03    2.20       0.0  T
   2    -59.0640824 -0.132683E-06  0.116E-03    2.20      15.0  T
   3    -59.0640824 -0.219640E-07  0.601E-04    2.20      29.0  T
   4    -59.0640824 -0.176396E-08  0.251E-04    2.20      69.2  T
   5    -59.0640824 -0.713591E-09  0.574E-05    2.20     303.4  T
   6    -59.0640824 -0.692566E-10  0.165E-05    2.20    1057.8  T
     SCC iter.                  ...        0 min,  0.008 sec
     gradient                   ...        0 min,  0.029 sec
 * total energy  :   -58.5244388 Eh     change       -0.9869440E-05 Eh
   gradient norm :     0.0007913 Eh/α   predicted    -0.4820009E-05 ( -51.16%)
   displ. norm   :     0.0784875 α      lambda       -0.5134787E-05
   maximum displ.:     0.0492809 α      in ANC's #2, #3, #1, ...

........................................................................
.............................. CYCLE   53 ..............................
........................................................................
   1    -59.0640408 -0.590640E+02  0.140E-03    2.20       0.0  T
   2    -59.0640409 -0.333247E-07  0.539E-04    2.20      32.3  T
   3    -59.0640409 -0.409476E-08  0.304E-04    2.20      57.3  T
   4    -59.0640409 -0.225398E-09  0.629E-05    2.20     276.7  T
   5    -59.0640409 -0.527578E-10  0.269E-05    2.20     647.1  T
     SCC iter.                  ...        0 min,  0.007 sec
     gradient                   ...        0 min,  0.029 sec
 * total energy  :   -58.5244445 Eh     change       -0.5749856E-05 Eh
   gradient norm :     0.0007530 Eh/α   predicted    -0.2574963E-05 ( -55.22%)
   displ. norm   :     0.0678993 α      lambda       -0.3638984E-05
   maximum displ.:     0.0437187 α      in ANC's #2, #3, #1, ...

........................................................................
.............................. CYCLE   54 ..............................
........................................................................
   1    -59.0640052 -0.590640E+02  0.129E-03    2.21       0.0  T
   2    -59.0640053 -0.319066E-07  0.563E-04    2.21      30.9  T
   3    -59.0640053 -0.945175E-08  0.280E-04    2.20      62.1  T
   4    -59.0640053 -0.730132E-09  0.109E-04    2.21     159.5  T
   5    -59.0640053 -0.413038E-10  0.239E-05    2.20     727.0  T
     SCC iter.                  ...        0 min,  0.010 sec
     gradient                   ...        0 min,  0.046 sec
 * total energy  :   -58.5244486 Eh     change       -0.4037013E-05 Eh
   gradient norm :     0.0004528 Eh/α   predicted    -0.1827860E-05 ( -54.72%)
   displ. norm   :     0.0459511 α      lambda       -0.2153338E-05
   maximum displ.:     0.0303207 α      in ANC's #2, #3, #1, ...

   *** GEOMETRY OPTIMIZATION CONVERGED AFTER 54 ITERATIONS ***

------------------------------------------------------------------------
 total energy gain   :        -0.0279676 Eh      -17.5499 kcal/mol
 total RMSD          :         1.1858587 a0        0.6275 Å
 total power (kW/mol):        -1.3597961 (step)  -18.6853 (real)
------------------------------------------------------------------------

 ANCopt (total)                0 d,  0 h,  0 min,  3.930 sec
 optimizer setup                ...        0 min,  0.001 sec (  0.018%)
 model hessian                  ...        0 min,  0.065 sec (  1.662%)
 ANC generation                 ...        0 min,  0.004 sec (  0.104%)
 coordinate transformation      ...        0 min,  0.001 sec (  0.029%)
 single point calculation       ...        0 min,  3.839 sec ( 97.681%)
 optimization log               ...        0 min,  0.009 sec (  0.233%)
 hessian update                 ...        0 min,  0.001 sec (  0.026%)
 rational function              ...        0 min,  0.006 sec (  0.161%)

================
 final structure:
================
33
 xtb: 6.5.1 (579679a)
C           -2.31271838573076        2.04034976806586       -0.69248538493377
O           -2.28906165941806        1.32140165446524        0.53587679774986
C           -2.19900097260399       -0.06886872882114        0.41288558732708
O           -3.43880680621201       -0.72500733221994        0.44751528766911
C           -4.14662835995249       -0.58871396820797        1.67439870809425
C           -1.01405950366899       -0.70735328760942        0.17790814140522
N            0.10576543236669        0.13961994961433        0.04200175774726
C            1.25465809026315       -0.37933726833577       -0.20935787584104
C            2.47987438240993        0.51566360980233       -0.31562169951990
C            3.14662838336886        0.58076773610176        1.06572587292255
C            2.07418167742875        1.92031485807729       -0.77925115277353
N            3.42404767185445       -0.09699439701147       -1.25184623051749
N            1.47360922562395       -1.70803276739227       -0.32620530142755
C            0.42990418702778       -2.68376893400529       -0.21525382520638
O            0.76274471673542       -3.88844598431992       -0.35738408050375
C           -0.81135883478598       -2.12551271964465        0.04972427656660
O           -1.89659146232252       -3.01210539950096        0.22026764035155
H           -3.14428127898028        1.71589135321700       -1.33044706543588
H           -1.36939825517927        1.90723428721791       -1.23793485186855
H           -2.43928290115642        3.09695107815527       -0.44856102938225
H           -4.30960376812560        0.46809043473918        1.91628093639858
H           -5.11292207637056       -1.07936091996729        1.54890087932404
H           -3.60243637563229       -1.06391117796828        2.50091877237979
H            4.02127532590162        1.22904425542504        1.03087584442554
H            3.46187271736584       -0.41623909272907        1.37436438397148
H            2.44668518725667        0.97531205597537        1.80254890037741
H            1.35239584893430        2.34573764698396       -0.08128219197207
H            2.94829875120642        2.56722220477994       -0.82970829800064
H            1.61560195698163        1.87066798215355       -1.76651449609595
H            3.09848731771263        0.04401684631080       -2.19941276297891
H            4.31799398914150        0.36552125614476       -1.17406363317112
H            2.39411700999021       -2.02946867537790       -0.58342690311673
H           -2.72199123143043       -2.53068732411779        0.05746699603551
 
 Bond Distances (Angstroems)
 ---------------------------
C1-O2=1.4235         C1-H18=1.0972        C1-H19=1.0978        C1-H20=1.0918        O2-C1=1.4235         O2-C3=1.3986         
C3-O2=1.3986         C3-O4=1.4032         C3-C6=1.3664         O4-C3=1.4032         O4-C5=1.4230         C5-O4=1.4230         
C5-H21=1.0963        C5-H22=1.0910        C5-H23=1.0978        C6-C3=1.3664         C6-N7=1.4106         C6-C16=1.4383        
N7-C6=1.4106         N7-C8=1.2855         C8-N7=1.2855         C8-C9=1.5210         C8-N13=1.3517        C9-C8=1.5210         
C9-C10=1.5352        C9-C11=1.5338        C9-N12=1.4640        C10-C9=1.5352        C10-H24=1.0893       C10-H25=1.0903       
C10-H26=1.0902       C11-C9=1.5338        C11-H27=1.0905       C11-H28=1.0886       C11-H29=1.0897       N12-C9=1.4640        
N12-H30=1.0118       N12-H31=1.0095       N13-C8=1.3517        N13-C14=1.4331       N13-H32=1.0084       C14-N13=1.4331       
C14-O15=1.2579       C14-C16=1.3866       O15-C14=1.2579       C16-C6=1.4383        C16-C14=1.3866       C16-O17=1.4117       
O17-C16=1.4117       O17-H33=0.9693       H18-C1=1.0972        H19-C1=1.0978        H20-C1=1.0918        H21-C5=1.0963        
H22-C5=1.0910        H23-C5=1.0978        H24-C10=1.0893       H25-C10=1.0903       H26-C10=1.0902       H27-C11=1.0905       
H28-C11=1.0886       H29-C11=1.0897       H30-N12=1.0118       H31-N12=1.0095       H32-N13=1.0084       H33-O17=0.9693       
 C  H  Rav=1.0925 sigma=0.0034  Rmin=1.0886  Rmax=1.0978    12
 C  C  Rav=1.4635 sigma=0.0700  Rmin=1.3664  Rmax=1.5352     6
 N  H  Rav=1.0099 sigma=0.0014  Rmin=1.0084  Rmax=1.0118     3
 N  C  Rav=1.3890 sigma=0.0635  Rmin=1.2855  Rmax=1.4640     5
 O  H  Rav=0.9693 sigma=0.0000  Rmin=0.9693  Rmax=0.9693     1
 O  C  Rav=1.3863 sigma=0.0582  Rmin=1.2579  Rmax=1.4235     6
 
 selected bond angles (degree)
 --------------------
H18-C1-O2=111.41               H19-C1-O2=110.69               H19-C1-H18=109.06              H20-C1-O2=107.33               
H20-C1-H18=109.16              H20-C1-H19=109.15              C3-O2-C1=115.29                O4-C3-O2=113.94                
C6-C3-O2=122.38                C6-C3-O4=123.50                C5-O4-C3=114.58                H21-C5-O4=110.89               
H22-C5-O4=107.36               H22-C5-H21=109.10              H23-C5-O4=111.17               H23-C5-H21=108.96              
H23-C5-H22=109.33              N7-C6-C3=115.12                C16-C6-C3=126.75               C16-C6-N7=118.14               
C8-N7-C6=119.07                C9-C8-N7=119.74                N13-C8-N7=123.95               N13-C8-C9=116.23               
C10-C9-C8=108.18               C11-C9-C8=110.30               C11-C9-C10=110.37              N12-C9-C8=108.54               
N12-C9-C10=108.24              N12-C9-C11=111.13              H24-C10-C9=110.19              H25-C10-C9=109.97              
H25-C10-H24=108.73             H26-C10-C9=110.16              H26-C10-H24=108.77             H26-C10-H25=108.98             
 
 selected dihedral angles (degree)
 ---------------------------------
C3-O2-C1-H18= 57.50           C3-O2-C1-H19=295.98           C3-O2-C1-H20=176.96           O4-C3-O2-C1=265.18            
C6-C3-O2-C1= 80.45            C5-O4-C3-O2=296.58            C5-O4-C3-C6=121.37            H21-C5-O4-C3= 57.04           
H22-C5-O4-C3=176.13           H23-C5-O4-C3=295.66           N7-C6-C3-O2=358.79            N7-C6-C3-O4=173.59            
C16-C6-C3-O2=179.29           C16-C6-C3-O4=354.09           C8-N7-C6-C3=181.48            C8-N7-C6-C16=  1.03           
C9-C8-N7-C6=181.91            N13-C8-N7-C6=358.48           C10-C9-C8-N7= 92.80           C10-C9-C8-N13=275.98          
C11-C9-C8-N7=332.01           C11-C9-C8-N13=155.18          N12-C9-C8-N7=210.04           N12-C9-C8-N13= 33.21          
H24-C10-C9-C8=180.95          H24-C10-C9-C11=301.71         H24-C10-C9-N12= 63.53         H25-C10-C9-C8= 61.11          
H25-C10-C9-C11=181.86         H25-C10-C9-N12=303.68         H26-C10-C9-C8=300.97          H26-C10-C9-C11= 61.72         
H26-C10-C9-N12=183.55         
           -------------------------------------------------
          |                Final Singlepoint                |
           -------------------------------------------------

          ...................................................
          :                      SETUP                      :
          :.................................................:
          :  # basis functions                 100          :
          :  # atomic orbitals                 100          :
          :  # shells                           66          :
          :  # electrons                        96          :
          :  # halogen bonds                     0          :
          :  max. iterations                   250          :
          :  Hamiltonian                  GFN1-xTB          :
          :  restarted?                      false          :
          :  GBSA solvation                   true          :
          :  PC potential                    false          :
          :  electronic temp.          300.0000000     K    :
          :  accuracy                    1.0000000          :
          :  -> integral cutoff          0.2500000E+02      :
          :  -> integral neglect         0.1000000E-07      :
          :  -> SCF convergence          0.1000000E-05 Eh   :
          :  -> wf. convergence          0.2000000E-04 e    :
          :  Broyden damping             0.4000000          :
          ...................................................

 iter      E             dE          RMSdq      gap      omega  full diag
   1    -59.0640053 -0.590640E+02  0.720E-06    2.21       0.0  T
   2    -59.0640053 -0.568434E-12  0.341E-06    2.21    5103.4  T
   3    -59.0640053 -0.241585E-12  0.202E-06    2.21    8619.0  T

   *** convergence criteria satisfied after 3 iterations ***

         #    Occupation            Energy/Eh            Energy/eV
      -------------------------------------------------------------
         1        2.0000           -0.7630383             -20.7633
       ...           ...                  ...                  ...
        42        2.0000           -0.4307977             -11.7226
        43        2.0000           -0.4160243             -11.3206
        44        2.0000           -0.3996706             -10.8756
        45        2.0000           -0.3825535             -10.4098
        46        2.0000           -0.3801158             -10.3435
        47        2.0000           -0.3635300              -9.8922
        48        2.0000           -0.2979357              -8.1072 (HOMO)
        49                         -0.2169033              -5.9022 (LUMO)
        50                         -0.1855077              -5.0479
        51                         -0.1160249              -3.1572
        52                         -0.1134012              -3.0858
        53                         -0.1114127              -3.0317
       ...                                ...                  ...
       100                          0.7231038              19.6767
      -------------------------------------------------------------
                  HL-Gap            0.0810324 Eh            2.2050 eV
             Fermi-level           -0.2574195 Eh           -7.0047 eV

 SCC (total)                   0 d,  0 h,  0 min,  0.047 sec
 SCC setup                      ...        0 min,  0.001 sec (  1.926%)
 Dispersion                     ...        0 min,  0.000 sec (  0.284%)
 classical contributions        ...        0 min,  0.000 sec (  0.115%)
 integral evaluation            ...        0 min,  0.013 sec ( 27.212%)
 iterations                     ...        0 min,  0.004 sec (  9.151%)
 molecular gradient             ...        0 min,  0.029 sec ( 60.696%)
 printout                       ...        0 min,  0.000 sec (  0.560%)

         :::::::::::::::::::::::::::::::::::::::::::::::::::::
         ::                     SUMMARY                     ::
         :::::::::::::::::::::::::::::::::::::::::::::::::::::
         :: total energy             -58.524448558958 Eh    ::
         :: total w/o Gsasa/hb       -58.506012307389 Eh    ::
         :: gradient norm              0.000453523978 Eh/a0 ::
         :: HOMO-LUMO gap              2.205003279159 eV    ::
         ::.................................................::
         :: SCC energy               -59.064005290390 Eh    ::
         :: -> electrostatic           0.356558930817 Eh    ::
         :: -> Gsolv                  -0.114022356970 Eh    ::
         ::    -> Gelec               -0.095586105402 Eh    ::
         ::    -> Gsasa               -0.018669496120 Eh    ::
         ::    -> Ghb                 -0.007391034453 Eh    ::
         ::    -> Gshift               0.007624279005 Eh    ::
         :: repulsion energy           0.558266440612 Eh    ::
         :: dispersion energy         -0.018709709180 Eh    ::
         :: halogen bond corr.         0.000000000000 Eh    ::
         :: add. restraining           0.000000000000 Eh    ::
         :: total charge              -1.000000000000 e     ::
         :::::::::::::::::::::::::::::::::::::::::::::::::::::

           -------------------------------------------------
          |                Property Printout                |
           -------------------------------------------------

    * Orbital Energies and Occupations

         #    Occupation            Energy/Eh            Energy/eV
      -------------------------------------------------------------
         1        2.0000           -0.7630383             -20.7633
       ...           ...                  ...                  ...
        36        2.0000           -0.4748056             -12.9201
        37        2.0000           -0.4730353             -12.8719
        38        2.0000           -0.4672861             -12.7155
        39        2.0000           -0.4582776             -12.4704
        40        2.0000           -0.4540483             -12.3553
        41        2.0000           -0.4350178             -11.8374
        42        2.0000           -0.4307977             -11.7226
        43        2.0000           -0.4160243             -11.3206
        44        2.0000           -0.3996706             -10.8756
        45        2.0000           -0.3825535             -10.4098
        46        2.0000           -0.3801158             -10.3435
        47        2.0000           -0.3635300              -9.8922
        48        2.0000           -0.2979357              -8.1072 (HOMO)
        49                         -0.2169033              -5.9022 (LUMO)
        50                         -0.1855077              -5.0479
        51                         -0.1160249              -3.1572
        52                         -0.1134012              -3.0858
        53                         -0.1114127              -3.0317
        54                         -0.1034858              -2.8160
        55                         -0.0864153              -2.3515
        56                         -0.0834249              -2.2701
        57                         -0.0671612              -1.8275
        58                         -0.0563313              -1.5329
        59                         -0.0554044              -1.5076
       ...                                ...                  ...
       100                          0.7231038              19.6767
      -------------------------------------------------------------
                  HL-Gap            0.0810324 Eh            2.2050 eV
             Fermi-level           -0.2574195 Eh           -7.0047 eV

  Mulliken/CM5 charges         n(s)   n(p)   n(d)
     1C     0.17284  0.05390   0.972  2.855  0.000
     2O    -0.48917 -0.57101   1.694  4.796  0.000
     3C     0.30261  0.34949   0.930  2.767  0.000
     4O    -0.48669 -0.58019   1.699  4.788  0.000
     5C     0.17230  0.05238   0.972  2.856  0.000
     6C     0.04931  0.11745   1.050  2.900  0.000
     7N    -0.44819 -0.63199   1.540  3.908  0.000
     8C     0.27343  0.42778   1.011  2.715  0.000
     9C     0.14131  0.17582   1.064  2.794  0.000
    10C    -0.09742 -0.23771   1.016  3.081  0.000
    11C    -0.10179 -0.24222   1.016  3.085  0.000
    12N    -0.52272 -0.97905   1.474  4.049  0.000
    13N    -0.35142 -0.68980   1.435  3.916  0.000
    14C     0.37730  0.46878   0.978  2.644  0.000
    15O    -0.72475 -0.75999   1.748  4.977  0.000
    16C     0.06216  0.09178   1.002  2.936  0.000
    17O    -0.59393 -0.78391   1.706  4.888  0.000
    18H     0.00969  0.06909   0.990  0.000  0.000
    19H     0.00765  0.07000   0.992  0.000  0.000
    20H     0.01765  0.07736   0.982  0.000  0.000
    21H     0.01690  0.07846   0.983  0.000  0.000
    22H     0.02230  0.08212   0.978  0.000  0.000
    23H     0.00962  0.06864   0.990  0.000  0.000
    24H     0.03305  0.08809   0.967  0.000  0.000
    25H     0.03155  0.08879   0.968  0.000  0.000
    26H     0.03003  0.08482   0.970  0.000  0.000
    27H     0.03123  0.08896   0.969  0.000  0.000
    28H     0.02839  0.08333   0.972  0.000  0.000
    29H     0.02972  0.08630   0.970  0.000  0.000
    30H     0.21229  0.40331   0.788  0.000  0.000
    31H     0.21321  0.40426   0.787  0.000  0.000
    32H     0.22769  0.43472   0.772  0.000  0.000
    33H     0.34384  0.53023   0.656  0.000  0.000

Wiberg/Mayer (AO) data.
largest (>0.10) Wiberg bond orders for each atom

 ---------------------------------------------------------------------------
     #   Z sym  total        # sym  WBO       # sym  WBO       # sym  WBO
 ---------------------------------------------------------------------------
     1   6 C    3.919 --    20 H    0.986    18 H    0.983    19 H    0.981
                             2 O    0.936
     2   8 O    2.009 --     3 C    0.938     1 C    0.936
     3   6 C    3.743 --     6 C    1.533     2 O    0.938     4 O    0.927
     4   8 O    2.039 --     5 C    0.935     3 C    0.927
     5   6 C    3.916 --    22 H    0.986    23 H    0.983    21 H    0.983
                             4 O    0.935
     6   6 C    3.956 --     3 C    1.533    16 C    1.168     7 N    1.071
     7   7 N    2.997 --     8 C    1.614     6 C    1.071    13 N    0.131
     8   6 C    3.945 --     7 N    1.614    13 N    1.202     9 C    0.971
     9   6 C    3.966 --    11 C    0.991    10 C    0.986    12 N    0.980
                             8 C    0.971
    10   6 C    3.995 --    26 H    0.987    25 H    0.986     9 C    0.986
                            24 H    0.985
    11   6 C    3.996 --     9 C    0.991    28 H    0.987    29 H    0.985
                            27 H    0.983
    12   7 N    2.972 --     9 C    0.980    31 H    0.947    30 H    0.946
    13   7 N    3.368 --     8 C    1.202    14 C    0.959    32 H    0.902
                             7 N    0.131
    14   6 C    3.910 --    15 O    1.399    16 C    1.392    13 N    0.959
    15   8 O    1.706 --    14 C    1.399    16 C    0.140
    16   6 C    3.840 --    14 C    1.392     6 C    1.168    17 O    0.955
                            15 O    0.140
    17   8 O    1.922 --    16 C    0.955    33 H    0.854
    18   1 H    1.016 --     1 C    0.983
    19   1 H    1.031 --     1 C    0.981
    20   1 H    1.020 --     1 C    0.986
    21   1 H    1.021 --     5 C    0.983
    22   1 H    1.019 --     5 C    0.986
    23   1 H    1.018 --     5 C    0.983
    24   1 H    1.003 --    10 C    0.985
    25   1 H    1.008 --    10 C    0.986
    26   1 H    1.007 --    10 C    0.987
    27   1 H    1.019 --    11 C    0.983
    28   1 H    1.005 --    11 C    0.987
    29   1 H    1.009 --    11 C    0.985
    30   1 H    0.963 --    12 N    0.946
    31   1 H    0.961 --    12 N    0.947
    32   1 H    0.974 --    13 N    0.902
    33   1 H    0.904 --    17 O    0.854
 ---------------------------------------------------------------------------

Topologies differ in total number of bonds
Writing topology from bond orders to xtbtopo.mol

 dipole moment from electron density (au)
     X       Y       Z   
   1.6336   5.7376  -0.6968  total (Debye):   15.266

           -------------------------------------------------
          |                Geometry Summary                 |
           -------------------------------------------------

      molecular mass/u    :      242.2521403
   center of mass at/Å    :       -0.2060483      -0.5474545       0.0274348
  moments of inertia/u·Å² :        0.7830713E+03   0.1440694E+04   0.2037057E+04
rotational constants/cm⁻¹ :        0.2152758E-01   0.1170105E-01   0.8275484E-02

 * 25 selected distances

     #   Z          #   Z                                           value/Å
     1   6 C        2   8 O                                       1.4234887
     4   8 O        5   6 C                                       1.4229654
     3   6 C        6   6 C                                       1.3663688
     7   7 N        8   6 C                                       1.2854777
     9   6 C       10   6 C                                       1.5352267 (max)
     9   6 C       11   6 C                                       1.5338137
     9   6 C       12   7 N                                       1.4640115
     8   6 C       13   7 N                                       1.3516749
    14   6 C       16   6 C                                       1.3865777
     1   6 C       18   1 H                                       1.0971624
     1   6 C       19   1 H                                       1.0977650
     1   6 C       20   1 H                                       1.0917528
     5   6 C       21   1 H                                       1.0963137
     5   6 C       22   1 H                                       1.0909665
     5   6 C       23   1 H                                       1.0977673
    10   6 C       24   1 H                                       1.0892587
    10   6 C       25   1 H                                       1.0902566
    10   6 C       26   1 H                                       1.0901808
    11   6 C       27   1 H                                       1.0904679
    11   6 C       28   1 H                                       1.0886303
    11   6 C       29   1 H                                       1.0897015
    12   7 N       30   1 H                                       1.0118084
    12   7 N       31   1 H                                       1.0095103
    13   7 N       32   1 H                                       1.0083743
    17   8 O       33   1 H                                       0.9693051 (min)

 * 6 distinct bonds (by element types)

   Z      Z             #   av. dist./Å        max./Å        min./Å
   1 H    6 C          12     1.0925186     1.0977673     1.0886303
   6 C    6 C           4     1.4554967     1.5352267     1.3663688
   1 H    7 N           3     1.0098977     1.0118084     1.0083743
   6 C    7 N           3     1.3670547     1.4640115     1.2854777
   1 H    8 O           1     0.9693051     0.9693051     0.9693051
   6 C    8 O           2     1.4232270     1.4234887     1.4229654


optimized geometry written to: xtbopt.xyz


           -------------------------------------------------
          | TOTAL ENERGY              -58.524448558958 Eh   |
          | GRADIENT NORM               0.000453523978 Eh/α |
          | HOMO-LUMO GAP               2.205003279159 eV   |
           -------------------------------------------------

------------------------------------------------------------------------
 * finished run on 2023/06/20 at 14:57:29.048     
------------------------------------------------------------------------
 total:
 * wall-time:     0 d,  0 h,  0 min,  4.165 sec
 *  cpu-time:     0 d,  0 h,  0 min,  4.070 sec
 * ratio c/w:     0.977 speedup
 SCF:
 * wall-time:     0 d,  0 h,  0 min,  0.061 sec
 *  cpu-time:     0 d,  0 h,  0 min,  0.061 sec
 * ratio c/w:     1.000 speedup
 ANC optimizer:
 * wall-time:     0 d,  0 h,  0 min,  4.000 sec
 *  cpu-time:     0 d,  0 h,  0 min,  3.976 sec
 * ratio c/w:     0.994 speedup

