      -----------------------------------------------------------      
     |                   =====================                   |     
     |                           x T B                           |     
     |                   =====================                   |     
     |                         S. Grimme                         |     
     |          Mulliken Center for Theoretical Chemistry        |     
     |                    University of Bonn                     |     
      -----------------------------------------------------------      

   * xtb version 6.5.1 (579679a) compiled by 'ehlert@majestix' on 2022-07-11

   xtb is free software: you can redistribute it and/or modify it under
   the terms of the GNU Lesser General Public License as published by
   the Free Software Foundation, either version 3 of the License, or
   (at your option) any later version.
   
   xtb is distributed in the hope that it will be useful,
   but WITHOUT ANY WARRANTY; without even the implied warranty of
   MERCHANTABILITY or FITNESS FOR A PARTICULAR PURPOSE.  See the
   GNU Lesser General Public License for more details.
   
   Cite this work as:
   * C. Bannwarth, E. Caldeweyher, S. Ehlert, A. Hansen, P. Pracht,
     J. Seibert, S. Spicher, S. Grimme, WIREs Comput. Mol. Sci., 2020, 11,
     e01493. DOI: 10.1002/wcms.1493
   
   for GFN2-xTB:
   * C. Bannwarth, S. Ehlert and S. Grimme., J. Chem. Theory Comput., 2019,
     15, 1652-1671. DOI: 10.1021/acs.jctc.8b01176
   for GFN1-xTB:
   * S. Grimme, C. Bannwarth, P. Shushkov, J. Chem. Theory Comput., 2017,
     13, 1989-2009. DOI: 10.1021/acs.jctc.7b00118
   for GFN0-xTB:
   * P. Pracht, E. Caldeweyher, S. Ehlert, S. Grimme, ChemRxiv, 2019, preprint.
     DOI: 10.26434/chemrxiv.8326202.v1
   for GFN-FF:
   * S. Spicher and S. Grimme, Angew. Chem. Int. Ed., 2020, 59, 15665-15673.
     DOI: 10.1002/anie.202004239
   
   for ALPB and GBSA implicit solvation:
   * S. Ehlert, M. Stahn, S. Spicher, S. Grimme, J. Chem. Theory Comput.,
     2021, 17, 4250-4261. DOI: 10.1021/acs.jctc.1c00471
   
   for DFT-D4:
   * E. Caldeweyher, C. Bannwarth and S. Grimme, J. Chem. Phys., 2017,
     147, 034112. DOI: 10.1063/1.4993215
   * E. Caldeweyher, S. Ehlert, A. Hansen, H. Neugebauer, S. Spicher,
     C. Bannwarth and S. Grimme, J. Chem. Phys., 2019, 150, 154122.
     DOI: 10.1063/1.5090222
   * E. Caldeweyher, J.-M. Mewes, S. Ehlert and S. Grimme, Phys. Chem. Chem. Phys.
     2020, 22, 8499-8512. DOI: 10.1039/D0CP00502A
   
   for sTDA-xTB:
   * S. Grimme and C. Bannwarth, J. Chem. Phys., 2016, 145, 054103.
     DOI: 10.1063/1.4959605
   
   in the mass-spec context:
   * V. Asgeirsson, C. Bauer and S. Grimme, Chem. Sci., 2017, 8, 4879.
     DOI: 10.1039/c7sc00601b
   * J. Koopman and S. Grimme, ACS Omega 2019, 4, 12, 15120-15133.
     DOI: 10.1021/acsomega.9b02011
   
   for metadynamics refer to:
   * S. Grimme, J. Chem. Theory Comput., 2019, 155, 2847-2862
     DOI: 10.1021/acs.jctc.9b00143
   
   for SPH calculations refer to:
   * S. Spicher and S. Grimme, J. Chem. Theory Comput., 2021, 17, 1701-1714
     DOI: 10.1021/acs.jctc.0c01306
   
   with help from (in alphabetical order)
   P. Atkinson, C. Bannwarth, F. Bohle, G. Brandenburg, E. Caldeweyher
   M. Checinski, S. Dohm, S. Ehlert, S. Ehrlich, I. Gerasimov, C. Hölzer
   A. Katbashev, J. Koopman, C. Lavigne, S. Lehtola, F. März, M. Müller,
   F. Musil, H. Neugebauer, J. Pisarek, C. Plett, P. Pracht, F. Pultar,
   J. Seibert, P. Shushkov, S. Spicher, M. Stahn, M. Steiner, T. Strunk,
   J. Stückrath, T. Rose, and J. Unsleber
   
 * started run on 2023/06/21 at 17:29:33.840     

           -------------------------------------------------
          |                Calculation Setup                |
           -------------------------------------------------

          program call               : /lustre/hpc/kemi/ree/PhD/git/ReactivityQM/dep/xtb-6.5.1/bin/xtb --gfn 1 /lustre/hpc/kemi/ree/PhD/git/ReactivityQM/calculations/R02methylcation/reac01prodN01/conf15/R02methylcation_reac01prodN01_conf15_gfn1.xyz --opt --vfukui --chrg 0 --uhf 0 --alpb DMSO
          hostname                   : node317
          coordinate file            : /lustre/hpc/kemi/ree/PhD/git/ReactivityQM/calculations/R02methylcation/reac01prodN01/conf15/R02methylcation_reac01prodN01_conf15_gfn1.xyz
          omp threads                :                     1

   ID    Z sym.   atoms
    1    6 C      1, 3, 5, 7-10, 12, 14, 17, 18, 20, 22, 24
    2    8 O      2, 4, 13, 19, 23, 25
    3    7 N      6, 11, 15, 16, 21
    4    1 H      26-42

           -------------------------------------------------
          |                 G F N 1 - x T B                 |
           -------------------------------------------------

        Reference                      10.1021/acs.jctc.7b00118
      * Hamiltonian:
        H0-scaling (s, p, d)           1.850000    2.250000    2.000000
        zeta-weighting                 0.000000
      * Dispersion:
        s8                             2.400000
        a1                             0.630000
        a2                             5.000000
        s9                             0.000000
      * Repulsion:
        kExp                           1.500000
        rExp                           1.000000
      * Coulomb:
        alpha                          2.000000
        third order                    atomic
        anisotropic                    false
      * Halogen bond correction:
        rad-scale                      1.300000
        damping                        0.440000

      * Solvation model:               ALPB
        Solvent                        DMSO
        Parameter file                 internal GFN1-xTB/ALPB
        Dielectric constant                4.6680E+01
        Reference state                gsolv [1 M gas/solution]
        Free energy shift                  7.6243E-03 Eh       4.7843E+00 kcal/mol
        Temperature                        2.9815E+02 K
        Density                            1.1000E+00 kg/L
        Solvent mass                       7.8130E+01 g/mol
        Interaction kernel             P16
        Born radius scaling (c1)           1.7672E+00
        Born radii integrator          GBOBC
        Born offset                        0.0000E+00 a0       0.0000E+00 AA
        H-bond correction              true
        Ion screening                  false
        Surface tension                    1.0000E-05 Eh       1.5569E+01 dyn/cm
        Grid points                               230 per atom

          ...................................................
          :                      SETUP                      :
          :.................................................:
          :  # basis functions                 134          :
          :  # atomic orbitals                 134          :
          :  # shells                           84          :
          :  # electrons                       134          :
          :  # halogen bonds                     0          :
          :  max. iterations                   250          :
          :  Hamiltonian                  GFN1-xTB          :
          :  restarted?                      false          :
          :  GBSA solvation                   true          :
          :  PC potential                    false          :
          :  electronic temp.          300.0000000     K    :
          :  accuracy                    1.0000000          :
          :  -> integral cutoff          0.2500000E+02      :
          :  -> integral neglect         0.1000000E-07      :
          :  -> SCF convergence          0.1000000E-05 Eh   :
          :  -> wf. convergence          0.2000000E-04 e    :
          :  Broyden damping             0.4000000          :
          ...................................................

 iter      E             dE          RMSdq      gap      omega  full diag
   1    -83.2430513 -0.832431E+02  0.852E+00    2.62       0.0  T
   2    -83.6127796 -0.369728E+00  0.510E+00    0.64       1.0  T
   3    -83.2638141  0.348966E+00  0.242E+00    0.44       1.0  T
   4    -83.5511417 -0.287328E+00  0.134E+00    2.37       1.0  T
   5    -83.6244294 -0.732876E-01  0.594E-01    1.73       1.0  T
   6    -83.6333825 -0.895308E-02  0.414E-01    0.96       1.0  T
   7    -83.6393890 -0.600650E-02  0.242E-01    0.28       1.0  T
   8    -83.3030764  0.336313E+00  0.164E+00    0.34       1.0  T
   9    -83.6383899 -0.335314E+00  0.266E-01    0.33       1.0  T
  10    -83.6379120  0.477932E-03  0.275E-01    0.39       1.0  T
  11    -83.6384657 -0.553763E-03  0.256E-01    0.33       1.0  T
  12    -83.6402814 -0.181568E-02  0.210E-01    0.22       1.0  T
  13    -83.6427745 -0.249309E-02  0.149E-01    0.16       1.0  T
  14    -83.6447198 -0.194525E-02  0.806E-02    0.13       1.0  T
  15    -83.6451314 -0.411690E-03  0.567E-02    0.12       1.0  T
  16    -83.6446665  0.464954E-03  0.817E-02    0.09       1.0  T
  17    -83.6446899 -0.234015E-04  0.814E-02    0.13       1.0  T
  18    -83.6452590 -0.569127E-03  0.465E-02    0.09       1.0  T
  19    -83.6454669 -0.207913E-03  0.242E-02    0.11       1.0  T
  20    -83.6455309 -0.639379E-04  0.957E-03    0.10       1.6  T
  21    -83.6455423 -0.114298E-04  0.199E-03    0.11       7.8  T
  22    -83.6455428 -0.478142E-06  0.521E-04    0.10      29.6  T
  23    -83.6455428 -0.339807E-07  0.104E-04    0.10     148.0  T
  24    -83.6455428 -0.141549E-08  0.424E-07    0.10   36355.8  T

   *** convergence criteria satisfied after 24 iterations ***

         #    Occupation            Energy/Eh            Energy/eV
      -------------------------------------------------------------
         1        2.0000           -0.9304643             -25.3192
       ...           ...                  ...                  ...
        61        2.0000           -0.4716747             -12.8349
        62        2.0000           -0.4620878             -12.5740
        63        2.0000           -0.4586702             -12.4811
        64        2.0000           -0.4520131             -12.2999
        65        2.0000           -0.4377921             -11.9129
        66        2.0000           -0.3935907             -10.7101
        67        1.7662           -0.3773887             -10.2693 (HOMO)
        68        0.2338           -0.3735461             -10.1647 (LUMO)
        69                         -0.3055218              -8.3137
        70                         -0.2873558              -7.8193
        71                         -0.2607218              -7.0946
        72                         -0.2354601              -6.4072
       ...                                ...                  ...
       134                          0.7965966              21.6765
      -------------------------------------------------------------
                  HL-Gap            0.0038426 Eh            0.1046 eV
             Fermi-level           -0.3754674 Eh          -10.2170 eV

 SCC (total)                   0 d,  0 h,  0 min,  0.257 sec
 SCC setup                      ...        0 min,  0.002 sec (  0.878%)
 Dispersion                     ...        0 min,  0.000 sec (  0.179%)
 classical contributions        ...        0 min,  0.000 sec (  0.053%)
 integral evaluation            ...        0 min,  0.063 sec ( 24.348%)
 iterations                     ...        0 min,  0.106 sec ( 41.269%)
 molecular gradient             ...        0 min,  0.084 sec ( 32.780%)
 printout                       ...        0 min,  0.001 sec (  0.462%)

         :::::::::::::::::::::::::::::::::::::::::::::::::::::
         ::                     SUMMARY                     ::
         :::::::::::::::::::::::::::::::::::::::::::::::::::::
         :: total energy             -82.879504246120 Eh    ::
         :: total w/o Gsasa/hb       -82.857689233153 Eh    ::
         :: gradient norm              0.144738378586 Eh/a0 ::
         :: HOMO-LUMO gap              0.104561949245 eV    ::
         ::.................................................::
         :: SCC energy               -83.645542810602 Eh    ::
         :: -> electrostatic           0.441742089276 Eh    ::
         :: -> Gsolv                  -0.107409184625 Eh    ::
         ::    -> Gelec               -0.085594171658 Eh    ::
         ::    -> Gsasa               -0.024735810807 Eh    ::
         ::    -> Ghb                 -0.004703481164 Eh    ::
         ::    -> Gshift               0.007624279005 Eh    ::
         :: repulsion energy           0.791665580761 Eh    ::
         :: dispersion energy         -0.025627016279 Eh    ::
         :: halogen bond corr.         0.000000000000 Eh    ::
         :: add. restraining           0.000000000000 Eh    ::
         :: total charge              -0.000000000001 e     ::
         :::::::::::::::::::::::::::::::::::::::::::::::::::::

      ----------------------------------------------------------- 
     |                   =====================                   |
     |                        A N C O P T                        |
     |                   =====================                   |
     |               Approximate Normal Coordinate               |
     |                Rational Function Optimizer                |
      ----------------------------------------------------------- 

          ...................................................
          :                      SETUP                      :
          :.................................................:
          :   optimization level            normal          :
          :   max. optcycles                   200          :
          :   ANC micro-cycles                  20          :
          :   degrees of freedom               120          :
          :.................................................:
          :   RF solver                   davidson          :
          :   write xtbopt.log                true          :
          :   linear?                        false          :
          :   energy convergence         0.5000000E-05 Eh   :
          :   grad. convergence          0.1000000E-02 Eh/α :
          :   maximium RF displ.         1.0000000          :
          :   Hlow (freq-cutoff)         0.1000000E-01      :
          :   Hmax (freq-cutoff)         5.0000000          :
          :   S6 in model hess.         20.0000000          :
          ...................................................

generating ANC from model Hessian ...
Using Lindh-Hessian (1995)
 Shifting diagonal of input Hessian by   9.842616877511191E-003
 Lowest  eigenvalues of input Hessian
    0.000000    0.000000    0.000000    0.000000    0.000000    0.000000
    0.010000    0.010211    0.010357    0.010761    0.011988    0.012454
    0.012872    0.013728    0.013976    0.014709    0.016363    0.016494
 Highest eigenvalues
    2.069404    2.089870    2.255860    2.333463    2.337097    2.458083
 

........................................................................
.............................. CYCLE    1 ..............................
........................................................................
   1    -83.6455428 -0.836455E+02  0.872E-06    0.10       0.0  T
   2    -83.6455428  0.722807E-09  0.751E-05    0.10     205.5  T
   3    -83.6455428 -0.732641E-09  0.144E-07    0.10  100000.0  T
     SCC iter.                  ...        0 min,  0.013 sec
     gradient                   ...        0 min,  0.083 sec
 * total energy  :   -82.8795042 Eh     change       -0.2700062E-12 Eh
   gradient norm :     0.1447383 Eh/α   predicted     0.0000000E+00 (-100.00%)
   displ. norm   :     0.3717350 α      lambda       -0.2363876E-01
   maximum displ.:     0.1452100 α      in ANC's #25, #23, #27, ...

........................................................................
.............................. CYCLE    2 ..............................
........................................................................
   1    -83.6569849 -0.836570E+02  0.217E-01    0.40       0.0  T
   2    -83.3228936  0.334091E+00  0.163E+00    0.16       1.0  T
   3    -83.6580149 -0.335121E+00  0.182E-01    0.31       1.0  T
   4    -83.6585746 -0.559627E-03  0.163E-01    0.26       1.0  T
   5    -83.6606974 -0.212287E-02  0.901E-02    0.17       1.0  T
   6    -83.6616855 -0.988088E-03  0.668E-03    0.12       2.3  T
   7    -83.6616501  0.354339E-04  0.182E-02    0.13       1.0  T
   8    -83.6616907 -0.405570E-04  0.970E-04    0.12      15.9  T
   9    -83.6616908 -0.124241E-06  0.160E-04    0.12      96.3  T
  10    -83.6616907  0.689053E-07  0.762E-04    0.12      20.3  T
  11    -83.6616908 -0.615740E-07  0.256E-04    0.12      60.2  T
  12    -83.6616908 -0.763468E-08  0.267E-05    0.12     579.0  T
     SCC iter.                  ...        0 min,  0.049 sec
     gradient                   ...        0 min,  0.083 sec
 * total energy  :   -82.8972052 Eh     change       -0.1770093E-01 Eh
   gradient norm :     0.0788740 Eh/α   predicted    -0.1348371E-01 ( -23.82%)
   displ. norm   :     0.4186400 α      lambda       -0.1349497E-01
   maximum displ.:     0.1724364 α      in ANC's #25, #27, #20, ...

........................................................................
.............................. CYCLE    3 ..............................
........................................................................
   1    -83.6783008 -0.836783E+02  0.175E-01    0.49       0.0  T
   2    -83.6686646  0.963623E-02  0.320E-01    0.07       1.0  T
   3    -83.6793808 -0.107162E-01  0.115E-01    0.35       1.0  T
   4    -83.6797053 -0.324518E-03  0.936E-02    0.28       1.0  T
   5    -83.6803060 -0.600699E-03  0.510E-02    0.14       1.0  T
   6    -83.6806229 -0.316914E-03  0.610E-03    0.16       2.5  T
   7    -83.6806260 -0.310454E-05  0.148E-03    0.16      10.5  T
   8    -83.6806261 -0.113975E-06  0.728E-04    0.16      21.2  T
   9    -83.6806262 -0.472215E-07  0.486E-04    0.16      31.8  T
  10    -83.6806262 -0.226670E-07  0.691E-05    0.16     223.4  T
  11    -83.6806262 -0.985239E-10  0.386E-05    0.16     399.4  T
     SCC iter.                  ...        0 min,  0.044 sec
     gradient                   ...        0 min,  0.083 sec
 * total energy  :   -82.9057002 Eh     change       -0.8495044E-02 Eh
   gradient norm :     0.0255609 Eh/α   predicted    -0.7930049E-02 (  -6.65%)
   displ. norm   :     0.3115739 α      lambda       -0.3085324E-02
   maximum displ.:     0.1497285 α      in ANC's #27, #19, #25, ...

........................................................................
.............................. CYCLE    4 ..............................
........................................................................
   1    -83.6845037 -0.836845E+02  0.822E-02    0.31       0.0  T
   2    -83.6827587  0.174502E-02  0.143E-01    0.12       1.0  T
   3    -83.6848923 -0.213361E-02  0.463E-02    0.25       1.0  T
   4    -83.6849893 -0.970162E-04  0.328E-02    0.23       1.0  T
   5    -83.6850456 -0.562508E-04  0.201E-02    0.17       1.0  T
   6    -83.6850937 -0.481522E-04  0.198E-03    0.19       7.8  T
   7    -83.6850941 -0.377190E-06  0.397E-04    0.19      38.9  T
   8    -83.6850941  0.151235E-07  0.454E-04    0.19      34.0  T
   9    -83.6850941 -0.249058E-07  0.456E-05    0.19     338.2  T
  10    -83.6850941 -0.528360E-10  0.129E-05    0.19    1194.8  T
     SCC iter.                  ...        0 min,  0.040 sec
     gradient                   ...        0 min,  0.083 sec
 * total energy  :   -82.9079604 Eh     change       -0.2260129E-02 Eh
   gradient norm :     0.0190075 Eh/α   predicted    -0.1692466E-02 ( -25.12%)
   displ. norm   :     0.3451850 α      lambda       -0.2075138E-02
   maximum displ.:     0.1554620 α      in ANC's #27, #19, #13, ...

........................................................................
.............................. CYCLE    5 ..............................
........................................................................
   1    -83.6867711 -0.836868E+02  0.499E-02    0.30       0.0  T
   2    -83.6868776 -0.106527E-03  0.387E-02    0.20       1.0  T
   3    -83.6869716 -0.939650E-04  0.132E-02    0.24       1.2  T
   4    -83.6869755 -0.388807E-05  0.638E-03    0.22       2.4  T
   5    -83.6869774 -0.193311E-05  0.224E-03    0.22       6.9  T
   6    -83.6869775 -0.556345E-07  0.540E-04    0.22      28.6  T
   7    -83.6869775 -0.994817E-08  0.189E-04    0.22      81.8  T
   8    -83.6869775 -0.128931E-08  0.696E-05    0.22     221.6  T
     SCC iter.                  ...        0 min,  0.032 sec
     gradient                   ...        0 min,  0.082 sec
 * total energy  :   -82.9093717 Eh     change       -0.1411371E-02 Eh
   gradient norm :     0.0150635 Eh/α   predicted    -0.1161201E-02 ( -17.73%)
   displ. norm   :     0.2542383 α      lambda       -0.9221580E-03
   maximum displ.:     0.0991763 α      in ANC's #19, #13, #27, ...

........................................................................
.............................. CYCLE    6 ..............................
........................................................................
   1    -83.6896251 -0.836896E+02  0.229E-02    0.28       0.0  T
   2    -83.6896573 -0.322709E-04  0.152E-02    0.24       1.0  T
   3    -83.6896678 -0.104454E-04  0.482E-03    0.25       3.2  T
   4    -83.6896678 -0.348068E-07  0.210E-03    0.25       7.4  T
   5    -83.6896679 -0.668056E-07  0.590E-04    0.25      26.2  T
   6    -83.6896679 -0.914315E-08  0.130E-04    0.25     118.6  T
   7    -83.6896679 -0.278433E-09  0.581E-05    0.25     265.7  T
     SCC iter.                  ...        0 min,  0.029 sec
     gradient                   ...        0 min,  0.082 sec
 * total energy  :   -82.9100395 Eh     change       -0.6678134E-03 Eh
   gradient norm :     0.0134417 Eh/α   predicted    -0.4908823E-03 ( -26.49%)
   displ. norm   :     0.2616477 α      lambda       -0.7142759E-03
   maximum displ.:     0.1001331 α      in ANC's #13, #5, #2, ...

........................................................................
.............................. CYCLE    7 ..............................
........................................................................
   1    -83.6922263 -0.836922E+02  0.138E-02    0.28       0.0  T
   2    -83.6922346 -0.823770E-05  0.737E-03    0.27       2.1  T
   3    -83.6922360 -0.140160E-05  0.388E-03    0.27       4.0  T
   4    -83.6922360 -0.487429E-07  0.128E-03    0.27      12.0  T
   5    -83.6922360 -0.212363E-08  0.175E-04    0.27      88.2  T
   6    -83.6922360 -0.995513E-09  0.692E-05    0.27     222.9  T
     SCC iter.                  ...        0 min,  0.025 sec
     gradient                   ...        0 min,  0.083 sec
 * total energy  :   -82.9105652 Eh     change       -0.5256953E-03 Eh
   gradient norm :     0.0109717 Eh/α   predicted    -0.3815886E-03 ( -27.41%)
   displ. norm   :     0.2949863 α      lambda       -0.5801056E-03
   maximum displ.:     0.1191327 α      in ANC's #5, #13, #2, ...

........................................................................
.............................. CYCLE    8 ..............................
........................................................................
   1    -83.6933233 -0.836933E+02  0.121E-02    0.29       0.0  T
   2    -83.6933272 -0.391167E-05  0.599E-03    0.28       2.6  T
   3    -83.6933273 -0.103143E-06  0.357E-03    0.28       4.3  T
   4    -83.6933274 -0.328914E-07  0.840E-04    0.28      18.4  T
   5    -83.6933274 -0.151378E-07  0.156E-04    0.28      99.2  T
   6    -83.6933274 -0.597637E-09  0.500E-05    0.28     308.4  T
     SCC iter.                  ...        0 min,  0.025 sec
     gradient                   ...        0 min,  0.083 sec
 * total energy  :   -82.9109956 Eh     change       -0.4303517E-03 Eh
   gradient norm :     0.0084465 Eh/α   predicted    -0.3152978E-03 ( -26.73%)
   displ. norm   :     0.3272337 α      lambda       -0.4534631E-03
   maximum displ.:     0.1397867 α      in ANC's #5, #2, #13, ...

........................................................................
.............................. CYCLE    9 ..............................
........................................................................
   1    -83.6932615 -0.836933E+02  0.110E-02    0.29       0.0  T
   2    -83.6932650 -0.349975E-05  0.553E-03    0.29       2.8  T
   3    -83.6932650 -0.738857E-07  0.314E-03    0.29       4.9  T
   4    -83.6932650 -0.588030E-08  0.634E-04    0.29      24.3  T
   5    -83.6932650 -0.141535E-07  0.150E-04    0.29     102.6  T
   6    -83.6932650 -0.519790E-09  0.450E-05    0.29     342.5  T
     SCC iter.                  ...        0 min,  0.025 sec
     gradient                   ...        0 min,  0.083 sec
 * total energy  :   -82.9113253 Eh     change       -0.3296972E-03 Eh
   gradient norm :     0.0082525 Eh/α   predicted    -0.2510157E-03 ( -23.86%)
   displ. norm   :     0.3137008 α      lambda       -0.3371317E-03
   maximum displ.:     0.1373278 α      in ANC's #5, #9, #2, ...

........................................................................
.............................. CYCLE   10 ..............................
........................................................................
   1    -83.6937451 -0.836937E+02  0.818E-03    0.30       0.0  T
   2    -83.6937474 -0.224024E-05  0.383E-03    0.29       4.0  T
   3    -83.6937474 -0.682033E-07  0.235E-03    0.29       6.6  T
   4    -83.6937475 -0.202468E-07  0.673E-04    0.29      22.9  T
   5    -83.6937475 -0.421525E-08  0.130E-04    0.29     118.6  T
   6    -83.6937475 -0.242480E-09  0.399E-05    0.29     386.8  T
     SCC iter.                  ...        0 min,  0.025 sec
     gradient                   ...        0 min,  0.083 sec
 * total energy  :   -82.9115754 Eh     change       -0.2501472E-03 Eh
   gradient norm :     0.0085220 Eh/α   predicted    -0.1851639E-03 ( -25.98%)
   displ. norm   :     0.3497426 α      lambda       -0.3057638E-03
   maximum displ.:     0.1482992 α      in ANC's #5, #9, #2, ...

........................................................................
.............................. CYCLE   11 ..............................
........................................................................
   1    -83.6924715 -0.836925E+02  0.598E-03    0.30       0.0  T
   2    -83.6924726 -0.110911E-05  0.305E-03    0.30       5.1  T
   3    -83.6924727 -0.560753E-07  0.151E-03    0.30      10.2  T
   4    -83.6924727 -0.108446E-07  0.577E-04    0.30      26.7  T
   5    -83.6924727 -0.270458E-08  0.114E-04    0.30     135.5  T
   6    -83.6924727 -0.116856E-09  0.416E-05    0.30     370.7  T
     SCC iter.                  ...        0 min,  0.025 sec
     gradient                   ...        0 min,  0.083 sec
 * total energy  :   -82.9117988 Eh     change       -0.2233389E-03 Eh
   gradient norm :     0.0085268 Eh/α   predicted    -0.1715902E-03 ( -23.17%)
   displ. norm   :     0.3419152 α      lambda       -0.3738651E-03
   maximum displ.:     0.1580592 α      in ANC's #3, #5, #2, ...

........................................................................
.............................. CYCLE   12 ..............................
........................................................................
   1    -83.6976219 -0.836976E+02  0.143E-02    0.32       0.0  T
   2    -83.6976286 -0.673126E-05  0.660E-03    0.31       2.3  T
   3    -83.6976296 -0.100376E-05  0.316E-03    0.31       4.9  T
   4    -83.6976297 -0.252021E-07  0.784E-04    0.31      19.7  T
   5    -83.6976297 -0.210946E-08  0.177E-04    0.31      87.0  T
   6    -83.6976297 -0.522419E-09  0.495E-05    0.31     311.6  T
     SCC iter.                  ...        0 min,  0.025 sec
     gradient                   ...        0 min,  0.083 sec
 * total energy  :   -82.9119739 Eh     change       -0.1751383E-03 Eh
   gradient norm :     0.0116868 Eh/α   predicted    -0.2087918E-03 (  19.22%)
   displ. norm   :     0.3493341 α      lambda       -0.3279099E-03
   maximum displ.:     0.1285079 α      in ANC's #5, #2, #3, ...

........................................................................
.............................. CYCLE   13 ..............................
........................................................................
   1    -83.6923453 -0.836923E+02  0.138E-02    0.30       0.0  T
   2    -83.6923467 -0.141634E-05  0.741E-03    0.30       2.1  T
   3    -83.6923467  0.513120E-08  0.343E-03    0.30       4.5  T
   4    -83.6923468 -0.106199E-06  0.441E-04    0.30      35.0  T
   5    -83.6923468 -0.383622E-08  0.120E-04    0.30     128.8  T
   6    -83.6923468 -0.223366E-09  0.416E-05    0.30     370.9  T
     SCC iter.                  ...        0 min,  0.024 sec
     gradient                   ...        0 min,  0.083 sec
 * total energy  :   -82.9121435 Eh     change       -0.1695889E-03 Eh
   gradient norm :     0.0083807 Eh/α   predicted    -0.1839768E-03 (   8.48%)
   displ. norm   :     0.0816906 α      lambda       -0.1916142E-03
   maximum displ.:     0.0289138 α      in ANC's #4, #1, #2, ...

........................................................................
.............................. CYCLE   14 ..............................
........................................................................
   1    -83.6940931 -0.836941E+02  0.736E-03    0.30       0.0  T
   2    -83.6940939 -0.863751E-06  0.391E-03    0.30       3.9  T
   3    -83.6940939 -0.236607E-07  0.200E-03    0.30       7.7  T
   4    -83.6940940 -0.152672E-07  0.350E-04    0.30      44.1  T
   5    -83.6940940 -0.280937E-08  0.947E-05    0.30     163.0  T
   6    -83.6940940 -0.179909E-09  0.253E-05    0.30     609.5  T
     SCC iter.                  ...        0 min,  0.024 sec
     gradient                   ...        0 min,  0.083 sec
 * total energy  :   -82.9122704 Eh     change       -0.1268946E-03 Eh
   gradient norm :     0.0057246 Eh/α   predicted    -0.9645590E-04 ( -23.99%)
   displ. norm   :     0.2565587 α      lambda       -0.2585291E-03
   maximum displ.:     0.1084233 α      in ANC's #3, #2, #1, ...

........................................................................
.............................. CYCLE   15 ..............................
........................................................................
   1    -83.6968527 -0.836969E+02  0.113E-02    0.31       0.0  T
   2    -83.6968560 -0.327851E-05  0.438E-03    0.31       3.5  T
   3    -83.6968564 -0.396951E-06  0.243E-03    0.31       6.3  T
   4    -83.6968564 -0.202669E-07  0.643E-04    0.31      24.0  T
   5    -83.6968564 -0.315771E-08  0.132E-04    0.31     116.6  T
   6    -83.6968564 -0.210392E-09  0.439E-05    0.31     351.3  T
     SCC iter.                  ...        0 min,  0.024 sec
     gradient                   ...        0 min,  0.083 sec
 * total energy  :   -82.9124081 Eh     change       -0.1376951E-03 Eh
   gradient norm :     0.0076765 Eh/α   predicted    -0.1377747E-03 (   0.06%)
   displ. norm   :     0.1991693 α      lambda       -0.1276409E-03
   maximum displ.:     0.0923814 α      in ANC's #2, #4, #3, ...

........................................................................
.............................. CYCLE   16 ..............................
........................................................................
   1    -83.6964376 -0.836964E+02  0.509E-03    0.30       0.0  T
   2    -83.6964384 -0.748973E-06  0.252E-03    0.31       6.1  T
   3    -83.6964385 -0.910931E-07  0.125E-03    0.31      12.4  T
   4    -83.6964385 -0.274247E-08  0.370E-04    0.31      41.7  T
   5    -83.6964385 -0.109397E-08  0.759E-05    0.31     203.2  T
   6    -83.6964385 -0.544844E-10  0.229E-05    0.31     674.9  T
     SCC iter.                  ...        0 min,  0.024 sec
     gradient                   ...        0 min,  0.083 sec
 * total energy  :   -82.9125015 Eh     change       -0.9339365E-04 Eh
   gradient norm :     0.0057512 Eh/α   predicted    -0.6635291E-04 ( -28.95%)
   displ. norm   :     0.2704299 α      lambda       -0.1506135E-03
   maximum displ.:     0.1303864 α      in ANC's #2, #1, #4, ...

........................................................................
.............................. CYCLE   17 ..............................
........................................................................
   1    -83.6958432 -0.836958E+02  0.561E-03    0.31       0.0  T
   2    -83.6958443 -0.104750E-05  0.278E-03    0.31       5.6  T
   3    -83.6958444 -0.121070E-06  0.121E-03    0.31      12.8  T
   4    -83.6958444 -0.302133E-08  0.472E-04    0.31      32.7  T
   5    -83.6958444 -0.199638E-08  0.101E-04    0.31     153.2  T
   6    -83.6958444 -0.533191E-10  0.286E-05    0.31     538.6  T
     SCC iter.                  ...        0 min,  0.024 sec
     gradient                   ...        0 min,  0.083 sec
 * total energy  :   -82.9126164 Eh     change       -0.1149499E-03 Eh
   gradient norm :     0.0042530 Eh/α   predicted    -0.8081826E-04 ( -29.69%)
   displ. norm   :     0.3536584 α      lambda       -0.1672013E-03
   maximum displ.:     0.1706897 α      in ANC's #2, #1, #3, ...

........................................................................
.............................. CYCLE   18 ..............................
........................................................................
   1    -83.6949149 -0.836949E+02  0.638E-03    0.31       0.0  T
   2    -83.6949157 -0.765278E-06  0.350E-03    0.31       4.4  T
   3    -83.6949157 -0.851713E-07  0.176E-03    0.31       8.8  T
   4    -83.6949158 -0.768827E-08  0.514E-04    0.31      30.0  T
   5    -83.6949158 -0.273047E-08  0.105E-04    0.31     147.6  T
   6    -83.6949158 -0.777760E-10  0.314E-05    0.31     491.9  T
     SCC iter.                  ...        0 min,  0.024 sec
     gradient                   ...        0 min,  0.083 sec
 * total energy  :   -82.9127312 Eh     change       -0.1147292E-03 Eh
   gradient norm :     0.0050898 Eh/α   predicted    -0.9405946E-04 ( -18.02%)
   displ. norm   :     0.3248609 α      lambda       -0.1357145E-03
   maximum displ.:     0.1636130 α      in ANC's #2, #1, #4, ...

........................................................................
.............................. CYCLE   19 ..............................
........................................................................
   1    -83.6948697 -0.836949E+02  0.721E-03    0.31       0.0  T
   2    -83.6948708 -0.112789E-05  0.367E-03    0.31       4.2  T
   3    -83.6948710 -0.153475E-06  0.184E-03    0.31       8.4  T
   4    -83.6948710 -0.858495E-08  0.444E-04    0.31      34.7  T
   5    -83.6948710 -0.167869E-08  0.107E-04    0.31     144.7  T
   6    -83.6948710 -0.778613E-10  0.313E-05    0.31     493.6  T
     SCC iter.                  ...        0 min,  0.024 sec
     gradient                   ...        0 min,  0.081 sec
 * total energy  :   -82.9128129 Eh     change       -0.8169697E-04 Eh
   gradient norm :     0.0065820 Eh/α   predicted    -0.7502014E-04 (  -8.17%)
   displ. norm   :     0.2392467 α      lambda       -0.1232094E-03
   maximum displ.:     0.1151375 α      in ANC's #1, #2, #3, ...

........................................................................
.............................. CYCLE   20 ..............................
........................................................................
   1    -83.6957420 -0.836957E+02  0.490E-03    0.32       0.0  T
   2    -83.6957425 -0.572513E-06  0.216E-03    0.31       7.2  T
   3    -83.6957426 -0.276474E-07  0.115E-03    0.31      13.4  T
   4    -83.6957426 -0.339431E-08  0.323E-04    0.31      47.8  T
   5    -83.6957426 -0.188182E-08  0.925E-05    0.31     166.8  T
   6    -83.6957426 -0.855493E-10  0.245E-05    0.31     630.4  T
     SCC iter.                  ...        0 min,  0.025 sec
     gradient                   ...        0 min,  0.074 sec
 * total energy  :   -82.9128929 Eh     change       -0.7999775E-04 Eh
   gradient norm :     0.0065607 Eh/α   predicted    -0.6513189E-04 ( -18.58%)
   displ. norm   :     0.2774039 α      lambda       -0.1221791E-03
   maximum displ.:     0.1340281 α      in ANC's #1, #2, #3, ...
 * RMSD in coord.:     0.6740506 α      energy gain  -0.3338860E-01 Eh

generating ANC from model Hessian ...
Using Lindh-Hessian (1995)
 Shifting diagonal of input Hessian by   9.820754039723798E-003
 Lowest  eigenvalues of input Hessian
    0.000000    0.000000    0.000000    0.000000    0.000000    0.000000
    0.010000    0.010216    0.010408    0.010909    0.011990    0.012305
    0.013090    0.013844    0.014387    0.015038    0.017426    0.017706
 Highest eigenvalues
    2.076196    2.188003    2.242572    2.308723    2.367620    2.454109
 

........................................................................
.............................. CYCLE   21 ..............................
........................................................................
   1    -83.6947455 -0.836947E+02  0.680E-03    0.32       0.0  T
   2    -83.6947464 -0.921722E-06  0.357E-03    0.32       4.3  T
   3    -83.6947465 -0.813580E-07  0.174E-03    0.32       8.9  T
   4    -83.6947465 -0.998371E-08  0.519E-04    0.32      29.8  T
   5    -83.6947465 -0.278658E-08  0.124E-04    0.32     124.8  T
   6    -83.6947465 -0.853362E-10  0.289E-05    0.32     533.1  T
     SCC iter.                  ...        0 min,  0.024 sec
     gradient                   ...        0 min,  0.066 sec
 * total energy  :   -82.9129580 Eh     change       -0.6510581E-04 Eh
   gradient norm :     0.0061771 Eh/α   predicted     0.0000000E+00 (-100.00%)
   displ. norm   :     0.0327973 α      lambda       -0.7473295E-04
   maximum displ.:     0.0146090 α      in ANC's #1, #21, #15, ...

........................................................................
.............................. CYCLE   22 ..............................
........................................................................
   1    -83.6962895 -0.836963E+02  0.443E-03    0.31       0.0  T
   2    -83.6962899 -0.384145E-06  0.223E-03    0.32       6.9  T
   3    -83.6962900 -0.229765E-07  0.117E-03    0.31      13.2  T
   4    -83.6962900 -0.369548E-08  0.294E-04    0.32      52.6  T
   5    -83.6962900 -0.152212E-08  0.572E-05    0.32     269.9  T
   6    -83.6962900 -0.419362E-10  0.117E-05    0.32    1314.7  T
     SCC iter.                  ...        0 min,  0.018 sec
     gradient                   ...        0 min,  0.074 sec
 * total energy  :   -82.9130113 Eh     change       -0.5331215E-04 Eh
   gradient norm :     0.0026082 Eh/α   predicted    -0.3773349E-04 ( -29.22%)
   displ. norm   :     0.0533356 α      lambda       -0.4342742E-04
   maximum displ.:     0.0279851 α      in ANC's #1, #18, #15, ...

........................................................................
.............................. CYCLE   23 ..............................
........................................................................
   1    -83.6973036 -0.836973E+02  0.378E-03    0.31       0.0  T
   2    -83.6973040 -0.416785E-06  0.184E-03    0.31       8.4  T
   3    -83.6973040 -0.259135E-07  0.972E-04    0.31      15.9  T
   4    -83.6973040 -0.923237E-09  0.322E-04    0.31      48.0  T
   5    -83.6973040 -0.129869E-08  0.520E-05    0.31     296.6  T
   6    -83.6973040 -0.280238E-10  0.122E-05    0.31    1264.5  T
     SCC iter.                  ...        0 min,  0.029 sec
     gradient                   ...        0 min,  0.084 sec
 * total energy  :   -82.9130396 Eh     change       -0.2831389E-04 Eh
   gradient norm :     0.0015143 Eh/α   predicted    -0.2177606E-04 ( -23.09%)
   displ. norm   :     0.0909810 α      lambda       -0.2400155E-04
   maximum displ.:     0.0515257 α      in ANC's #1, #18, #15, ...

........................................................................
.............................. CYCLE   24 ..............................
........................................................................
   1    -83.6974987 -0.836975E+02  0.284E-03    0.31       0.0  T
   2    -83.6974989 -0.293177E-06  0.150E-03    0.31      10.3  T
   3    -83.6974990 -0.227576E-07  0.742E-04    0.31      20.8  T
   4    -83.6974990 -0.389804E-09  0.294E-04    0.31      52.4  T
   5    -83.6974990 -0.716341E-09  0.491E-05    0.31     314.5  T
   6    -83.6974990 -0.152198E-10  0.131E-05    0.31    1178.9  T
     SCC iter.                  ...        0 min,  0.026 sec
     gradient                   ...        0 min,  0.084 sec
 * total energy  :   -82.9130632 Eh     change       -0.2365910E-04 Eh
   gradient norm :     0.0027468 Eh/α   predicted    -0.1207297E-04 ( -48.97%)
   displ. norm   :     0.0736197 α      lambda       -0.2488462E-04
   maximum displ.:     0.0434532 α      in ANC's #1, #18, #2, ...

........................................................................
.............................. CYCLE   25 ..............................
........................................................................
   1    -83.6970969 -0.836971E+02  0.134E-03    0.31       0.0  T
   2    -83.6970969 -0.317193E-07  0.784E-04    0.31      19.7  T
   3    -83.6970969 -0.519843E-08  0.375E-04    0.31      41.1  T
   4    -83.6970969 -0.671136E-09  0.673E-05    0.31     229.3  T
   5    -83.6970969 -0.230784E-10  0.243E-05    0.31     634.0  T
     SCC iter.                  ...        0 min,  0.021 sec
     gradient                   ...        0 min,  0.082 sec
 * total energy  :   -82.9130836 Eh     change       -0.2037438E-04 Eh
   gradient norm :     0.0023858 Eh/α   predicted    -0.1258711E-04 ( -38.22%)
   displ. norm   :     0.1419866 α      lambda       -0.3928673E-04
   maximum displ.:     0.0858976 α      in ANC's #1, #18, #2, ...

........................................................................
.............................. CYCLE   26 ..............................
........................................................................
   1    -83.6961893 -0.836962E+02  0.289E-03    0.31       0.0  T
   2    -83.6961895 -0.159743E-06  0.144E-03    0.31      10.7  T
   3    -83.6961895 -0.158153E-07  0.706E-04    0.31      21.9  T
   4    -83.6961895 -0.343044E-08  0.175E-04    0.31      88.3  T
   5    -83.6961895 -0.292431E-09  0.519E-05    0.31     297.3  T
     SCC iter.                  ...        0 min,  0.021 sec
     gradient                   ...        0 min,  0.082 sec
 * total energy  :   -82.9131104 Eh     change       -0.2679744E-04 Eh
   gradient norm :     0.0019751 Eh/α   predicted    -0.2008464E-04 ( -25.05%)
   displ. norm   :     0.1428888 α      lambda       -0.1855086E-04
   maximum displ.:     0.0922984 α      in ANC's #1, #18, #2, ...

........................................................................
.............................. CYCLE   27 ..............................
........................................................................
   1    -83.6958579 -0.836959E+02  0.238E-03    0.31       0.0  T
   2    -83.6958580 -0.144935E-06  0.104E-03    0.31      14.8  T
   3    -83.6958580 -0.101557E-07  0.505E-04    0.31      30.6  T
   4    -83.6958580 -0.160654E-08  0.162E-04    0.31      95.4  T
   5    -83.6958580 -0.329393E-09  0.458E-05    0.31     336.6  T
     SCC iter.                  ...        0 min,  0.021 sec
     gradient                   ...        0 min,  0.084 sec
 * total energy  :   -82.9131299 Eh     change       -0.1947698E-04 Eh
   gradient norm :     0.0021102 Eh/α   predicted    -0.9360069E-05 ( -51.94%)
   displ. norm   :     0.0661195 α      lambda       -0.1875382E-04
   maximum displ.:     0.0456529 α      in ANC's #1, #2, #14, ...

........................................................................
.............................. CYCLE   28 ..............................
........................................................................
   1    -83.6963508 -0.836964E+02  0.130E-03    0.31       0.0  T
   2    -83.6963508 -0.363210E-07  0.755E-04    0.31      20.4  T
   3    -83.6963508 -0.363279E-08  0.364E-04    0.31      42.3  T
   4    -83.6963508 -0.376261E-09  0.106E-04    0.31     145.3  T
   5    -83.6963508 -0.856915E-10  0.252E-05    0.31     612.4  T
     SCC iter.                  ...        0 min,  0.021 sec
     gradient                   ...        0 min,  0.083 sec
 * total energy  :   -82.9131456 Eh     change       -0.1571391E-04 Eh
   gradient norm :     0.0015737 Eh/α   predicted    -0.9418859E-05 ( -40.06%)
   displ. norm   :     0.1740013 α      lambda       -0.2683740E-04
   maximum displ.:     0.1198255 α      in ANC's #1, #2, #14, ...

........................................................................
.............................. CYCLE   29 ..............................
........................................................................
   1    -83.6971179 -0.836971E+02  0.277E-03    0.31       0.0  T
   2    -83.6971181 -0.217668E-06  0.171E-03    0.31       9.0  T
   3    -83.6971181 -0.326502E-07  0.813E-04    0.31      19.0  T
   4    -83.6971181 -0.165366E-08  0.203E-04    0.31      76.0  T
   5    -83.6971181 -0.316518E-09  0.709E-05    0.31     217.6  T
   6    -83.6971181 -0.246700E-10  0.151E-05    0.31    1020.3  T
     SCC iter.                  ...        0 min,  0.025 sec
     gradient                   ...        0 min,  0.084 sec
 * total energy  :   -82.9131702 Eh     change       -0.2458496E-04 Eh
   gradient norm :     0.0018281 Eh/α   predicted    -0.1359954E-04 ( -44.68%)
   displ. norm   :     0.0904458 α      lambda       -0.9778226E-05
   maximum displ.:     0.0653518 α      in ANC's #1, #2, #14, ...

........................................................................
.............................. CYCLE   30 ..............................
........................................................................
   1    -83.6970996 -0.836971E+02  0.145E-03    0.31       0.0  T
   2    -83.6970996 -0.638427E-07  0.536E-04    0.31      28.8  T
   3    -83.6970996 -0.431056E-08  0.257E-04    0.31      60.2  T
   4    -83.6970996 -0.459721E-09  0.791E-05    0.31     195.0  T
   5    -83.6970996 -0.762412E-10  0.277E-05    0.31     557.4  T
     SCC iter.                  ...        0 min,  0.022 sec
     gradient                   ...        0 min,  0.084 sec
 * total energy  :   -82.9131828 Eh     change       -0.1258871E-04 Eh
   gradient norm :     0.0012745 Eh/α   predicted    -0.4908455E-05 ( -61.01%)
   displ. norm   :     0.1223531 α      lambda       -0.1702787E-04
   maximum displ.:     0.0864404 α      in ANC's #1, #2, #14, ...

........................................................................
.............................. CYCLE   31 ..............................
........................................................................
   1    -83.6973522 -0.836974E+02  0.213E-03    0.31       0.0  T
   2    -83.6973523 -0.133156E-06  0.841E-04    0.31      18.3  T
   3    -83.6973523 -0.797810E-08  0.410E-04    0.31      37.6  T
   4    -83.6973523 -0.712532E-09  0.151E-04    0.31     102.0  T
   5    -83.6973523 -0.215280E-09  0.358E-05    0.31     430.7  T
     SCC iter.                  ...        0 min,  0.026 sec
     gradient                   ...        0 min,  0.084 sec
 * total energy  :   -82.9132028 Eh     change       -0.2001978E-04 Eh
   gradient norm :     0.0010244 Eh/α   predicted    -0.8574497E-05 ( -57.17%)
   displ. norm   :     0.1581841 α      lambda       -0.1599358E-04
   maximum displ.:     0.1120019 α      in ANC's #1, #14, #2, ...

........................................................................
.............................. CYCLE   32 ..............................
........................................................................
   1    -83.6969231 -0.836969E+02  0.223E-03    0.31       0.0  T
   2    -83.6969232 -0.103883E-06  0.997E-04    0.31      15.5  T
   3    -83.6969232 -0.103161E-07  0.457E-04    0.31      33.8  T
   4    -83.6969232 -0.143696E-08  0.151E-04    0.31     102.1  T
   5    -83.6969232 -0.142350E-09  0.404E-05    0.31     382.4  T
     SCC iter.                  ...        0 min,  0.024 sec
     gradient                   ...        0 min,  0.080 sec
 * total energy  :   -82.9132211 Eh     change       -0.1830927E-04 Eh
   gradient norm :     0.0014572 Eh/α   predicted    -0.8088065E-05 ( -55.83%)
   displ. norm   :     0.1485088 α      lambda       -0.1349334E-04
   maximum displ.:     0.1042239 α      in ANC's #1, #2, #13, ...

........................................................................
.............................. CYCLE   33 ..............................
........................................................................
   1    -83.6968835 -0.836969E+02  0.172E-03    0.31       0.0  T
   2    -83.6968835 -0.613002E-07  0.728E-04    0.31      21.2  T
   3    -83.6968835 -0.564536E-08  0.314E-04    0.31      49.2  T
   4    -83.6968836 -0.100262E-08  0.123E-04    0.31     125.8  T
   5    -83.6968836 -0.824798E-10  0.241E-05    0.31     639.0  T
     SCC iter.                  ...        0 min,  0.019 sec
     gradient                   ...        0 min,  0.080 sec
 * total energy  :   -82.9132381 Eh     change       -0.1697223E-04 Eh
   gradient norm :     0.0016606 Eh/α   predicted    -0.6813097E-05 ( -59.86%)
   displ. norm   :     0.1980556 α      lambda       -0.1931911E-04
   maximum displ.:     0.1378440 α      in ANC's #1, #13, #2, ...

........................................................................
.............................. CYCLE   34 ..............................
........................................................................
   1    -83.6966666 -0.836967E+02  0.271E-03    0.31       0.0  T
   2    -83.6966668 -0.181004E-06  0.115E-03    0.31      13.5  T
   3    -83.6966668 -0.150422E-07  0.488E-04    0.31      31.6  T
   4    -83.6966668 -0.227017E-08  0.203E-04    0.31      75.9  T
   5    -83.6966668 -0.242878E-09  0.394E-05    0.31     391.3  T
   6    -83.6966668 -0.355271E-11  0.148E-05    0.31    1043.7  T
     SCC iter.                  ...        0 min,  0.022 sec
     gradient                   ...        0 min,  0.080 sec
 * total energy  :   -82.9132620 Eh     change       -0.2391039E-04 Eh
   gradient norm :     0.0015556 Eh/α   predicted    -0.9830205E-05 ( -58.89%)
   displ. norm   :     0.2444017 α      lambda       -0.2514600E-04
   maximum displ.:     0.1707154 α      in ANC's #1, #13, #2, ...

........................................................................
.............................. CYCLE   35 ..............................
........................................................................
   1    -83.6966008 -0.836966E+02  0.352E-03    0.31       0.0  T
   2    -83.6966011 -0.307159E-06  0.141E-03    0.31      10.9  T
   3    -83.6966012 -0.212150E-07  0.619E-04    0.31      24.9  T
   4    -83.6966012 -0.352085E-08  0.269E-04    0.31      57.3  T
   5    -83.6966012 -0.472625E-09  0.476E-05    0.31     324.3  T
   6    -83.6966012 -0.730438E-11  0.181E-05    0.31     852.3  T
     SCC iter.                  ...        0 min,  0.022 sec
     gradient                   ...        0 min,  0.080 sec
 * total energy  :   -82.9132970 Eh     change       -0.3498398E-04 Eh
   gradient norm :     0.0015555 Eh/α   predicted    -0.1290744E-04 ( -63.10%)
   displ. norm   :     0.5572933 α      lambda       -0.5960832E-04
   maximum displ.:     0.3872595 α      in ANC's #1, #13, #2, ...

........................................................................
.............................. CYCLE   36 ..............................
........................................................................
   1    -83.6946795 -0.836947E+02  0.992E-03    0.31       0.0  T
   2    -83.6946810 -0.149477E-05  0.430E-03    0.31       3.6  T
   3    -83.6946811 -0.933855E-07  0.192E-03    0.31       8.0  T
   4    -83.6946812 -0.351885E-07  0.692E-04    0.31      22.3  T
   5    -83.6946812 -0.312257E-08  0.125E-04    0.31     123.0  T
   6    -83.6946812 -0.920295E-10  0.457E-05    0.31     337.8  T
     SCC iter.                  ...        0 min,  0.022 sec
     gradient                   ...        0 min,  0.080 sec
 * total energy  :   -82.9133390 Eh     change       -0.4198786E-04 Eh
   gradient norm :     0.0057469 Eh/α   predicted    -0.3391904E-04 ( -19.22%)
   displ. norm   :     0.0663458 α      lambda       -0.6396759E-04
   maximum displ.:     0.0462591 α      in ANC's #1, #6, #18, ...

........................................................................
.............................. CYCLE   37 ..............................
........................................................................
   1    -83.6964705 -0.836965E+02  0.329E-03    0.31       0.0  T
   2    -83.6964705 -0.479671E-07  0.192E-03    0.31       8.0  T
   3    -83.6964705  0.209808E-08  0.611E-04    0.31      25.3  T
   4    -83.6964705 -0.489679E-08  0.786E-05    0.31     196.4  T
   5    -83.6964705 -0.193907E-09  0.241E-05    0.31     639.7  T
     SCC iter.                  ...        0 min,  0.019 sec
     gradient                   ...        0 min,  0.080 sec
 * total energy  :   -82.9133829 Eh     change       -0.4398046E-04 Eh
   gradient norm :     0.0031386 Eh/α   predicted    -0.3212867E-04 ( -26.95%)
   displ. norm   :     0.2002102 α      lambda       -0.4915605E-04
   maximum displ.:     0.1469503 α      in ANC's #1, #13, #11, ...

........................................................................
.............................. CYCLE   38 ..............................
........................................................................
   1    -83.6972436 -0.836972E+02  0.241E-03    0.31       0.0  T
   2    -83.6972437 -0.103931E-06  0.110E-03    0.31      14.0  T
   3    -83.6972437 -0.538101E-08  0.506E-04    0.31      30.5  T
   4    -83.6972437 -0.973188E-09  0.170E-04    0.31      90.5  T
   5    -83.6972437 -0.303146E-09  0.368E-05    0.31     419.8  T
     SCC iter.                  ...        0 min,  0.019 sec
     gradient                   ...        0 min,  0.080 sec
 * total energy  :   -82.9134247 Eh     change       -0.4172795E-04 Eh
   gradient norm :     0.0028752 Eh/α   predicted    -0.2556317E-04 ( -38.74%)
   displ. norm   :     0.5092918 α      lambda       -0.1156491E-03
   maximum displ.:     0.3726362 α      in ANC's #1, #13, #11, ...

........................................................................
.............................. CYCLE   39 ..............................
........................................................................
   1    -83.6966017 -0.836966E+02  0.757E-03    0.32       0.0  T
   2    -83.6966023 -0.632585E-06  0.338E-03    0.32       4.6  T
   3    -83.6966024 -0.323276E-07  0.126E-03    0.32      12.3  T
   4    -83.6966024 -0.816517E-08  0.376E-04    0.32      41.1  T
   5    -83.6966024 -0.123195E-08  0.982E-05    0.32     157.1  T
   6    -83.6966024 -0.122853E-09  0.367E-05    0.32     420.0  T
     SCC iter.                  ...        0 min,  0.022 sec
     gradient                   ...        0 min,  0.080 sec
 * total energy  :   -82.9135292 Eh     change       -0.1045183E-03 Eh
   gradient norm :     0.0038974 Eh/α   predicted    -0.7282225E-04 ( -30.33%)
   displ. norm   :     0.6404535 α      lambda       -0.1964999E-03
   maximum displ.:     0.4651220 α      in ANC's #1, #11, #13, ...

........................................................................
.............................. CYCLE   40 ..............................
........................................................................
   1    -83.6944586 -0.836945E+02  0.113E-02    0.32       0.0  T
   2    -83.6944597 -0.114496E-05  0.554E-03    0.32       2.8  T
   3    -83.6944598 -0.496565E-07  0.218E-03    0.32       7.1  T
   4    -83.6944598 -0.321314E-07  0.533E-04    0.32      28.9  T
   5    -83.6944598 -0.306339E-08  0.151E-04    0.32     102.3  T
   6    -83.6944598 -0.401101E-09  0.547E-05    0.32     281.9  T
     SCC iter.                  ...        0 min,  0.022 sec
     gradient                   ...        0 min,  0.080 sec
 * total energy  :   -82.9136187 Eh     change       -0.8950025E-04 Eh
   gradient norm :     0.0093634 Eh/α   predicted    -0.1385427E-03 (  54.80%)
   displ. norm   :     0.2580039 α      lambda       -0.3261889E-03
   maximum displ.:     0.1268291 α      in ANC's #5, #6, #8, ...

........................................................................
.............................. CYCLE   41 ..............................
........................................................................
   1    -83.6996783 -0.836997E+02  0.146E-02    0.32       0.0  T
   2    -83.6996801 -0.181432E-05  0.790E-03    0.32       2.0  T
   3    -83.6996802 -0.697540E-07  0.373E-03    0.32       4.1  T
   4    -83.6996803 -0.100436E-06  0.607E-04    0.32      25.4  T
   5    -83.6996803 -0.682495E-08  0.118E-04    0.32     130.8  T
   6    -83.6996803 -0.247866E-09  0.435E-05    0.32     355.0  T
     SCC iter.                  ...        0 min,  0.022 sec
     gradient                   ...        0 min,  0.080 sec
 * total energy  :   -82.9136559 Eh     change       -0.3721365E-04 Eh
   gradient norm :     0.0076113 Eh/α   predicted    -0.1739572E-03 ( 367.46%)
   displ. norm   :     0.1533873 α      lambda       -0.2003756E-03
   maximum displ.:     0.0869575 α      in ANC's #1, #5, #2, ...

........................................................................
.............................. CYCLE   42 ..............................
........................................................................
   1    -83.6975753 -0.836976E+02  0.720E-03    0.32       0.0  T
   2    -83.6975760 -0.685414E-06  0.366E-03    0.32       4.2  T
   3    -83.6975761 -0.635903E-07  0.190E-03    0.32       8.1  T
   4    -83.6975761 -0.136134E-07  0.418E-04    0.32      36.9  T
   5    -83.6975761 -0.200194E-08  0.745E-05    0.32     207.1  T
   6    -83.6975761 -0.825935E-10  0.271E-05    0.32     568.5  T
     SCC iter.                  ...        0 min,  0.022 sec
     gradient                   ...        0 min,  0.080 sec
 * total energy  :   -82.9137804 Eh     change       -0.1244560E-03 Eh
   gradient norm :     0.0034388 Eh/α   predicted    -0.1025474E-03 ( -17.60%)
   displ. norm   :     0.2382829 α      lambda       -0.6960258E-04
   maximum displ.:     0.1790863 α      in ANC's #1, #11, #18, ...
 * RMSD in coord.:     0.5575757 α      energy gain  -0.8875074E-03 Eh

generating ANC from model Hessian ...
Using Lindh-Hessian (1995)
 Shifting diagonal of input Hessian by   9.832200825961401E-003
 Lowest  eigenvalues of input Hessian
    0.000000    0.000000    0.000000    0.000000    0.000000    0.000000
    0.010000    0.010285    0.010392    0.010886    0.012029    0.012358
    0.013144    0.013929    0.014204    0.015351    0.017420    0.017886
 Highest eigenvalues
    2.075720    2.191524    2.243380    2.308918    2.368613    2.458401
 

........................................................................
.............................. CYCLE   43 ..............................
........................................................................
   1    -83.6961339 -0.836961E+02  0.526E-03    0.32       0.0  T
   2    -83.6961342 -0.234532E-06  0.255E-03    0.32       6.0  T
   3    -83.6961342 -0.936478E-08  0.110E-03    0.32      14.0  T
   4    -83.6961342 -0.618328E-08  0.246E-04    0.32      62.6  T
   5    -83.6961342 -0.668692E-09  0.661E-05    0.32     233.5  T
   6    -83.6961342 -0.573692E-10  0.225E-05    0.32     684.6  T
     SCC iter.                  ...        0 min,  0.022 sec
     gradient                   ...        0 min,  0.080 sec
 * total energy  :   -82.9138248 Eh     change       -0.4443169E-04 Eh
   gradient norm :     0.0050217 Eh/α   predicted     0.0000000E+00 (-100.00%)
   displ. norm   :     0.0395429 α      lambda       -0.6974680E-04
   maximum displ.:     0.0229348 α      in ANC's #11, #6, #14, ...

........................................................................
.............................. CYCLE   44 ..............................
........................................................................
   1    -83.6978822 -0.836979E+02  0.316E-03    0.32       0.0  T
   2    -83.6978823 -0.935414E-07  0.174E-03    0.32       8.9  T
   3    -83.6978823 -0.115365E-08  0.761E-04    0.32      20.3  T
   4    -83.6978823 -0.321123E-08  0.110E-04    0.32     140.3  T
   5    -83.6978823 -0.301966E-09  0.275E-05    0.32     561.3  T
     SCC iter.                  ...        0 min,  0.019 sec
     gradient                   ...        0 min,  0.080 sec
 * total energy  :   -82.9138758 Eh     change       -0.5102688E-04 Eh
   gradient norm :     0.0018355 Eh/α   predicted    -0.3509508E-04 ( -31.22%)
   displ. norm   :     0.1149210 α      lambda       -0.5443514E-04
   maximum displ.:     0.0702953 α      in ANC's #11, #6, #14, ...

........................................................................
.............................. CYCLE   45 ..............................
........................................................................
   1    -83.6994942 -0.836995E+02  0.373E-03    0.32       0.0  T
   2    -83.6994946 -0.368644E-06  0.185E-03    0.32       8.4  T
   3    -83.6994946 -0.140950E-07  0.974E-04    0.32      15.8  T
   4    -83.6994946 -0.240276E-08  0.282E-04    0.32      54.7  T
   5    -83.6994946 -0.929006E-09  0.490E-05    0.32     315.0  T
   6    -83.6994946 -0.412541E-10  0.189E-05    0.32     818.4  T
     SCC iter.                  ...        0 min,  0.022 sec
     gradient                   ...        0 min,  0.080 sec
 * total energy  :   -82.9139271 Eh     change       -0.5131113E-04 Eh
   gradient norm :     0.0027896 Eh/α   predicted    -0.2738118E-04 ( -46.64%)
   displ. norm   :     0.0996016 α      lambda       -0.4556553E-04
   maximum displ.:     0.0629737 α      in ANC's #11, #6, #14, ...

........................................................................
.............................. CYCLE   46 ..............................
........................................................................
   1    -83.6991067 -0.836991E+02  0.250E-03    0.32       0.0  T
   2    -83.6991068 -0.111103E-06  0.127E-03    0.32      12.1  T
   3    -83.6991068 -0.565929E-08  0.614E-04    0.32      25.1  T
   4    -83.6991068 -0.201844E-08  0.169E-04    0.32      91.3  T
   5    -83.6991068 -0.321180E-09  0.299E-05    0.32     516.7  T
     SCC iter.                  ...        0 min,  0.018 sec
     gradient                   ...        0 min,  0.080 sec
 * total energy  :   -82.9139673 Eh     change       -0.4016432E-04 Eh
   gradient norm :     0.0023383 Eh/α   predicted    -0.2301167E-04 ( -42.71%)
   displ. norm   :     0.3301712 α      lambda       -0.1238627E-03
   maximum displ.:     0.2091935 α      in ANC's #11, #6, #14, ...

........................................................................
.............................. CYCLE   47 ..............................
........................................................................
   1    -83.6959619 -0.836960E+02  0.971E-03    0.32       0.0  T
   2    -83.6959628 -0.895387E-06  0.525E-03    0.32       2.9  T
   3    -83.6959629 -0.335459E-07  0.239E-03    0.32       6.5  T
   4    -83.6959629 -0.446196E-07  0.445E-04    0.32      34.7  T
   5    -83.6959629 -0.295310E-08  0.104E-04    0.32     148.5  T
   6    -83.6959629 -0.102844E-09  0.347E-05    0.32     444.3  T
     SCC iter.                  ...        0 min,  0.022 sec
     gradient                   ...        0 min,  0.080 sec
 * total energy  :   -82.9139883 Eh     change       -0.2100142E-04 Eh
   gradient norm :     0.0060924 Eh/α   predicted    -0.6868788E-04 ( 227.06%)
   displ. norm   :     0.1492586 α      lambda       -0.9728295E-04
   maximum displ.:     0.0967511 α      in ANC's #11, #14, #6, ...

........................................................................
.............................. CYCLE   48 ..............................
........................................................................
   1    -83.6980153 -0.836980E+02  0.634E-03    0.32       0.0  T
   2    -83.6980156 -0.361675E-06  0.355E-03    0.32       4.4  T
   3    -83.6980156 -0.325993E-08  0.149E-03    0.32      10.4  T
   4    -83.6980156 -0.222346E-07  0.245E-04    0.32      63.0  T
   5    -83.6980156 -0.116272E-08  0.541E-05    0.32     285.4  T
   6    -83.6980156 -0.365361E-10  0.211E-05    0.32     730.0  T
     SCC iter.                  ...        0 min,  0.022 sec
     gradient                   ...        0 min,  0.080 sec
 * total energy  :   -82.9140237 Eh     change       -0.3537397E-04 Eh
   gradient norm :     0.0015277 Eh/α   predicted    -0.4974637E-04 (  40.63%)
   displ. norm   :     0.0814448 α      lambda       -0.1586051E-04
   maximum displ.:     0.0474243 α      in ANC's #11, #7, #14, ...

........................................................................
.............................. CYCLE   49 ..............................
........................................................................
   1    -83.6977548 -0.836978E+02  0.164E-03    0.32       0.0  T
   2    -83.6977548 -0.473660E-07  0.766E-04    0.32      20.1  T
   3    -83.6977548 -0.333260E-08  0.393E-04    0.32      39.3  T
   4    -83.6977548 -0.477058E-09  0.705E-05    0.32     218.9  T
   5    -83.6977548 -0.781597E-10  0.236E-05    0.32     652.6  T
     SCC iter.                  ...        0 min,  0.018 sec
     gradient                   ...        0 min,  0.080 sec
 * total energy  :   -82.9140440 Eh     change       -0.2029243E-04 Eh
   gradient norm :     0.0016029 Eh/α   predicted    -0.7961933E-05 ( -60.76%)
   displ. norm   :     0.2232321 α      lambda       -0.4054442E-04
   maximum displ.:     0.1246706 α      in ANC's #11, #7, #14, ...

........................................................................
.............................. CYCLE   50 ..............................
........................................................................
   1    -83.6972203 -0.836972E+02  0.453E-03    0.32       0.0  T
   2    -83.6972207 -0.411814E-06  0.208E-03    0.32       7.4  T
   3    -83.6972207 -0.263771E-07  0.105E-03    0.32      14.8  T
   4    -83.6972207 -0.404464E-08  0.216E-04    0.32      71.3  T
   5    -83.6972207 -0.765411E-09  0.666E-05    0.32     231.5  T
   6    -83.6972207 -0.559623E-10  0.213E-05    0.32     723.4  T
     SCC iter.                  ...        0 min,  0.022 sec
     gradient                   ...        0 min,  0.080 sec
 * total energy  :   -82.9140726 Eh     change       -0.2860787E-04 Eh
   gradient norm :     0.0032688 Eh/α   predicted    -0.2072501E-04 ( -27.55%)
   displ. norm   :     0.0220633 α      lambda       -0.1605134E-04
   maximum displ.:     0.0103121 α      in ANC's #18, #11, #6, ...

........................................................................
.............................. CYCLE   51 ..............................
........................................................................
   1    -83.6979474 -0.836979E+02  0.183E-03    0.32       0.0  T
   2    -83.6979475 -0.285256E-07  0.104E-03    0.32      14.9  T
   3    -83.6979475 -0.347839E-09  0.458E-04    0.32      33.7  T
   4    -83.6979475 -0.163986E-08  0.689E-05    0.32     223.9  T
   5    -83.6979475 -0.110120E-09  0.953E-06    0.32    1619.7  T
     SCC iter.                  ...        0 min,  0.018 sec
     gradient                   ...        0 min,  0.080 sec
 * total energy  :   -82.9140836 Eh     change       -0.1105603E-04 Eh
   gradient norm :     0.0018367 Eh/α   predicted    -0.8031944E-05 ( -27.35%)
   displ. norm   :     0.0584182 α      lambda       -0.1120216E-04
   maximum displ.:     0.0240262 α      in ANC's #11, #13, #1, ...

........................................................................
.............................. CYCLE   52 ..............................
........................................................................
   1    -83.6987246 -0.836987E+02  0.195E-03    0.32       0.0  T
   2    -83.6987246 -0.664248E-07  0.972E-04    0.32      15.9  T
   3    -83.6987246 -0.438635E-08  0.510E-04    0.32      30.3  T
   4    -83.6987246 -0.581835E-09  0.139E-04    0.32     110.9  T
   5    -83.6987246 -0.256023E-09  0.204E-05    0.32     755.3  T
     SCC iter.                  ...        0 min,  0.018 sec
     gradient                   ...        0 min,  0.080 sec
 * total energy  :   -82.9140940 Eh     change       -0.1041585E-04 Eh
   gradient norm :     0.0009242 Eh/α   predicted    -0.5617698E-05 ( -46.07%)
   displ. norm   :     0.0814789 α      lambda       -0.7659922E-05
   maximum displ.:     0.0463072 α      in ANC's #11, #4, #14, ...

........................................................................
.............................. CYCLE   53 ..............................
........................................................................
   1    -83.6985721 -0.836986E+02  0.165E-03    0.32       0.0  T
   2    -83.6985722 -0.409031E-07  0.831E-04    0.32      18.6  T
   3    -83.6985722 -0.201649E-08  0.396E-04    0.32      38.9  T
   4    -83.6985722 -0.767926E-09  0.999E-05    0.32     154.5  T
   5    -83.6985722 -0.118305E-09  0.238E-05    0.32     648.1  T
     SCC iter.                  ...        0 min,  0.018 sec
     gradient                   ...        0 min,  0.080 sec
 * total energy  :   -82.9141019 Eh     change       -0.7908717E-05 Eh
   gradient norm :     0.0006285 Eh/α   predicted    -0.3841916E-05 ( -51.42%)
   displ. norm   :     0.0553376 α      lambda       -0.3930297E-05
   maximum displ.:     0.0276157 α      in ANC's #11, #4, #1, ...

........................................................................
.............................. CYCLE   54 ..............................
........................................................................
   1    -83.6984349 -0.836984E+02  0.106E-03    0.32       0.0  T
   2    -83.6984349 -0.265583E-07  0.507E-04    0.32      30.4  T
   3    -83.6984349 -0.178375E-08  0.255E-04    0.32      60.5  T
   4    -83.6984349 -0.507441E-09  0.710E-05    0.32     217.3  T
   5    -83.6984349 -0.379572E-10  0.153E-05    0.32    1005.9  T
     SCC iter.                  ...        0 min,  0.018 sec
     gradient                   ...        0 min,  0.080 sec
 * total energy  :   -82.9141058 Eh     change       -0.3891750E-05 Eh
   gradient norm :     0.0006085 Eh/α   predicted    -0.1969480E-05 ( -49.39%)
   displ. norm   :     0.0331643 α      lambda       -0.1955146E-05
   maximum displ.:     0.0149736 α      in ANC's #4, #1, #2, ...

   *** GEOMETRY OPTIMIZATION CONVERGED AFTER 54 ITERATIONS ***

------------------------------------------------------------------------
 total energy gain   :        -0.0346016 Eh      -21.7128 kcal/mol
 total RMSD          :         0.9919982 a0        0.5249 Å
 total power (kW/mol):        -1.6823421 (step)  -11.5476 (real)
------------------------------------------------------------------------

 ANCopt (total)                0 d,  0 h,  0 min,  7.867 sec
 optimizer setup                ...        0 min,  0.001 sec (  0.013%)
 model hessian                  ...        0 min,  0.082 sec (  1.038%)
 ANC generation                 ...        0 min,  0.008 sec (  0.096%)
 coordinate transformation      ...        0 min,  0.003 sec (  0.034%)
 single point calculation       ...        0 min,  7.737 sec ( 98.350%)
 optimization log               ...        0 min,  0.018 sec (  0.228%)
 hessian update                 ...        0 min,  0.002 sec (  0.028%)
 rational function              ...        0 min,  0.010 sec (  0.129%)

================
 final structure:
================
42
 xtb: 6.5.1 (579679a)
C            7.06967530729322       -1.52858441091020       -0.37953884143167
O            5.92299114123369       -1.23353471413107        0.40760826181095
C            4.87080127228412       -0.70136503291725       -0.25976931301470
O            4.93278967939491       -0.49950308353012       -1.46644347699363
C            3.71084311628345       -0.40263802219355        0.56984989063033
N            2.67267626161982        0.15671781713934       -0.15195296446682
C            1.58087469666059        0.48807629530180        0.42419488693958
C            0.44314784923236        1.10206561520182       -0.36085992781364
C            0.23655654246658        2.56306900089380        0.05747531619934
C            0.71861371163469        0.98352977768990       -1.86090912376434
N           -0.77180012778696        0.32322751797300       -0.02364433785229
C           -1.98182983230378        0.58955624839267       -0.50950995660755
O           -2.29772183446599        1.48053390755479       -1.27761562083834
C           -2.99508718371876       -0.38416995372171        0.01132433659598
N           -2.83214651356685       -1.38645268081629        0.78871376877052
N           -4.04135612200343       -1.99573553936653        0.98372721398098
C           -4.93588563058379       -1.36493974577210        0.32559870696584
C           -6.37793098256164       -1.63230438490385        0.21471135826111
O           -4.34011152353347       -0.28938083122163       -0.34642816067193
C           -4.94238697174902        0.71813845539121       -1.22080325334674
N            1.38518599753170        0.31427859155092        1.78247598000568
C            2.32156186513697       -0.24694976852315        2.61786738381769
O            2.06853831595708       -0.37793767652164        3.81111727322755
C            3.62299067026754       -0.66032624338390        1.96370699604571
O            4.50079605846905       -1.18041184222014        2.67360225444884
H            7.82339768452351       -1.93581940406902        0.29350664125206
H            7.45163092713950       -0.62252404187505       -0.86016303670186
H            6.82763677827012       -2.26330845182346       -1.15365178888226
H           -0.56126578825783        3.01738388432903       -0.52560375915141
H           -0.02343892304895        2.61746946339685        1.11294604271149
H            1.15871386403387        3.11783123662406       -0.11186757358180
H           -0.08450470546763        1.44257644714487       -2.43207524332940
H            1.65742851615965        1.48696055536536       -2.08945473529689
H            0.80513691369072       -0.06574382595465       -2.13979841611727
H           -0.67391019505707       -0.46398809956782        0.60090991958001
H           -6.61487643294342       -2.51321644467021        0.80878092373730
H           -6.65381188227584       -1.80938063701952       -0.82502360121009
H           -6.95307349559550       -0.78148570261189        0.58087843108604
H           -4.46646617833425        0.62953897913390       -2.19526086128337
H           -4.75247637773800        1.69146136381548       -0.77332626469810
H           -6.00341799154736        0.49552810653597       -1.26783089665857
H            0.52151252325512        0.60830427429057        2.20253556763826
 
 Bond Distances (Angstroems)
 ---------------------------
C1-O2=1.4218         C1-H26=1.0895        C1-H27=1.0945        C1-H28=1.0944        O2-C1=1.4218         O2-C3=1.3549         
C3-O2=1.3549         C3-O4=1.2250         C3-C5=1.4571         O4-C3=1.2250         C5-C3=1.4571         C5-N6=1.3826         
C5-C24=1.4202        N6-C5=1.3826         N6-C7=1.2782         C7-N6=1.2782         C7-C8=1.5125         C7-N21=1.3833        
C8-C7=1.5125         C8-C9=1.5337         C8-C10=1.5297        C8-N11=1.4820        C9-C8=1.5337         C9-H29=1.0876        
C9-H30=1.0884        C9-H31=1.0894        C10-C8=1.5297        C10-H32=1.0872       C10-H33=1.0895       C10-H34=1.0891       
N11-C8=1.4820        N11-C12=1.3309       N11-H35=1.0096       C12-N11=1.3309       C12-O13=1.2180       C12-C14=1.4987       
O13-C12=1.2180       C14-C12=1.4987       C14-N15=1.2788       C14-O19=1.3950       N15-C14=1.2788       N15-N16=1.3680       
N16-N15=1.3680       N16-C17=1.2772       C17-N16=1.2772       C17-C18=1.4708       C17-O19=1.4012       C18-C17=1.4708       
C18-H36=1.0886       C18-H37=1.0902       C18-H38=1.0903       O19-C14=1.3950       O19-C17=1.4012       O19-C20=1.4637       
C20-O19=1.4637       C20-H39=1.0881       C20-H40=1.0880       C20-H41=1.0852       N21-C7=1.3833        N21-C22=1.3746       
N21-H42=1.0044       C22-N21=1.3746       C22-O23=1.2268       C22-C24=1.5141       O23-C22=1.2268       C24-C5=1.4202        
C24-C22=1.5141       C24-O25=1.2430       O25-C24=1.2430       H26-C1=1.0895        H27-C1=1.0945        H28-C1=1.0944        
H29-C9=1.0876        H30-C9=1.0884        H31-C9=1.0894        H32-C10=1.0872       H33-C10=1.0895       H34-C10=1.0891       
H35-N11=1.0096       H36-C18=1.0886       H37-C18=1.0902       H38-C18=1.0903       H39-C20=1.0881       H40-C20=1.0880       
H41-C20=1.0852       H42-N21=1.0044       
 C  H  Rav=1.0893 sigma=0.0024  Rmin=1.0852  Rmax=1.0945    15
 C  C  Rav=1.4921 sigma=0.0370  Rmin=1.4202  Rmax=1.5337     8
 N  H  Rav=1.0070 sigma=0.0026  Rmin=1.0044  Rmax=1.0096     2
 N  C  Rav=1.3485 sigma=0.0672  Rmin=1.2772  Rmax=1.4820     8
 N  N  Rav=1.3680 sigma=0.0000  Rmin=1.3680  Rmax=1.3680     1
 O  C  Rav=1.3277 sigma=0.0931  Rmin=1.2180  Rmax=1.4637     9
 
 selected bond angles (degree)
 --------------------
H26-C1-O2=107.07               H27-C1-O2=110.66               H27-C1-H26=109.83              H28-C1-O2=110.64               
H28-C1-H26=109.82              H28-C1-H27=108.81              C3-O2-C1=115.79                O4-C3-O2=120.71                
C5-C3-O2=114.73                C5-C3-O4=124.57                N6-C5-C3=112.55                C24-C5-C3=124.81               
C24-C5-N6=122.64               C7-N6-C5=120.73                C8-C7-N6=120.92                N21-C7-N6=122.06               
N21-C7-C8=117.02               C9-C8-C7=110.27                C10-C8-C7=110.00               C10-C8-C9=111.44               
N11-C8-C7=106.57               N11-C8-C9=109.15               N11-C8-C10=109.27              H29-C9-C8=110.52               
H30-C9-C8=110.14               H30-C9-H29=108.89              H31-C9-C8=109.19               H31-C9-H29=108.96              
H31-C9-H30=109.12              H32-C10-C8=110.45              H33-C10-C8=108.97              H33-C10-H32=109.34             
H34-C10-C8=109.88              H34-C10-H32=109.33             H34-C10-H33=108.84             
 
 selected dihedral angles (degree)
 ---------------------------------
C3-O2-C1-H26=179.46           C3-O2-C1-H27= 59.79           C3-O2-C1-H28=299.11           O4-C3-O2-C1=  0.06            
C5-C3-O2-C1=180.26            N6-C5-C3-O2=179.07            N6-C5-C3-O4=359.28            C24-C5-C3-O2=358.40           
C24-C5-C3-O4=178.61           C7-N6-C5-C3=180.45            C7-N6-C5-C24=  1.10           C8-C7-N6-C5=179.91            
N21-C7-N6-C5=  0.37           C9-C8-C7-N6=247.58            C9-C8-C7-N21= 67.15           C10-C8-C7-N6= 10.89           
C10-C8-C7-N21=190.45          N11-C8-C7-N6=129.23           N11-C8-C7-N21=308.80          H29-C9-C8-C7=178.32           
H29-C9-C8-C10= 55.85          H29-C9-C8-N11=295.07          H30-C9-C8-C7=298.68           H30-C9-C8-C10=176.21          
H30-C9-C8-N11= 55.43          H31-C9-C8-C7= 58.48           H31-C9-C8-C10=296.01          H31-C9-C8-N11=175.23          
H32-C10-C8-C7=181.26          H32-C10-C8-C9=303.88          H32-C10-C8-N11= 64.59         H33-C10-C8-C7=301.39          
H33-C10-C8-C9= 64.01          H33-C10-C8-N11=184.73         H34-C10-C8-C7= 60.57          H34-C10-C8-C9=183.19          
H34-C10-C8-N11=303.90         
           -------------------------------------------------
          |                Final Singlepoint                |
           -------------------------------------------------

          ...................................................
          :                      SETUP                      :
          :.................................................:
          :  # basis functions                 134          :
          :  # atomic orbitals                 134          :
          :  # shells                           84          :
          :  # electrons                       134          :
          :  # halogen bonds                     0          :
          :  max. iterations                   250          :
          :  Hamiltonian                  GFN1-xTB          :
          :  restarted?                      false          :
          :  GBSA solvation                   true          :
          :  PC potential                    false          :
          :  electronic temp.          300.0000000     K    :
          :  accuracy                    1.0000000          :
          :  -> integral cutoff          0.2500000E+02      :
          :  -> integral neglect         0.1000000E-07      :
          :  -> SCF convergence          0.1000000E-05 Eh   :
          :  -> wf. convergence          0.2000000E-04 e    :
          :  Broyden damping             0.4000000          :
          ...................................................

 iter      E             dE          RMSdq      gap      omega  full diag
   1    -83.6984349 -0.836984E+02  0.575E-06    0.32       0.0  T
   2    -83.6984349 -0.383693E-12  0.280E-06    0.32    5503.2  T
   3    -83.6984349 -0.426326E-13  0.139E-06    0.32   11086.7  T

   *** convergence criteria satisfied after 3 iterations ***

         #    Occupation            Energy/Eh            Energy/eV
      -------------------------------------------------------------
         1        2.0000           -0.9651223             -26.2623
       ...           ...                  ...                  ...
        61        2.0000           -0.4679693             -12.7341
        62        2.0000           -0.4624978             -12.5852
        63        2.0000           -0.4469369             -12.1618
        64        2.0000           -0.4405805             -11.9888
        65        2.0000           -0.4243202             -11.5463
        66        2.0000           -0.3848928             -10.4735
        67        1.9962           -0.3724258             -10.1342 (HOMO)
        68        0.0038           -0.3605075              -9.8099 (LUMO)
        69                         -0.3108214              -8.4579
        70                         -0.2756230              -7.5001
        71                         -0.2480934              -6.7510
        72                         -0.2394431              -6.5156
       ...                                ...                  ...
       134                          0.7533611              20.5000
      -------------------------------------------------------------
                  HL-Gap            0.0119182 Eh            0.3243 eV
             Fermi-level           -0.3664667 Eh           -9.9721 eV

 SCC (total)                   0 d,  0 h,  0 min,  0.074 sec
 SCC setup                      ...        0 min,  0.002 sec (  2.530%)
 Dispersion                     ...        0 min,  0.000 sec (  0.449%)
 classical contributions        ...        0 min,  0.000 sec (  0.162%)
 integral evaluation            ...        0 min,  0.020 sec ( 27.481%)
 iterations                     ...        0 min,  0.008 sec ( 11.170%)
 molecular gradient             ...        0 min,  0.043 sec ( 57.377%)
 printout                       ...        0 min,  0.001 sec (  0.755%)

         :::::::::::::::::::::::::::::::::::::::::::::::::::::
         ::                     SUMMARY                     ::
         :::::::::::::::::::::::::::::::::::::::::::::::::::::
         :: total energy             -82.914105840551 Eh    ::
         :: total w/o Gsasa/hb       -82.892070879105 Eh    ::
         :: gradient norm              0.000609344032 Eh/a0 ::
         :: HOMO-LUMO gap              0.324311232885 eV    ::
         ::.................................................::
         :: SCC energy               -83.698434913358 Eh    ::
         :: -> electrostatic           0.486381144570 Eh    ::
         :: -> Gsolv                  -0.130977251302 Eh    ::
         ::    -> Gelec               -0.108942289856 Eh    ::
         ::    -> Gsasa               -0.025021718134 Eh    ::
         ::    -> Ghb                 -0.004637522317 Eh    ::
         ::    -> Gshift               0.007624279005 Eh    ::
         :: repulsion energy           0.809992569927 Eh    ::
         :: dispersion energy         -0.025663497120 Eh    ::
         :: halogen bond corr.         0.000000000000 Eh    ::
         :: add. restraining           0.000000000000 Eh    ::
         :: total charge               0.000000000000 e     ::
         :::::::::::::::::::::::::::::::::::::::::::::::::::::

           -------------------------------------------------
          |                Property Printout                |
           -------------------------------------------------

    * Orbital Energies and Occupations

         #    Occupation            Energy/Eh            Energy/eV
      -------------------------------------------------------------
         1        2.0000           -0.9651223             -26.2623
       ...           ...                  ...                  ...
        55        2.0000           -0.5060850             -13.7713
        56        2.0000           -0.5031664             -13.6919
        57        2.0000           -0.4981748             -13.5560
        58        2.0000           -0.4906441             -13.3511
        59        2.0000           -0.4823716             -13.1260
        60        2.0000           -0.4695179             -12.7762
        61        2.0000           -0.4679693             -12.7341
        62        2.0000           -0.4624978             -12.5852
        63        2.0000           -0.4469369             -12.1618
        64        2.0000           -0.4405805             -11.9888
        65        2.0000           -0.4243202             -11.5463
        66        2.0000           -0.3848928             -10.4735
        67        1.9962           -0.3724258             -10.1342 (HOMO)
        68        0.0038           -0.3605075              -9.8099 (LUMO)
        69                         -0.3108214              -8.4579
        70                         -0.2756230              -7.5001
        71                         -0.2480934              -6.7510
        72                         -0.2394431              -6.5156
        73                         -0.2023360              -5.5058
        74                         -0.1877356              -5.1085
        75                         -0.1737652              -4.7284
        76                         -0.1276849              -3.4745
        77                         -0.1250559              -3.4029
        78                         -0.1232118              -3.3528
       ...                                ...                  ...
       134                          0.7533611              20.5000
      -------------------------------------------------------------
                  HL-Gap            0.0119182 Eh            0.3243 eV
             Fermi-level           -0.3664667 Eh           -9.9721 eV

  Mulliken/CM5 charges         n(s)   n(p)   n(d)
     1C     0.17139  0.05187   0.972  2.857  0.000
     2O    -0.42925 -0.51192   1.688  4.741  0.000
     3C     0.54858  0.61353   0.975  2.476  0.000
     4O    -0.62151 -0.66495   1.734  4.887  0.000
     5C    -0.01905  0.05673   1.039  2.980  0.000
     6N    -0.37323 -0.55852   1.531  3.842  0.000
     7C     0.23159  0.38221   0.999  2.770  0.000
     8C     0.14939  0.18735   1.071  2.780  0.000
     9C    -0.10830 -0.24799   1.020  3.088  0.000
    10C    -0.09576 -0.23381   1.015  3.080  0.000
    11N    -0.31931 -0.67309   1.437  3.883  0.000
    12C     0.47728  0.58789   0.963  2.560  0.000
    13O    -0.55675 -0.61009   1.722  4.835  0.000
    14C     0.33649  0.46162   1.034  2.629  0.000
    15N    -0.17161 -0.28524   1.550  3.622  0.000
    16N    -0.18897 -0.30127   1.544  3.644  0.000
    17C     0.38734  0.49452   1.028  2.585  0.000
    18C    -0.11508 -0.25356   1.019  3.096  0.000
    19O    -0.19616 -0.29215   1.647  4.549  0.000
    20C     0.14914  0.02494   1.020  2.830  0.000
    21N    -0.32632 -0.67328   1.436  3.890  0.000
    22C     0.42933  0.53238   1.011  2.559  0.000
    23O    -0.60383 -0.64146   1.734  4.869  0.000
    24C     0.29009  0.33560   1.033  2.677  0.000
    25O    -0.62767 -0.66581   1.742  4.885  0.000
    26H     0.03637  0.09658   0.964  0.000  0.000
    27H     0.03494  0.09672   0.965  0.000  0.000
    28H     0.03448  0.09616   0.966  0.000  0.000
    29H     0.06085  0.12081   0.939  0.000  0.000
    30H     0.04597  0.10433   0.954  0.000  0.000
    31H     0.05153  0.10614   0.948  0.000  0.000
    32H     0.05150  0.11104   0.949  0.000  0.000
    33H     0.05018  0.10798   0.950  0.000  0.000
    34H     0.04354  0.10208   0.956  0.000  0.000
    35H     0.26392  0.47295   0.736  0.000  0.000
    36H     0.10592  0.16180   0.894  0.000  0.000
    37H     0.10468  0.15925   0.895  0.000  0.000
    38H     0.10531  0.15983   0.895  0.000  0.000
    39H     0.11701  0.18104   0.883  0.000  0.000
    40H     0.11744  0.18143   0.883  0.000  0.000
    41H     0.10262  0.16463   0.897  0.000  0.000
    42H     0.25592  0.46172   0.744  0.000  0.000

Wiberg/Mayer (AO) data.
largest (>0.10) Wiberg bond orders for each atom

 ---------------------------------------------------------------------------
     #   Z sym  total        # sym  WBO       # sym  WBO       # sym  WBO
 ---------------------------------------------------------------------------
     1   6 C    3.897 --    26 H    0.987    28 H    0.981    27 H    0.980
                             2 O    0.923
     2   8 O    2.164 --     3 C    1.054     1 C    0.923     4 O    0.111
     3   6 C    3.851 --     4 O    1.579     5 C    1.108     2 O    1.054
     4   8 O    1.853 --     3 C    1.579     2 O    0.111
     5   6 C    3.912 --    24 C    1.269     6 N    1.157     3 C    1.108
                            25 O    0.129
     6   7 N    3.033 --     7 C    1.638     5 C    1.157
     7   6 C    3.932 --     6 N    1.638    21 N    1.085     8 C    0.979
     8   6 C    3.910 --    10 C    0.993     9 C    0.983     7 C    0.979
                            11 N    0.888
     9   6 C    3.988 --    30 H    0.984    31 H    0.984     8 C    0.983
                            29 H    0.980
    10   6 C    3.990 --     8 C    0.993    34 H    0.985    32 H    0.984
                            33 H    0.982
    11   7 N    3.396 --    12 C    1.319    35 H    0.891     8 C    0.888
                            13 O    0.197
    12   6 C    3.928 --    13 O    1.572    11 N    1.319    14 C    0.965
    13   8 O    1.933 --    12 C    1.572    11 N    0.197
    14   6 C    3.795 --    15 N    1.704    12 C    0.965    19 O    0.885
    15   7 N    3.041 --    14 C    1.704    16 N    1.145
    16   7 N    3.024 --    17 C    1.700    15 N    1.145
    17   6 C    3.802 --    16 N    1.700    18 C    1.043    19 O    0.875
    18   6 C    3.970 --    17 C    1.043    36 H    0.970    37 H    0.951
                            38 H    0.951
    19   8 O    2.654 --    14 C    0.885    17 C    0.875    20 C    0.747
    20   6 C    3.725 --    41 H    0.975    40 H    0.968    39 H    0.968
                            19 O    0.747
    21   7 N    3.416 --    22 C    1.151     7 C    1.085    42 H    0.898
                            23 O    0.135
    22   6 C    3.875 --    23 O    1.587    21 N    1.151    24 C    0.965
    23   8 O    1.867 --    22 C    1.587    21 N    0.135
    24   6 C    3.942 --    25 O    1.527     5 C    1.269    22 C    0.965
    25   8 O    1.832 --    24 C    1.527     5 C    0.129
    26   1 H    1.015 --     1 C    0.987
    27   1 H    1.013 --     1 C    0.980
    28   1 H    1.013 --     1 C    0.981
    29   1 H    1.006 --     9 C    0.980
    30   1 H    1.001 --     9 C    0.984
    31   1 H    1.001 --     9 C    0.984
    32   1 H    1.007 --    10 C    0.984
    33   1 H    1.011 --    10 C    0.982
    34   1 H    1.007 --    10 C    0.985
    35   1 H    0.943 --    11 N    0.891
    36   1 H    0.989 --    18 C    0.970
    37   1 H    0.988 --    18 C    0.951
    38   1 H    0.988 --    18 C    0.951
    39   1 H    1.000 --    20 C    0.968
    40   1 H    0.999 --    20 C    0.968
    41   1 H    0.991 --    20 C    0.975
    42   1 H    0.944 --    21 N    0.898
 ---------------------------------------------------------------------------

Topologies differ in total number of bonds
Writing topology from bond orders to xtbtopo.mol

 dipole moment from electron density (au)
     X       Y       Z   
 -16.0806   1.2331  -3.7258  total (Debye):   42.072

           -------------------------------------------------
          |                Geometry Summary                 |
           -------------------------------------------------

      molecular mass/u    :      351.3152409
   center of mass at/Å    :        0.4322488      -0.2017847       0.3371710
  moments of inertia/u·Å² :        0.1069665E+04   0.5440330E+04   0.5839809E+04
rotational constants/cm⁻¹ :        0.1575974E-01   0.3098641E-02   0.2886675E-02

 * 36 selected distances

     #   Z          #   Z                                           value/Å
     1   6 C        2   8 O                                       1.4218087
     2   8 O        3   6 C                                       1.3548805
     3   6 C        4   8 O                                       1.2250117
     6   7 N        7   6 C                                       1.2781924
     8   6 C        9   6 C                                       1.5336935 (max)
     8   6 C       10   6 C                                       1.5297321
    11   7 N       12   6 C                                       1.3308526
    12   6 C       13   8 O                                       1.2180376
    14   6 C       15   7 N                                       1.2788491
    16   7 N       17   6 C                                       1.2771922
    17   6 C       18   6 C                                       1.4708076
    14   6 C       19   8 O                                       1.3950135
    17   6 C       19   8 O                                       1.4012117
    19   8 O       20   6 C                                       1.4636813
     7   6 C       21   7 N                                       1.3832670
    21   7 N       22   6 C                                       1.3746477
    22   6 C       23   8 O                                       1.2267943
     5   6 C       24   6 C                                       1.4201969
    24   6 C       25   8 O                                       1.2429734
     1   6 C       26   1 H                                       1.0894623
     1   6 C       27   1 H                                       1.0944566
     1   6 C       28   1 H                                       1.0943734
     9   6 C       29   1 H                                       1.0876139
     9   6 C       30   1 H                                       1.0883822
     9   6 C       31   1 H                                       1.0894092
    10   6 C       32   1 H                                       1.0871771
    10   6 C       33   1 H                                       1.0895178
    10   6 C       34   1 H                                       1.0891468
    11   7 N       35   1 H                                       1.0096331
    18   6 C       36   1 H                                       1.0886083
    18   6 C       37   1 H                                       1.0901905
    18   6 C       38   1 H                                       1.0903027
    20   6 C       39   1 H                                       1.0880801
    20   6 C       40   1 H                                       1.0879611
    20   6 C       41   1 H                                       1.0851516
    21   7 N       42   1 H                                       1.0044069 (min)

 * 5 distinct bonds (by element types)

   Z      Z             #   av. dist./Å        max./Å        min./Å
   1 H    6 C          15     1.0893222     1.0944566     1.0851516
   6 C    6 C           4     1.4886075     1.5336935     1.4201969
   1 H    7 N           2     1.0070200     1.0096331     1.0044069
   6 C    7 N           6     1.3205001     1.3832670     1.2771922
   6 C    8 O           9     1.3277125     1.4636813     1.2180376


optimized geometry written to: xtbopt.xyz


           -------------------------------------------------
          | TOTAL ENERGY              -82.914105840551 Eh   |
          | GRADIENT NORM               0.000609344032 Eh/α |
          | HOMO-LUMO GAP               0.324311232885 eV   |
           -------------------------------------------------

------------------------------------------------------------------------
 * finished run on 2023/06/21 at 17:29:42.182     
------------------------------------------------------------------------
 total:
 * wall-time:     0 d,  0 h,  0 min,  8.342 sec
 *  cpu-time:     0 d,  0 h,  0 min,  8.159 sec
 * ratio c/w:     0.978 speedup
 SCF:
 * wall-time:     0 d,  0 h,  0 min,  0.258 sec
 *  cpu-time:     0 d,  0 h,  0 min,  0.217 sec
 * ratio c/w:     0.844 speedup
 ANC optimizer:
 * wall-time:     0 d,  0 h,  0 min,  7.948 sec
 *  cpu-time:     0 d,  0 h,  0 min,  7.909 sec
 * ratio c/w:     0.995 speedup

