      -----------------------------------------------------------      
     |                   =====================                   |     
     |                           x T B                           |     
     |                   =====================                   |     
     |                         S. Grimme                         |     
     |          Mulliken Center for Theoretical Chemistry        |     
     |                    University of Bonn                     |     
      -----------------------------------------------------------      

   * xtb version 6.5.1 (579679a) compiled by 'ehlert@majestix' on 2022-07-11

   xtb is free software: you can redistribute it and/or modify it under
   the terms of the GNU Lesser General Public License as published by
   the Free Software Foundation, either version 3 of the License, or
   (at your option) any later version.
   
   xtb is distributed in the hope that it will be useful,
   but WITHOUT ANY WARRANTY; without even the implied warranty of
   MERCHANTABILITY or FITNESS FOR A PARTICULAR PURPOSE.  See the
   GNU Lesser General Public License for more details.
   
   Cite this work as:
   * C. Bannwarth, E. Caldeweyher, S. Ehlert, A. Hansen, P. Pracht,
     J. Seibert, S. Spicher, S. Grimme, WIREs Comput. Mol. Sci., 2020, 11,
     e01493. DOI: 10.1002/wcms.1493
   
   for GFN2-xTB:
   * C. Bannwarth, S. Ehlert and S. Grimme., J. Chem. Theory Comput., 2019,
     15, 1652-1671. DOI: 10.1021/acs.jctc.8b01176
   for GFN1-xTB:
   * S. Grimme, C. Bannwarth, P. Shushkov, J. Chem. Theory Comput., 2017,
     13, 1989-2009. DOI: 10.1021/acs.jctc.7b00118
   for GFN0-xTB:
   * P. Pracht, E. Caldeweyher, S. Ehlert, S. Grimme, ChemRxiv, 2019, preprint.
     DOI: 10.26434/chemrxiv.8326202.v1
   for GFN-FF:
   * S. Spicher and S. Grimme, Angew. Chem. Int. Ed., 2020, 59, 15665-15673.
     DOI: 10.1002/anie.202004239
   
   for ALPB and GBSA implicit solvation:
   * S. Ehlert, M. Stahn, S. Spicher, S. Grimme, J. Chem. Theory Comput.,
     2021, 17, 4250-4261. DOI: 10.1021/acs.jctc.1c00471
   
   for DFT-D4:
   * E. Caldeweyher, C. Bannwarth and S. Grimme, J. Chem. Phys., 2017,
     147, 034112. DOI: 10.1063/1.4993215
   * E. Caldeweyher, S. Ehlert, A. Hansen, H. Neugebauer, S. Spicher,
     C. Bannwarth and S. Grimme, J. Chem. Phys., 2019, 150, 154122.
     DOI: 10.1063/1.5090222
   * E. Caldeweyher, J.-M. Mewes, S. Ehlert and S. Grimme, Phys. Chem. Chem. Phys.
     2020, 22, 8499-8512. DOI: 10.1039/D0CP00502A
   
   for sTDA-xTB:
   * S. Grimme and C. Bannwarth, J. Chem. Phys., 2016, 145, 054103.
     DOI: 10.1063/1.4959605
   
   in the mass-spec context:
   * V. Asgeirsson, C. Bauer and S. Grimme, Chem. Sci., 2017, 8, 4879.
     DOI: 10.1039/c7sc00601b
   * J. Koopman and S. Grimme, ACS Omega 2019, 4, 12, 15120-15133.
     DOI: 10.1021/acsomega.9b02011
   
   for metadynamics refer to:
   * S. Grimme, J. Chem. Theory Comput., 2019, 155, 2847-2862
     DOI: 10.1021/acs.jctc.9b00143
   
   for SPH calculations refer to:
   * S. Spicher and S. Grimme, J. Chem. Theory Comput., 2021, 17, 1701-1714
     DOI: 10.1021/acs.jctc.0c01306
   
   with help from (in alphabetical order)
   P. Atkinson, C. Bannwarth, F. Bohle, G. Brandenburg, E. Caldeweyher
   M. Checinski, S. Dohm, S. Ehlert, S. Ehrlich, I. Gerasimov, C. Hölzer
   A. Katbashev, J. Koopman, C. Lavigne, S. Lehtola, F. März, M. Müller,
   F. Musil, H. Neugebauer, J. Pisarek, C. Plett, P. Pracht, F. Pultar,
   J. Seibert, P. Shushkov, S. Spicher, M. Stahn, M. Steiner, T. Strunk,
   J. Stückrath, T. Rose, and J. Unsleber
   
 * started run on 2023/06/20 at 15:16:02.071     

           -------------------------------------------------
          |                Calculation Setup                |
           -------------------------------------------------

          program call               : /lustre/hpc/kemi/ree/PhD/git/ReactivityQM/dep/xtb-6.5.1/bin/xtb --gfn 1 /lustre/hpc/kemi/ree/PhD/git/ReactivityQM/calculations/R02/reac01prodE13/conf07/R02_reac01prodE13_conf07_gfn1.xyz --opt --vfukui --chrg -1 --uhf 0 --alpb DMSO
          hostname                   : node315
          coordinate file            : /lustre/hpc/kemi/ree/PhD/git/ReactivityQM/calculations/R02/reac01prodE13/conf07/R02_reac01prodE13_conf07_gfn1.xyz
          omp threads                :                     1

   ID    Z sym.   atoms
    1    6 C      1, 3, 5, 6, 8, 10, 12-15, 17, 19, 22, 23
    2    8 O      2, 4, 7, 9, 18, 24
    3    7 N      11, 16, 20, 21, 25
    4    1 H      26-43

           -------------------------------------------------
          |                 G F N 1 - x T B                 |
           -------------------------------------------------

        Reference                      10.1021/acs.jctc.7b00118
      * Hamiltonian:
        H0-scaling (s, p, d)           1.850000    2.250000    2.000000
        zeta-weighting                 0.000000
      * Dispersion:
        s8                             2.400000
        a1                             0.630000
        a2                             5.000000
        s9                             0.000000
      * Repulsion:
        kExp                           1.500000
        rExp                           1.000000
      * Coulomb:
        alpha                          2.000000
        third order                    atomic
        anisotropic                    false
      * Halogen bond correction:
        rad-scale                      1.300000
        damping                        0.440000

      * Solvation model:               ALPB
        Solvent                        DMSO
        Parameter file                 internal GFN1-xTB/ALPB
        Dielectric constant                4.6680E+01
        Reference state                gsolv [1 M gas/solution]
        Free energy shift                  7.6243E-03 Eh       4.7843E+00 kcal/mol
        Temperature                        2.9815E+02 K
        Density                            1.1000E+00 kg/L
        Solvent mass                       7.8130E+01 g/mol
        Interaction kernel             P16
        Born radius scaling (c1)           1.7672E+00
        Born radii integrator          GBOBC
        Born offset                        0.0000E+00 a0       0.0000E+00 AA
        H-bond correction              true
        Ion screening                  false
        Surface tension                    1.0000E-05 Eh       1.5569E+01 dyn/cm
        Grid points                               230 per atom

          ...................................................
          :                      SETUP                      :
          :.................................................:
          :  # basis functions                 136          :
          :  # atomic orbitals                 136          :
          :  # shells                           86          :
          :  # electrons                       136          :
          :  # halogen bonds                     0          :
          :  max. iterations                   250          :
          :  Hamiltonian                  GFN1-xTB          :
          :  restarted?                      false          :
          :  GBSA solvation                   true          :
          :  PC potential                    false          :
          :  electronic temp.          300.0000000     K    :
          :  accuracy                    1.0000000          :
          :  -> integral cutoff          0.2500000E+02      :
          :  -> integral neglect         0.1000000E-07      :
          :  -> SCF convergence          0.1000000E-05 Eh   :
          :  -> wf. convergence          0.2000000E-04 e    :
          :  Broyden damping             0.4000000          :
          ...................................................

 iter      E             dE          RMSdq      gap      omega  full diag
   1    -84.3214031 -0.843214E+02  0.857E+00    0.50       0.0  T
   2    -84.2235410  0.978620E-01  0.531E+00    0.60       1.0  T
   3    -83.0717794  0.115176E+01  0.396E+00    0.13       1.0  T
   4    -84.4486344 -0.137685E+01  0.143E+00    1.68       1.0  T
   5    -84.5356353 -0.870009E-01  0.762E-01    1.09       1.0  T
   6    -84.5475585 -0.119233E-01  0.429E-01    0.50       1.0  T
   7    -84.2739569  0.273602E+00  0.142E+00    0.25       1.0  T
   8    -84.5479993 -0.274042E+00  0.419E-01    0.53       1.0  T
   9    -84.5496971 -0.169783E-02  0.372E-01    0.39       1.0  T
  10    -84.5522263 -0.252915E-02  0.321E-01    0.24       1.0  T
  11    -84.5656304 -0.134041E-01  0.469E-02    0.09       1.0  T
  12    -84.5655001  0.130212E-03  0.507E-02    0.07       1.0  T
  13    -84.5649510  0.549179E-03  0.806E-02    0.10       1.0  T
  14    -84.5659048 -0.953795E-03  0.242E-03    0.08       6.3  T
  15    -84.5658945  0.102708E-04  0.865E-03    0.08       1.8  T
  16    -84.5659052 -0.107288E-04  0.150E-03    0.08      10.2  T
  17    -84.5659042  0.107280E-05  0.308E-03    0.08       5.0  T
  18    -84.5659055 -0.132010E-05  0.720E-04    0.08      21.2  T
  19    -84.5659055 -0.657239E-07  0.287E-04    0.08      53.1  T
  20    -84.5659055 -0.116451E-07  0.656E-05    0.08     232.5  T
  21    -84.5659055 -0.585516E-09  0.191E-05    0.08     797.1  T

   *** convergence criteria satisfied after 21 iterations ***

         #    Occupation            Energy/Eh            Energy/eV
      -------------------------------------------------------------
         1        2.0000           -0.8289603             -22.5572
       ...           ...                  ...                  ...
        62        2.0000           -0.4251078             -11.5678
        63        2.0000           -0.4166835             -11.3385
        64        2.0000           -0.4151018             -11.2955
        65        2.0000           -0.4114186             -11.1953
        66        2.0000           -0.3953964             -10.7593
        67        2.0000           -0.3879183             -10.5558
        68        1.6512           -0.2885789              -7.8526 (HOMO)
        69        0.3488           -0.2856247              -7.7722 (LUMO)
        70                         -0.2395359              -6.5181
        71                         -0.2329247              -6.3382
        72                         -0.1944892              -5.2923
        73                         -0.1686620              -4.5895
       ...                                ...                  ...
       136                          0.7154503              19.4684
      -------------------------------------------------------------
                  HL-Gap            0.0029542 Eh            0.0804 eV
             Fermi-level           -0.2871018 Eh           -7.8124 eV

 SCC (total)                   0 d,  0 h,  0 min,  0.195 sec
 SCC setup                      ...        0 min,  0.002 sec (  1.271%)
 Dispersion                     ...        0 min,  0.000 sec (  0.217%)
 classical contributions        ...        0 min,  0.000 sec (  0.077%)
 integral evaluation            ...        0 min,  0.035 sec ( 17.750%)
 iterations                     ...        0 min,  0.073 sec ( 37.349%)
 molecular gradient             ...        0 min,  0.084 sec ( 42.833%)
 printout                       ...        0 min,  0.001 sec (  0.481%)

         :::::::::::::::::::::::::::::::::::::::::::::::::::::
         ::                     SUMMARY                     ::
         :::::::::::::::::::::::::::::::::::::::::::::::::::::
         :: total energy             -83.824432687397 Eh    ::
         :: total w/o Gsasa/hb       -83.800864653128 Eh    ::
         :: gradient norm              0.164678685157 Eh/a0 ::
         :: HOMO-LUMO gap              0.080386917491 eV    ::
         ::.................................................::
         :: SCC energy               -84.565905548533 Eh    ::
         :: -> electrostatic           0.407957473587 Eh    ::
         :: -> Gsolv                  -0.100047615787 Eh    ::
         ::    -> Gelec               -0.076479581517 Eh    ::
         ::    -> Gsasa               -0.025739222760 Eh    ::
         ::    -> Ghb                 -0.005453090513 Eh    ::
         ::    -> Gshift               0.007624279005 Eh    ::
         :: repulsion energy           0.766739451450 Eh    ::
         :: dispersion energy         -0.025266590314 Eh    ::
         :: halogen bond corr.         0.000000000000 Eh    ::
         :: add. restraining           0.000000000000 Eh    ::
         :: total charge              -1.000000000000 e     ::
         :::::::::::::::::::::::::::::::::::::::::::::::::::::

      ----------------------------------------------------------- 
     |                   =====================                   |
     |                        A N C O P T                        |
     |                   =====================                   |
     |               Approximate Normal Coordinate               |
     |                Rational Function Optimizer                |
      ----------------------------------------------------------- 

          ...................................................
          :                      SETUP                      :
          :.................................................:
          :   optimization level            normal          :
          :   max. optcycles                   200          :
          :   ANC micro-cycles                  20          :
          :   degrees of freedom               123          :
          :.................................................:
          :   RF solver                   davidson          :
          :   write xtbopt.log                true          :
          :   linear?                        false          :
          :   energy convergence         0.5000000E-05 Eh   :
          :   grad. convergence          0.1000000E-02 Eh/α :
          :   maximium RF displ.         1.0000000          :
          :   Hlow (freq-cutoff)         0.1000000E-01      :
          :   Hmax (freq-cutoff)         5.0000000          :
          :   S6 in model hess.         20.0000000          :
          ...................................................

generating ANC from model Hessian ...
Using Lindh-Hessian (1995)
 Shifting diagonal of input Hessian by   9.849500444530505E-003
 Lowest  eigenvalues of input Hessian
    0.000000    0.000000    0.000000    0.000000    0.000000    0.000000
    0.010000    0.010139    0.010679    0.010975    0.011493    0.012035
    0.012429    0.013129    0.013757    0.014251    0.015059    0.016033
 Highest eigenvalues
    1.999541    2.068797    2.097341    2.183103    2.256829    2.324538
 

........................................................................
.............................. CYCLE    1 ..............................
........................................................................
   1    -84.5659055 -0.845659E+02  0.340E-06    0.08       0.0  T
   2    -84.5659055  0.260599E-09  0.419E-05    0.08     363.9  T
   3    -84.5659055 -0.262162E-09  0.545E-08    0.08  100000.0  T
     SCC iter.                  ...        0 min,  0.011 sec
     gradient                   ...        0 min,  0.083 sec
 * total energy  :   -83.8244327 Eh     change       -0.5468337E-10 Eh
   gradient norm :     0.1646806 Eh/α   predicted     0.0000000E+00 (-100.00%)
   displ. norm   :     0.3490804 α      lambda       -0.2264071E-01
   maximum displ.:     0.1153227 α      in ANC's #32, #9, #7, ...

........................................................................
.............................. CYCLE    2 ..............................
........................................................................
   1    -84.5718532 -0.845719E+02  0.297E-01    0.25       0.0  T
   2    -84.2557182  0.316135E+00  0.153E+00    0.52       1.0  T
   3    -84.5785110 -0.322793E+00  0.186E-01    0.15       1.0  T
   4    -84.5826277 -0.411670E-02  0.575E-02    0.10       1.0  T
   5    -84.5829270 -0.299304E-03  0.288E-02    0.08       1.0  T
   6    -84.5827567  0.170311E-03  0.455E-02    0.10       1.0  T
   7    -84.5830396 -0.282954E-03  0.103E-02    0.09       1.5  T
   8    -84.5830515 -0.118200E-04  0.518E-03    0.09       2.9  T
   9    -84.5830536 -0.216765E-05  0.350E-03    0.09       4.4  T
  10    -84.5830554 -0.181225E-05  0.180E-04    0.09      84.7  T
  11    -84.5830554 -0.205468E-08  0.125E-04    0.09     121.7  T
  12    -84.5830554 -0.219976E-08  0.323E-05    0.09     472.0  T
     SCC iter.                  ...        0 min,  0.043 sec
     gradient                   ...        0 min,  0.083 sec
 * total energy  :   -83.8411038 Eh     change       -0.1667113E-01 Eh
   gradient norm :     0.0797298 Eh/α   predicted    -0.1271987E-01 ( -23.70%)
   displ. norm   :     0.3542054 α      lambda       -0.1052918E-01
   maximum displ.:     0.1314582 α      in ANC's #9, #25, #7, ...

........................................................................
.............................. CYCLE    3 ..............................
........................................................................
   1    -84.5896429 -0.845896E+02  0.266E-01    0.31       0.0  T
   2    -84.2525971  0.337046E+00  0.156E+00    0.40       1.0  T
   3    -84.5923488 -0.339752E+00  0.215E-01    0.21       1.0  T
   4    -84.5950067 -0.265788E-02  0.155E-01    0.16       1.0  T
   5    -84.5983821 -0.337542E-02  0.844E-03    0.10       1.8  T
   6    -84.5983813  0.845752E-06  0.713E-03    0.10       2.1  T
   7    -84.5983661  0.152271E-04  0.123E-02    0.10       1.2  T
   8    -84.5983790 -0.129370E-04  0.770E-03    0.10       2.0  T
   9    -84.5983872 -0.819703E-05  0.188E-03    0.10       8.1  T
  10    -84.5983873 -0.102673E-06  0.167E-03    0.10       9.1  T
  11    -84.5983877 -0.398417E-06  0.318E-04    0.10      48.0  T
  12    -84.5983877 -0.141012E-07  0.720E-05    0.10     211.7  T
  13    -84.5983877 -0.756003E-09  0.563E-06    0.10    2708.6  T
     SCC iter.                  ...        0 min,  0.045 sec
     gradient                   ...        0 min,  0.083 sec
 * total energy  :   -83.8473359 Eh     change       -0.6232039E-02 Eh
   gradient norm :     0.0219242 Eh/α   predicted    -0.5927066E-02 (  -4.89%)
   displ. norm   :     0.2661237 α      lambda       -0.1761151E-02
   maximum displ.:     0.1455920 α      in ANC's #9, #7, #25, ...

........................................................................
.............................. CYCLE    4 ..............................
........................................................................
   1    -84.5953460 -0.845953E+02  0.165E-01    0.18       0.0  T
   2    -84.2543063  0.341040E+00  0.155E+00    0.28       1.0  T
   3    -84.5988408 -0.344534E+00  0.603E-02    0.12       1.0  T
   4    -84.5993053 -0.464494E-03  0.180E-02    0.11       1.0  T
   5    -84.5993285 -0.232599E-04  0.140E-02    0.10       1.1  T
   6    -84.5993513 -0.227152E-04  0.533E-03    0.10       2.9  T
   7    -84.5993549 -0.367444E-05  0.431E-04    0.10      35.4  T
   8    -84.5993550 -0.157775E-07  0.151E-04    0.10     101.1  T
   9    -84.5993550 -0.817622E-09  0.105E-04    0.10     145.7  T
     SCC iter.                  ...        0 min,  0.031 sec
     gradient                   ...        0 min,  0.082 sec
 * total energy  :   -83.8486133 Eh     change       -0.1277417E-02 Eh
   gradient norm :     0.0156428 Eh/α   predicted    -0.9429549E-03 ( -26.18%)
   displ. norm   :     0.2823792 α      lambda       -0.1074540E-02
   maximum displ.:     0.1595245 α      in ANC's #9, #7, #19, ...

........................................................................
.............................. CYCLE    5 ..............................
........................................................................
   1    -84.5974190 -0.845974E+02  0.132E-01    0.17       0.0  T
   2    -84.2621732  0.335246E+00  0.152E+00    0.21       1.0  T
   3    -84.5996872 -0.337514E+00  0.506E-02    0.12       1.0  T
   4    -84.5999774 -0.290148E-03  0.212E-02    0.11       1.0  T
   5    -84.6000388 -0.614276E-04  0.700E-03    0.11       2.2  T
   6    -84.6000342  0.458416E-05  0.849E-03    0.11       1.8  T
   7    -84.6000434 -0.912676E-05  0.274E-03    0.11       5.6  T
   8    -84.6000444 -0.106683E-05  0.301E-04    0.11      50.7  T
   9    -84.6000444 -0.102721E-07  0.103E-04    0.11     148.1  T
  10    -84.6000444 -0.950379E-09  0.582E-05    0.11     262.0  T
     SCC iter.                  ...        0 min,  0.034 sec
     gradient                   ...        0 min,  0.082 sec
 * total energy  :   -83.8493263 Eh     change       -0.7130662E-03 Eh
   gradient norm :     0.0076857 Eh/α   predicted    -0.5801209E-03 ( -18.64%)
   displ. norm   :     0.1982862 α      lambda       -0.3650165E-03
   maximum displ.:     0.1071140 α      in ANC's #9, #3, #19, ...

........................................................................
.............................. CYCLE    6 ..............................
........................................................................
   1    -84.6003930 -0.846004E+02  0.634E-02    0.13       0.0  T
   2    -84.4430547  0.157338E+00  0.103E+00    0.05       1.0  T
   3    -84.6009103 -0.157856E+00  0.249E-02    0.12       1.0  T
   4    -84.6009634 -0.531185E-04  0.148E-02    0.11       1.0  T
   5    -84.6009923 -0.289001E-04  0.483E-03    0.11       3.2  T
   6    -84.6009946 -0.223104E-05  0.226E-03    0.11       6.7  T
   7    -84.6009950 -0.388311E-06  0.155E-03    0.11       9.9  T
   8    -84.6009953 -0.320435E-06  0.465E-04    0.11      32.8  T
   9    -84.6009953 -0.318226E-07  0.126E-05    0.11    1210.3  T
  10    -84.6009953  0.498517E-10  0.209E-05    0.11     730.3  T
     SCC iter.                  ...        0 min,  0.034 sec
     gradient                   ...        0 min,  0.082 sec
 * total energy  :   -83.8495861 Eh     change       -0.2597925E-03 Eh
   gradient norm :     0.0059490 Eh/α   predicted    -0.1896849E-03 ( -26.99%)
   displ. norm   :     0.2049142 α      lambda       -0.2521413E-03
   maximum displ.:     0.1041210 α      in ANC's #3, #9, #19, ...

........................................................................
.............................. CYCLE    7 ..............................
........................................................................
   1    -84.6016383 -0.846016E+02  0.378E-02    0.12       0.0  T
   2    -84.5607982  0.408401E-01  0.525E-01    0.02       1.0  T
   3    -84.6018265 -0.410284E-01  0.126E-02    0.11       1.2  T
   4    -84.6018428 -0.162956E-04  0.604E-03    0.11       2.5  T
   5    -84.6018478 -0.497400E-05  0.105E-03    0.11      14.6  T
   6    -84.6018475  0.275265E-06  0.144E-03    0.11      10.6  T
   7    -84.6018478 -0.219255E-06  0.712E-04    0.11      21.4  T
   8    -84.6018478 -0.701819E-07  0.180E-04    0.11      84.7  T
   9    -84.6018478 -0.444129E-08  0.439E-05    0.11     347.6  T
     SCC iter.                  ...        0 min,  0.033 sec
     gradient                   ...        0 min,  0.082 sec
 * total energy  :   -83.8497737 Eh     change       -0.1875611E-03 Eh
   gradient norm :     0.0066589 Eh/α   predicted    -0.1313650E-03 ( -29.96%)
   displ. norm   :     0.2445816 α      lambda       -0.2485958E-03
   maximum displ.:     0.1451817 α      in ANC's #3, #19, #9, ...

........................................................................
.............................. CYCLE    8 ..............................
........................................................................
   1    -84.6020292 -0.846020E+02  0.384E-02    0.13       0.0  T
   2    -84.5629730  0.390562E-01  0.514E-01    0.02       1.0  T
   3    -84.6022067 -0.392337E-01  0.151E-02    0.12       1.0  T
   4    -84.6022388 -0.321788E-04  0.346E-03    0.11       4.4  T
   5    -84.6022395 -0.689503E-06  0.263E-03    0.11       5.8  T
   6    -84.6022376  0.196486E-05  0.420E-03    0.11       3.6  T
   7    -84.6022397 -0.208678E-05  0.184E-03    0.11       8.3  T
   8    -84.6022401 -0.470549E-06  0.414E-04    0.11      36.9  T
   9    -84.6022401 -0.241487E-07  0.482E-05    0.11     316.3  T
  10    -84.6022401 -0.323510E-09  0.148E-05    0.11    1033.3  T
     SCC iter.                  ...        0 min,  0.035 sec
     gradient                   ...        0 min,  0.082 sec
 * total energy  :   -83.8499688 Eh     change       -0.1951375E-03 Eh
   gradient norm :     0.0082050 Eh/α   predicted    -0.1317375E-03 ( -32.49%)
   displ. norm   :     0.3240926 α      lambda       -0.3296051E-03
   maximum displ.:     0.2095446 α      in ANC's #3, #4, #19, ...

........................................................................
.............................. CYCLE    9 ..............................
........................................................................
   1    -84.6013155 -0.846013E+02  0.650E-02    0.14       0.0  T
   2    -84.4629430  0.138373E+00  0.966E-01    0.04       1.0  T
   3    -84.6017136 -0.138771E+00  0.356E-02    0.13       1.0  T
   4    -84.6018886 -0.174996E-03  0.110E-02    0.12       1.4  T
   5    -84.6019050 -0.163849E-04  0.472E-03    0.11       3.2  T
   6    -84.6018828  0.221383E-04  0.128E-02    0.11       1.2  T
   7    -84.6018996 -0.167761E-04  0.690E-03    0.11       2.2  T
   8    -84.6019062 -0.660058E-05  0.153E-03    0.11      10.0  T
   9    -84.6019065 -0.313095E-06  0.372E-04    0.11      41.0  T
  10    -84.6019065 -0.852668E-08  0.268E-04    0.11      56.9  T
  11    -84.6019065 -0.909391E-08  0.918E-05    0.11     166.1  T
  12    -84.6019065 -0.112641E-08  0.238E-05    0.11     640.3  T
     SCC iter.                  ...        0 min,  0.041 sec
     gradient                   ...        0 min,  0.082 sec
 * total energy  :   -83.8502245 Eh     change       -0.2556521E-03 Eh
   gradient norm :     0.0116543 Eh/α   predicted    -0.1821256E-03 ( -28.76%)
   displ. norm   :     0.3492502 α      lambda       -0.4167948E-03
   maximum displ.:     0.2448100 α      in ANC's #3, #4, #8, ...

........................................................................
.............................. CYCLE   10 ..............................
........................................................................
   1    -84.6003146 -0.846003E+02  0.966E-02    0.16       0.0  T
   2    -84.3450970  0.255218E+00  0.132E+00    0.09       1.0  T
   3    -84.6010112 -0.255914E+00  0.617E-02    0.14       1.0  T
   4    -84.6014771 -0.465889E-03  0.265E-02    0.13       1.0  T
   5    -84.6015865 -0.109381E-03  0.501E-03    0.12       3.0  T
   6    -84.6015131  0.733190E-04  0.225E-02    0.11       1.0  T
   7    -84.6015683 -0.551222E-04  0.114E-02    0.11       1.3  T
   8    -84.6015864 -0.181172E-04  0.222E-03    0.12       6.9  T
   9    -84.6015869 -0.536855E-06  0.106E-03    0.12      14.4  T
  10    -84.6015870 -0.117202E-06  0.541E-04    0.12      28.2  T
  11    -84.6015871 -0.398476E-07  0.124E-04    0.12     123.5  T
  12    -84.6015871 -0.196729E-08  0.373E-05    0.12     409.2  T
     SCC iter.                  ...        0 min,  0.040 sec
     gradient                   ...        0 min,  0.082 sec
 * total energy  :   -83.8505444 Eh     change       -0.3199661E-03 Eh
   gradient norm :     0.0142239 Eh/α   predicted    -0.2338176E-03 ( -26.92%)
   displ. norm   :     0.3353313 α      lambda       -0.5388053E-03
   maximum displ.:     0.2428806 α      in ANC's #3, #4, #7, ...

........................................................................
.............................. CYCLE   11 ..............................
........................................................................
   1    -84.6005956 -0.846006E+02  0.118E-01    0.19       0.0  T
   2    -84.3064402  0.294155E+00  0.142E+00    0.12       1.0  T
   3    -84.6014043 -0.294964E+00  0.828E-02    0.17       1.0  T
   4    -84.6020865 -0.682169E-03  0.468E-02    0.15       1.0  T
   5    -84.6024134 -0.326935E-03  0.859E-03    0.13       1.8  T
   6    -84.6023108  0.102607E-03  0.280E-02    0.12       1.0  T
   7    -84.6023990 -0.881722E-04  0.133E-02    0.12       1.1  T
   8    -84.6024235 -0.244500E-04  0.269E-03    0.12       5.7  T
   9    -84.6024241 -0.658942E-06  0.158E-03    0.12       9.6  T
  10    -84.6024244 -0.267277E-06  0.785E-04    0.12      19.4  T
  11    -84.6024245 -0.872115E-07  0.845E-05    0.12     180.5  T
  12    -84.6024245 -0.102830E-09  0.784E-05    0.12     194.5  T
     SCC iter.                  ...        0 min,  0.041 sec
     gradient                   ...        0 min,  0.082 sec
 * total energy  :   -83.8509369 Eh     change       -0.3924070E-03 Eh
   gradient norm :     0.0130916 Eh/α   predicted    -0.2996999E-03 ( -23.63%)
   displ. norm   :     0.3145301 α      lambda       -0.4824291E-03
   maximum displ.:     0.2220256 α      in ANC's #3, #4, #8, ...

........................................................................
.............................. CYCLE   12 ..............................
........................................................................
   1    -84.5994231 -0.845994E+02  0.115E-01    0.22       0.0  T
   2    -84.3394437  0.259979E+00  0.133E+00    0.09       1.0  T
   3    -84.6001382 -0.260695E+00  0.838E-02    0.19       1.0  T
   4    -84.6007008 -0.562548E-03  0.552E-02    0.17       1.0  T
   5    -84.6011286 -0.427899E-03  0.135E-02    0.14       1.1  T
   6    -84.6010579  0.707225E-04  0.261E-02    0.12       1.0  T
   7    -84.6011342 -0.763164E-04  0.124E-02    0.13       1.2  T
   8    -84.6011552 -0.209735E-04  0.263E-03    0.13       5.8  T
   9    -84.6011559 -0.686632E-06  0.142E-03    0.13      10.7  T
  10    -84.6011561 -0.154386E-06  0.957E-04    0.13      15.9  T
  11    -84.6011562 -0.117790E-06  0.296E-04    0.13      51.5  T
  12    -84.6011562 -0.113760E-07  0.820E-05    0.13     185.9  T
  13    -84.6011562 -0.665480E-09  0.444E-05    0.13     343.7  T
     SCC iter.                  ...        0 min,  0.044 sec
     gradient                   ...        0 min,  0.083 sec
 * total energy  :   -83.8512575 Eh     change       -0.3206077E-03 Eh
   gradient norm :     0.0133070 Eh/α   predicted    -0.2650808E-03 ( -17.32%)
   displ. norm   :     0.2809074 α      lambda       -0.6422412E-03
   maximum displ.:     0.1305899 α      in ANC's #9, #6, #19, ...

........................................................................
.............................. CYCLE   13 ..............................
........................................................................
   1    -84.6062363 -0.846062E+02  0.879E-02    0.20       0.0  T
   2    -84.4579938  0.148242E+00  0.101E+00    0.03       1.0  T
   3    -84.6066547 -0.148661E+00  0.640E-02    0.18       1.0  T
   4    -84.6069213 -0.266549E-03  0.465E-02    0.17       1.0  T
   5    -84.6071097 -0.188439E-03  0.277E-02    0.15       1.0  T
   6    -84.6072127 -0.102941E-03  0.644E-03    0.14       2.4  T
   7    -84.6072180 -0.534458E-05  0.108E-03    0.14      14.1  T
   8    -84.6072181 -0.881907E-07  0.555E-04    0.14      27.5  T
   9    -84.6072181  0.522348E-09  0.529E-04    0.14      28.8  T
  10    -84.6072181 -0.274616E-07  0.279E-04    0.14      54.6  T
  11    -84.6072181 -0.771021E-08  0.146E-04    0.14     104.3  T
  12    -84.6072181 -0.253610E-08  0.545E-05    0.14     279.9  T
     SCC iter.                  ...        0 min,  0.041 sec
     gradient                   ...        0 min,  0.082 sec
 * total energy  :   -83.8512633 Eh     change       -0.5802816E-05 Eh
   gradient norm :     0.0210140 Eh/α   predicted    -0.3464666E-03 (5870.66%)
   displ. norm   :     0.1355865 α      lambda       -0.5771493E-03
   maximum displ.:     0.0670915 α      in ANC's #3, #9, #4, ...

........................................................................
.............................. CYCLE   14 ..............................
........................................................................
   1    -84.6033797 -0.846034E+02  0.219E-02    0.15       0.0  T
   2    -84.6022776  0.110211E-02  0.907E-02    0.11       1.0  T
   3    -84.6034109 -0.113331E-02  0.101E-02    0.14       1.5  T
   4    -84.6034102  0.771719E-06  0.716E-03    0.14       2.1  T
   5    -84.6034139 -0.372850E-05  0.236E-03    0.14       6.5  T
   6    -84.6034145 -0.562572E-06  0.723E-04    0.14      21.1  T
   7    -84.6034145 -0.567940E-07  0.208E-04    0.14      73.2  T
   8    -84.6034145 -0.464095E-08  0.560E-05    0.14     272.3  T
   9    -84.6034145 -0.372381E-09  0.123E-05    0.14    1243.1  T
     SCC iter.                  ...        0 min,  0.031 sec
     gradient                   ...        0 min,  0.082 sec
 * total energy  :   -83.8515725 Eh     change       -0.3092079E-03 Eh
   gradient norm :     0.0051611 Eh/α   predicted    -0.2938800E-03 (  -4.96%)
   displ. norm   :     0.0484939 α      lambda       -0.7015987E-04
   maximum displ.:     0.0261725 α      in ANC's #7, #5, #9, ...

........................................................................
.............................. CYCLE   15 ..............................
........................................................................
   1    -84.6037205 -0.846037E+02  0.226E-02    0.13       0.0  T
   2    -84.6029938  0.726735E-03  0.785E-02    0.19       1.0  T
   3    -84.6037759 -0.782166E-03  0.132E-02    0.15       1.2  T
   4    -84.6037954 -0.194756E-04  0.358E-03    0.14       4.3  T
   5    -84.6037962 -0.804060E-06  0.135E-03    0.14      11.3  T
   6    -84.6037963 -0.621112E-07  0.130E-03    0.14      11.8  T
   7    -84.6037965 -0.230216E-06  0.139E-04    0.14     110.0  T
   8    -84.6037965 -0.241455E-08  0.244E-05    0.14     625.2  T
     SCC iter.                  ...        0 min,  0.027 sec
     gradient                   ...        0 min,  0.082 sec
 * total energy  :   -83.8516268 Eh     change       -0.5430658E-04 Eh
   gradient norm :     0.0030004 Eh/α   predicted    -0.3516367E-04 ( -35.25%)
   displ. norm   :     0.1482871 α      lambda       -0.1001257E-03
   maximum displ.:     0.0854817 α      in ANC's #3, #5, #6, ...

........................................................................
.............................. CYCLE   16 ..............................
........................................................................
   1    -84.6044725 -0.846045E+02  0.114E-02    0.15       0.0  T
   2    -84.6042090  0.263461E-03  0.439E-02    0.12       1.0  T
   3    -84.6044767 -0.267670E-03  0.803E-03    0.15       1.9  T
   4    -84.6044837 -0.704994E-05  0.255E-03    0.14       6.0  T
   5    -84.6044842 -0.422195E-06  0.109E-03    0.14      14.0  T
   6    -84.6044843 -0.105405E-06  0.188E-04    0.14      81.0  T
   7    -84.6044843 -0.387834E-08  0.496E-05    0.14     307.2  T
     SCC iter.                  ...        0 min,  0.024 sec
     gradient                   ...        0 min,  0.082 sec
 * total energy  :   -83.8516944 Eh     change       -0.6766829E-04 Eh
   gradient norm :     0.0032578 Eh/α   predicted    -0.5116672E-04 ( -24.39%)
   displ. norm   :     0.1366080 α      lambda       -0.5503865E-04
   maximum displ.:     0.0783400 α      in ANC's #3, #5, #6, ...

........................................................................
.............................. CYCLE   17 ..............................
........................................................................
   1    -84.6049684 -0.846050E+02  0.126E-02    0.15       0.0  T
   2    -84.6044774  0.490989E-03  0.600E-02    0.12       1.0  T
   3    -84.6049835 -0.506062E-03  0.538E-03    0.15       2.8  T
   4    -84.6049870 -0.352944E-05  0.103E-03    0.14      14.8  T
   5    -84.6049870 -0.615830E-07  0.493E-04    0.14      30.9  T
   6    -84.6049870  0.158941E-07  0.361E-04    0.14      42.2  T
   7    -84.6049871 -0.181871E-07  0.283E-05    0.14     538.7  T
   8    -84.6049871  0.414957E-11  0.144E-05    0.14    1055.5  T
     SCC iter.                  ...        0 min,  0.027 sec
     gradient                   ...        0 min,  0.082 sec
 * total energy  :   -83.8517377 Eh     change       -0.4330005E-04 Eh
   gradient norm :     0.0039097 Eh/α   predicted    -0.2803668E-04 ( -35.25%)
   displ. norm   :     0.2275834 α      lambda       -0.8312544E-04
   maximum displ.:     0.1278526 α      in ANC's #3, #5, #6, ...

........................................................................
.............................. CYCLE   18 ..............................
........................................................................
   1    -84.6051661 -0.846052E+02  0.193E-02    0.15       0.0  T
   2    -84.6037629  0.140321E-02  0.101E-01    0.11       1.0  T
   3    -84.6052036 -0.144072E-02  0.775E-03    0.15       2.0  T
   4    -84.6052116 -0.794551E-05  0.121E-03    0.14      12.6  T
   5    -84.6052114  0.191668E-06  0.160E-03    0.14       9.5  T
   6    -84.6052114 -0.220381E-07  0.120E-03    0.14      12.8  T
   7    -84.6052116 -0.192595E-06  0.205E-04    0.14      74.5  T
   8    -84.6052116 -0.517807E-08  0.182E-05    0.14     840.0  T
   9    -84.6052116 -0.396483E-11  0.691E-06    0.14    2208.5  T
     SCC iter.                  ...        0 min,  0.031 sec
     gradient                   ...        0 min,  0.082 sec
 * total energy  :   -83.8518005 Eh     change       -0.6275967E-04 Eh
   gradient norm :     0.0046026 Eh/α   predicted    -0.4371856E-04 ( -30.34%)
   displ. norm   :     0.2625420 α      lambda       -0.8753001E-04
   maximum displ.:     0.1491663 α      in ANC's #3, #5, #6, ...

........................................................................
.............................. CYCLE   19 ..............................
........................................................................
   1    -84.6049064 -0.846049E+02  0.148E-02    0.15       0.0  T
   2    -84.6043517  0.554758E-03  0.648E-02    0.12       1.0  T
   3    -84.6049249 -0.573260E-03  0.653E-03    0.15       2.3  T
   4    -84.6049304 -0.551522E-05  0.189E-03    0.15       8.1  T
   5    -84.6049302  0.236509E-06  0.202E-03    0.14       7.6  T
   6    -84.6049305 -0.329888E-06  0.746E-04    0.15      20.5  T
   7    -84.6049306 -0.751196E-07  0.812E-05    0.15     187.7  T
   8    -84.6049306 -0.550614E-09  0.189E-05    0.15     808.5  T
     SCC iter.                  ...        0 min,  0.029 sec
     gradient                   ...        0 min,  0.083 sec
 * total energy  :   -83.8518640 Eh     change       -0.6351481E-04 Eh
   gradient norm :     0.0048680 Eh/α   predicted    -0.4678297E-04 ( -26.34%)
   displ. norm   :     0.1924696 α      lambda       -0.7321546E-04
   maximum displ.:     0.1085166 α      in ANC's #5, #3, #2, ...

........................................................................
.............................. CYCLE   20 ..............................
........................................................................
   1    -84.6052586 -0.846053E+02  0.459E-03    0.14       0.0  T
   2    -84.6052448  0.138083E-04  0.101E-02    0.15       1.5  T
   3    -84.6052577 -0.129592E-04  0.437E-03    0.14       3.5  T
   4    -84.6052595 -0.179250E-05  0.169E-03    0.14       9.0  T
   5    -84.6052598 -0.229358E-06  0.661E-04    0.14      23.1  T
   6    -84.6052598 -0.377051E-07  0.151E-04    0.15     101.0  T
   7    -84.6052598 -0.203424E-08  0.186E-05    0.15     820.6  T
     SCC iter.                  ...        0 min,  0.024 sec
     gradient                   ...        0 min,  0.082 sec
 * total energy  :   -83.8519176 Eh     change       -0.5359238E-04 Eh
   gradient norm :     0.0042405 Eh/α   predicted    -0.3796423E-04 ( -29.16%)
   displ. norm   :     0.1627509 α      lambda       -0.6760861E-04
   maximum displ.:     0.0921876 α      in ANC's #5, #3, #2, ...
 * RMSD in coord.:     0.4827664 α      energy gain  -0.2748493E-01 Eh

generating ANC from model Hessian ...
Using Lindh-Hessian (1995)
 Shifting diagonal of input Hessian by   9.835315090578729E-003
 Lowest  eigenvalues of input Hessian
    0.000000    0.000000    0.000000    0.000000    0.000000    0.000000
    0.010000    0.010162    0.010716    0.010929    0.011484    0.012249
    0.012562    0.013593    0.014029    0.014520    0.015374    0.016629
 Highest eigenvalues
    2.035360    2.079403    2.123792    2.132770    2.265755    2.404142
 

........................................................................
.............................. CYCLE   21 ..............................
........................................................................
   1    -84.6054715 -0.846055E+02  0.721E-03    0.14       0.0  T
   2    -84.6053938  0.777487E-04  0.244E-02    0.16       1.0  T
   3    -84.6054769 -0.831041E-04  0.202E-03    0.14       7.5  T
   4    -84.6054771 -0.203897E-06  0.922E-04    0.14      16.5  T
   5    -84.6054771  0.227509E-07  0.717E-04    0.14      21.3  T
   6    -84.6054771 -0.555750E-07  0.730E-05    0.14     208.8  T
   7    -84.6054771 -0.182965E-09  0.198E-05    0.14     769.9  T
     SCC iter.                  ...        0 min,  0.028 sec
     gradient                   ...        0 min,  0.082 sec
 * total energy  :   -83.8519691 Eh     change       -0.5145900E-04 Eh
   gradient norm :     0.0032608 Eh/α   predicted     0.0000000E+00 (-100.00%)
   displ. norm   :     0.0345618 α      lambda       -0.2986244E-04
   maximum displ.:     0.0199068 α      in ANC's #7, #5, #19, ...

........................................................................
.............................. CYCLE   22 ..............................
........................................................................
   1    -84.6057120 -0.846057E+02  0.462E-03    0.14       0.0  T
   2    -84.6056760  0.360093E-04  0.171E-02    0.15       1.0  T
   3    -84.6057146 -0.385481E-04  0.114E-03    0.14      13.4  T
   4    -84.6057143  0.227355E-06  0.162E-03    0.15       9.4  T
   5    -84.6057146 -0.251297E-06  0.551E-04    0.14      27.7  T
   6    -84.6057146 -0.235634E-07  0.611E-05    0.14     249.5  T
   7    -84.6057146 -0.202178E-09  0.134E-05    0.14    1134.3  T
     SCC iter.                  ...        0 min,  0.027 sec
     gradient                   ...        0 min,  0.082 sec
 * total energy  :   -83.8519960 Eh     change       -0.2693763E-04 Eh
   gradient norm :     0.0017761 Eh/α   predicted    -0.1605301E-04 ( -40.41%)
   displ. norm   :     0.1727689 α      lambda       -0.6756395E-04
   maximum displ.:     0.0964432 α      in ANC's #7, #5, #19, ...

........................................................................
.............................. CYCLE   23 ..............................
........................................................................
   1    -84.6057545 -0.846058E+02  0.219E-02    0.13       0.0  T
   2    -84.6052241  0.530413E-03  0.683E-02    0.19       1.0  T
   3    -84.6058119 -0.587872E-03  0.796E-03    0.15       1.9  T
   4    -84.6058121 -0.123660E-06  0.642E-03    0.15       2.4  T
   5    -84.6058160 -0.395810E-05  0.137E-03    0.14      11.1  T
   6    -84.6058159  0.113699E-06  0.166E-03    0.14       9.2  T
   7    -84.6058162 -0.343656E-06  0.178E-04    0.14      85.7  T
   8    -84.6058162 -0.406963E-08  0.404E-05    0.14     377.3  T
     SCC iter.                  ...        0 min,  0.029 sec
     gradient                   ...        0 min,  0.082 sec
 * total energy  :   -83.8520406 Eh     change       -0.4462958E-04 Eh
   gradient norm :     0.0036931 Eh/α   predicted    -0.3423076E-04 ( -23.30%)
   displ. norm   :     0.0297246 α      lambda       -0.1745830E-04
   maximum displ.:     0.0158021 α      in ANC's #5, #6, #3, ...

........................................................................
.............................. CYCLE   24 ..............................
........................................................................
   1    -84.6058094 -0.846058E+02  0.135E-03    0.14       0.0  T
   2    -84.6058087  0.635796E-06  0.239E-03    0.14       6.4  T
   3    -84.6058091 -0.401839E-06  0.160E-03    0.14       9.5  T
   4    -84.6058095 -0.324019E-06  0.314E-04    0.14      48.5  T
   5    -84.6058095 -0.260229E-08  0.126E-04    0.14     121.3  T
   6    -84.6058095 -0.638281E-09  0.366E-05    0.14     416.6  T
     SCC iter.                  ...        0 min,  0.022 sec
     gradient                   ...        0 min,  0.082 sec
 * total energy  :   -83.8520562 Eh     change       -0.1560065E-04 Eh
   gradient norm :     0.0026639 Eh/α   predicted    -0.8737169E-05 ( -43.99%)
   displ. norm   :     0.1528557 α      lambda       -0.6116454E-04
   maximum displ.:     0.0802469 α      in ANC's #5, #6, #3, ...

........................................................................
.............................. CYCLE   25 ..............................
........................................................................
   1    -84.6054280 -0.846054E+02  0.626E-03    0.14       0.0  T
   2    -84.6054014  0.265770E-04  0.150E-02    0.15       1.0  T
   3    -84.6054269 -0.254541E-04  0.557E-03    0.14       2.7  T
   4    -84.6054307 -0.378775E-05  0.138E-03    0.14      11.1  T
   5    -84.6054308 -0.820011E-07  0.515E-04    0.14      29.6  T
   6    -84.6054308 -0.145103E-07  0.133E-04    0.14     114.4  T
   7    -84.6054308 -0.976911E-09  0.432E-05    0.14     352.6  T
     SCC iter.                  ...        0 min,  0.024 sec
     gradient                   ...        0 min,  0.082 sec
 * total energy  :   -83.8520931 Eh     change       -0.3689923E-04 Eh
   gradient norm :     0.0018122 Eh/α   predicted    -0.3130739E-04 ( -15.15%)
   displ. norm   :     0.1185903 α      lambda       -0.1465684E-04
   maximum displ.:     0.0621969 α      in ANC's #5, #6, #3, ...

........................................................................
.............................. CYCLE   26 ..............................
........................................................................
   1    -84.6051765 -0.846052E+02  0.491E-03    0.14       0.0  T
   2    -84.6051430  0.335388E-04  0.163E-02    0.15       1.0  T
   3    -84.6051783 -0.353323E-04  0.232E-03    0.14       6.6  T
   4    -84.6051789 -0.594742E-06  0.766E-04    0.14      19.9  T
   5    -84.6051789 -0.443061E-07  0.242E-04    0.14      63.0  T
   6    -84.6051789 -0.283862E-09  0.913E-05    0.14     167.0  T
   7    -84.6051789 -0.565279E-09  0.325E-05    0.14     469.5  T
     SCC iter.                  ...        0 min,  0.024 sec
     gradient                   ...        0 min,  0.054 sec
 * total energy  :   -83.8521100 Eh     change       -0.1688964E-04 Eh
   gradient norm :     0.0024566 Eh/α   predicted    -0.7375227E-05 ( -56.33%)
   displ. norm   :     0.1265698 α      lambda       -0.2988746E-04
   maximum displ.:     0.0650491 α      in ANC's #5, #6, #3, ...

........................................................................
.............................. CYCLE   27 ..............................
........................................................................
   1    -84.6051578 -0.846052E+02  0.397E-03    0.14       0.0  T
   2    -84.6051347  0.230187E-04  0.134E-02    0.15       1.1  T
   3    -84.6051590 -0.242310E-04  0.164E-03    0.14       9.3  T
   4    -84.6051593 -0.314131E-06  0.570E-04    0.14      26.8  T
   5    -84.6051593 -0.269242E-07  0.193E-04    0.14      78.8  T
   6    -84.6051593  0.255781E-09  0.746E-05    0.14     204.3  T
     SCC iter.                  ...        0 min,  0.020 sec
     gradient                   ...        0 min,  0.067 sec
 * total energy  :   -83.8521354 Eh     change       -0.2532399E-04 Eh
   gradient norm :     0.0020296 Eh/α   predicted    -0.1518379E-04 ( -40.04%)
   displ. norm   :     0.2912563 α      lambda       -0.5989418E-04
   maximum displ.:     0.1481851 α      in ANC's #5, #6, #3, ...

........................................................................
.............................. CYCLE   28 ..............................
........................................................................
   1    -84.6042445 -0.846042E+02  0.596E-03    0.14       0.0  T
   2    -84.6042157  0.287321E-04  0.151E-02    0.15       1.0  T
   3    -84.6042445 -0.287281E-04  0.433E-03    0.14       3.5  T
   4    -84.6042468 -0.237436E-05  0.117E-03    0.14      13.0  T
   5    -84.6042469 -0.879384E-07  0.428E-04    0.14      35.6  T
   6    -84.6042469 -0.175244E-08  0.102E-04    0.14     150.0  T
   7    -84.6042469 -0.498574E-09  0.274E-05    0.14     555.8  T
     SCC iter.                  ...        0 min,  0.020 sec
     gradient                   ...        0 min,  0.082 sec
 * total energy  :   -83.8521760 Eh     change       -0.4062322E-04 Eh
   gradient norm :     0.0031572 Eh/α   predicted    -0.3249987E-04 ( -20.00%)
   displ. norm   :     0.1556881 α      lambda       -0.3977921E-04
   maximum displ.:     0.0708545 α      in ANC's #3, #5, #6, ...

........................................................................
.............................. CYCLE   29 ..............................
........................................................................
   1    -84.6046549 -0.846047E+02  0.460E-03    0.14       0.0  T
   2    -84.6046149  0.399873E-04  0.176E-02    0.13       1.0  T
   3    -84.6046568 -0.418761E-04  0.192E-03    0.14       8.0  T
   4    -84.6046570 -0.191035E-06  0.115E-03    0.14      13.2  T
   5    -84.6046570 -0.855423E-07  0.396E-04    0.14      38.5  T
   6    -84.6046570 -0.774081E-08  0.641E-05    0.14     238.1  T
   7    -84.6046570 -0.145818E-09  0.241E-05    0.14     631.7  T
     SCC iter.                  ...        0 min,  0.027 sec
     gradient                   ...        0 min,  0.082 sec
 * total energy  :   -83.8522050 Eh     change       -0.2899456E-04 Eh
   gradient norm :     0.0027970 Eh/α   predicted    -0.2037231E-04 ( -29.74%)
   displ. norm   :     0.1871875 α      lambda       -0.3648604E-04
   maximum displ.:     0.0857557 α      in ANC's #5, #3, #6, ...

........................................................................
.............................. CYCLE   30 ..............................
........................................................................
   1    -84.6046562 -0.846047E+02  0.635E-03    0.15       0.0  T
   2    -84.6045568  0.993694E-04  0.274E-02    0.13       1.0  T
   3    -84.6046602 -0.103404E-03  0.255E-03    0.14       6.0  T
   4    -84.6046609 -0.686624E-06  0.699E-04    0.14      21.8  T
   5    -84.6046609  0.551950E-09  0.324E-04    0.14      47.1  T
   6    -84.6046609 -0.311503E-08  0.973E-05    0.14     156.8  T
   7    -84.6046609 -0.791943E-09  0.302E-05    0.14     505.5  T
     SCC iter.                  ...        0 min,  0.029 sec
     gradient                   ...        0 min,  0.082 sec
 * total energy  :   -83.8522337 Eh     change       -0.2876742E-04 Eh
   gradient norm :     0.0025326 Eh/α   predicted    -0.1888988E-04 ( -34.34%)
   displ. norm   :     0.2062569 α      lambda       -0.5057756E-04
   maximum displ.:     0.0928983 α      in ANC's #3, #5, #1, ...

........................................................................
.............................. CYCLE   31 ..............................
........................................................................
   1    -84.6056199 -0.846056E+02  0.133E-02    0.15       0.0  T
   2    -84.6051122  0.507706E-03  0.613E-02    0.12       1.0  T
   3    -84.6056352 -0.522993E-03  0.626E-03    0.15       2.4  T
   4    -84.6056399 -0.465117E-05  0.147E-03    0.14      10.4  T
   5    -84.6056399 -0.200796E-07  0.797E-04    0.14      19.1  T
   6    -84.6056399 -0.285355E-07  0.406E-04    0.14      37.5  T
   7    -84.6056399 -0.224317E-07  0.384E-05    0.14     397.0  T
   8    -84.6056399 -0.271569E-10  0.132E-05    0.14    1153.6  T
     SCC iter.                  ...        0 min,  0.031 sec
     gradient                   ...        0 min,  0.082 sec
 * total energy  :   -83.8522632 Eh     change       -0.2945417E-04 Eh
   gradient norm :     0.0022480 Eh/α   predicted    -0.2636816E-04 ( -10.48%)
   displ. norm   :     0.3442428 α      lambda       -0.4133160E-04
   maximum displ.:     0.1623013 α      in ANC's #5, #3, #6, ...

........................................................................
.............................. CYCLE   32 ..............................
........................................................................
   1    -84.6025747 -0.846026E+02  0.126E-02    0.15       0.0  T
   2    -84.6023033  0.271314E-03  0.451E-02    0.13       1.0  T
   3    -84.6025825 -0.279177E-03  0.687E-03    0.15       2.2  T
   4    -84.6025864 -0.388958E-05  0.256E-03    0.14       5.9  T
   5    -84.6025866 -0.174018E-06  0.492E-04    0.14      31.0  T
   6    -84.6025866 -0.253590E-08  0.174E-04    0.14      87.8  T
   7    -84.6025866 -0.514689E-09  0.746E-05    0.14     204.5  T
     SCC iter.                  ...        0 min,  0.027 sec
     gradient                   ...        0 min,  0.082 sec
 * total energy  :   -83.8522321 Eh     change        0.3105009E-04 Eh
   gradient norm :     0.0062903 Eh/α   predicted    -0.2311590E-04 (-174.45%)
   displ. norm   :     0.1934500 α      lambda       -0.1161753E-03
   maximum displ.:     0.0963895 α      in ANC's #5, #3, #6, ...

........................................................................
.............................. CYCLE   33 ..............................
........................................................................
   1    -84.6055075 -0.846055E+02  0.786E-03    0.14       0.0  T
   2    -84.6054828  0.246845E-04  0.144E-02    0.15       1.1  T
   3    -84.6055050 -0.221312E-04  0.650E-03    0.14       2.3  T
   4    -84.6055092 -0.423338E-05  0.165E-03    0.14       9.2  T
   5    -84.6055094 -0.199982E-06  0.507E-04    0.14      30.1  T
   6    -84.6055094 -0.172033E-07  0.121E-04    0.14     125.9  T
   7    -84.6055094 -0.517929E-09  0.291E-05    0.14     524.5  T
     SCC iter.                  ...        0 min,  0.025 sec
     gradient                   ...        0 min,  0.082 sec
 * total energy  :   -83.8522850 Eh     change       -0.5288446E-04 Eh
   gradient norm :     0.0015555 Eh/α   predicted    -0.6026309E-04 (  13.95%)
   displ. norm   :     0.0714825 α      lambda       -0.1015886E-04
   maximum displ.:     0.0326856 α      in ANC's #1, #3, #4, ...

........................................................................
.............................. CYCLE   34 ..............................
........................................................................
   1    -84.6057177 -0.846057E+02  0.240E-03    0.14       0.0  T
   2    -84.6057153  0.237109E-05  0.451E-03    0.14       3.4  T
   3    -84.6057170 -0.170613E-05  0.272E-03    0.15       5.6  T
   4    -84.6057180 -0.100432E-05  0.442E-04    0.14      34.5  T
   5    -84.6057180 -0.712744E-08  0.209E-04    0.14      72.9  T
   6    -84.6057180  0.728605E-09  0.900E-05    0.14     169.5  T
   7    -84.6057180 -0.952809E-09  0.108E-05    0.14    1406.0  T
     SCC iter.                  ...        0 min,  0.025 sec
     gradient                   ...        0 min,  0.082 sec
 * total energy  :   -83.8522984 Eh     change       -0.1333629E-04 Eh
   gradient norm :     0.0013580 Eh/α   predicted    -0.5094558E-05 ( -61.80%)
   displ. norm   :     0.3360956 α      lambda       -0.3771136E-04
   maximum displ.:     0.1511931 α      in ANC's #1, #4, #3, ...

........................................................................
.............................. CYCLE   35 ..............................
........................................................................
   1    -84.6047536 -0.846048E+02  0.799E-03    0.14       0.0  T
   2    -84.6047529  0.774856E-06  0.570E-03    0.15       2.7  T
   3    -84.6047335  0.193789E-04  0.129E-02    0.14       1.2  T
   4    -84.6047560 -0.225205E-04  0.209E-03    0.14       7.3  T
   5    -84.6047562 -0.191585E-06  0.782E-04    0.14      19.5  T
   6    -84.6047562  0.340084E-08  0.266E-04    0.14      57.2  T
   7    -84.6047562 -0.768560E-08  0.391E-05    0.14     389.6  T
   8    -84.6047562 -0.450910E-10  0.134E-05    0.14    1141.1  T
     SCC iter.                  ...        0 min,  0.030 sec
     gradient                   ...        0 min,  0.082 sec
 * total energy  :   -83.8523277 Eh     change       -0.2932979E-04 Eh
   gradient norm :     0.0031729 Eh/α   predicted    -0.1980382E-04 ( -32.48%)
   displ. norm   :     0.0324566 α      lambda       -0.1669207E-04
   maximum displ.:     0.0123373 α      in ANC's #5, #6, #8, ...

........................................................................
.............................. CYCLE   36 ..............................
........................................................................
   1    -84.6055470 -0.846055E+02  0.440E-03    0.14       0.0  T
   2    -84.6055092  0.377639E-04  0.171E-02    0.15       1.0  T
   3    -84.6055493 -0.401097E-04  0.978E-04    0.14      15.6  T
   4    -84.6055493 -0.145833E-08  0.528E-04    0.14      28.9  T
   5    -84.6055493 -0.316061E-08  0.247E-04    0.14      61.7  T
   6    -84.6055493 -0.631232E-08  0.422E-05    0.14     361.1  T
   7    -84.6055493 -0.107946E-09  0.114E-05    0.14    1339.9  T
     SCC iter.                  ...        0 min,  0.024 sec
     gradient                   ...        0 min,  0.082 sec
 * total energy  :   -83.8523401 Eh     change       -0.1244999E-04 Eh
   gradient norm :     0.0019538 Eh/α   predicted    -0.8356928E-05 ( -32.88%)
   displ. norm   :     0.1711789 α      lambda       -0.2296165E-04
   maximum displ.:     0.0895289 α      in ANC's #1, #4, #7, ...

........................................................................
.............................. CYCLE   37 ..............................
........................................................................
   1    -84.6065857 -0.846066E+02  0.722E-03    0.14       0.0  T
   2    -84.6064896  0.961338E-04  0.274E-02    0.16       1.0  T
   3    -84.6065922 -0.102591E-03  0.178E-03    0.14       8.6  T
   4    -84.6065924 -0.207955E-06  0.702E-04    0.14      21.7  T
   5    -84.6065924 -0.684901E-08  0.246E-04    0.14      62.1  T
   6    -84.6065924 -0.127031E-08  0.880E-05    0.14     173.4  T
   7    -84.6065924 -0.213518E-09  0.285E-05    0.14     535.7  T
     SCC iter.                  ...        0 min,  0.024 sec
     gradient                   ...        0 min,  0.082 sec
 * total energy  :   -83.8523633 Eh     change       -0.2319299E-04 Eh
   gradient norm :     0.0018774 Eh/α   predicted    -0.1163360E-04 ( -49.84%)
   displ. norm   :     0.2303253 α      lambda       -0.2270390E-04
   maximum displ.:     0.1179014 α      in ANC's #1, #4, #19, ...

........................................................................
.............................. CYCLE   38 ..............................
........................................................................
   1    -84.6062860 -0.846063E+02  0.346E-03    0.14       0.0  T
   2    -84.6062836  0.248810E-05  0.488E-03    0.14       3.1  T
   3    -84.6062833  0.286997E-06  0.488E-03    0.15       3.1  T
   4    -84.6062865 -0.318746E-05  0.809E-04    0.14      18.9  T
   5    -84.6062865 -0.207420E-07  0.212E-04    0.14      71.8  T
   6    -84.6062865 -0.875133E-09  0.744E-05    0.14     204.9  T
   7    -84.6062865 -0.163141E-09  0.179E-05    0.14     852.1  T
     SCC iter.                  ...        0 min,  0.024 sec
     gradient                   ...        0 min,  0.083 sec
 * total energy  :   -83.8523900 Eh     change       -0.2666444E-04 Eh
   gradient norm :     0.0018428 Eh/α   predicted    -0.1162488E-04 ( -56.40%)
   displ. norm   :     0.3338277 α      lambda       -0.3854353E-04
   maximum displ.:     0.1785767 α      in ANC's #1, #4, #19, ...

........................................................................
.............................. CYCLE   39 ..............................
........................................................................
   1    -84.6057089 -0.846057E+02  0.110E-02    0.15       0.0  T
   2    -84.6054499  0.259013E-03  0.439E-02    0.13       1.0  T
   3    -84.6057159 -0.265997E-03  0.615E-03    0.15       2.5  T
   4    -84.6057205 -0.459825E-05  0.161E-03    0.15       9.4  T
   5    -84.6057206 -0.107718E-06  0.471E-04    0.14      32.3  T
   6    -84.6057206 -0.156608E-07  0.653E-05    0.14     233.5  T
   7    -84.6057206 -0.275691E-10  0.401E-05    0.14     380.2  T
     SCC iter.                  ...        0 min,  0.024 sec
     gradient                   ...        0 min,  0.083 sec
 * total energy  :   -83.8524258 Eh     change       -0.3575524E-04 Eh
   gradient norm :     0.0030474 Eh/α   predicted    -0.2024227E-04 ( -43.39%)
   displ. norm   :     0.0749413 α      lambda       -0.2391792E-04
   maximum displ.:     0.0336186 α      in ANC's #1, #4, #2, ...

........................................................................
.............................. CYCLE   40 ..............................
........................................................................
   1    -84.6063404 -0.846063E+02  0.598E-03    0.15       0.0  T
   2    -84.6062634  0.770096E-04  0.240E-02    0.13       1.0  T
   3    -84.6063437 -0.803520E-04  0.216E-03    0.15       7.1  T
   4    -84.6063442 -0.439624E-06  0.757E-04    0.15      20.2  T
   5    -84.6063442 -0.663549E-08  0.264E-04    0.14      57.7  T
   6    -84.6063442 -0.298756E-08  0.753E-05    0.14     202.6  T
   7    -84.6063442 -0.390003E-09  0.126E-05    0.14    1212.1  T
     SCC iter.                  ...        0 min,  0.025 sec
     gradient                   ...        0 min,  0.083 sec
 * total energy  :   -83.8524434 Eh     change       -0.1762188E-04 Eh
   gradient norm :     0.0022946 Eh/α   predicted    -0.1202550E-04 ( -31.76%)
   displ. norm   :     0.3343390 α      lambda       -0.6337355E-04
   maximum displ.:     0.1800899 α      in ANC's #1, #4, #12, ...

........................................................................
.............................. CYCLE   41 ..............................
........................................................................
   1    -84.6054219 -0.846054E+02  0.209E-02    0.16       0.0  T
   2    -84.6037921  0.162979E-02  0.109E-01    0.11       1.0  T
   3    -84.6054632 -0.167104E-02  0.871E-03    0.15       1.8  T
   4    -84.6054727 -0.947923E-05  0.263E-03    0.15       5.8  T
   5    -84.6054732 -0.501560E-06  0.111E-03    0.15      13.7  T
   6    -84.6054732 -0.888247E-07  0.502E-04    0.15      30.4  T
   7    -84.6054733 -0.353466E-07  0.376E-05    0.15     405.8  T
   8    -84.6054733 -0.571418E-10  0.163E-05    0.15     933.2  T
     SCC iter.                  ...        0 min,  0.029 sec
     gradient                   ...        0 min,  0.082 sec
 * total energy  :   -83.8524854 Eh     change       -0.4204332E-04 Eh
   gradient norm :     0.0036778 Eh/α   predicted    -0.3518331E-04 ( -16.32%)
   displ. norm   :     0.1739890 α      lambda       -0.5307506E-04
   maximum displ.:     0.0843983 α      in ANC's #1, #4, #2, ...

........................................................................
.............................. CYCLE   42 ..............................
........................................................................
   1    -84.6056099 -0.846056E+02  0.136E-02    0.15       0.0  T
   2    -84.6050095  0.600421E-03  0.666E-02    0.12       1.0  T
   3    -84.6056318 -0.622340E-03  0.328E-03    0.15       4.7  T
   4    -84.6056333 -0.146679E-05  0.794E-04    0.15      19.2  T
   5    -84.6056332  0.397781E-07  0.697E-04    0.15      21.9  T
   6    -84.6056333 -0.291322E-07  0.371E-04    0.15      41.2  T
   7    -84.6056333 -0.182925E-07  0.237E-05    0.15     643.1  T
   8    -84.6056333 -0.128750E-10  0.855E-06    0.15    1782.8  T
     SCC iter.                  ...        0 min,  0.029 sec
     gradient                   ...        0 min,  0.082 sec
 * total energy  :   -83.8525237 Eh     change       -0.3824947E-04 Eh
   gradient norm :     0.0031510 Eh/α   predicted    -0.2734262E-04 ( -28.52%)
   displ. norm   :     0.1582026 α      lambda       -0.5084527E-04
   maximum displ.:     0.0701653 α      in ANC's #2, #1, #4, ...
 * RMSD in coord.:     0.4283435 α      energy gain  -0.6060569E-03 Eh

generating ANC from model Hessian ...
Using Lindh-Hessian (1995)
 Shifting diagonal of input Hessian by   9.838035192524337E-003
 Lowest  eigenvalues of input Hessian
    0.000000    0.000000    0.000000    0.000000    0.000000    0.000000
    0.010000    0.010176    0.010713    0.010929    0.011458    0.012207
    0.012432    0.013413    0.014313    0.014703    0.015296    0.016578
 Highest eigenvalues
    2.034766    2.075271    2.122562    2.130389    2.265243    2.408357
 

........................................................................
.............................. CYCLE   43 ..............................
........................................................................
   1    -84.6062263 -0.846062E+02  0.734E-03    0.15       0.0  T
   2    -84.6061136  0.112668E-03  0.295E-02    0.13       1.0  T
   3    -84.6062318 -0.118255E-03  0.221E-03    0.15       6.9  T
   4    -84.6062322 -0.407846E-06  0.123E-03    0.15      12.4  T
   5    -84.6062323 -0.838028E-07  0.542E-04    0.15      28.1  T
   6    -84.6062324 -0.179932E-07  0.131E-04    0.15     116.1  T
   7    -84.6062324 -0.202635E-08  0.175E-05    0.15     873.4  T
     SCC iter.                  ...        0 min,  0.024 sec
     gradient                   ...        0 min,  0.082 sec
 * total energy  :   -83.8525607 Eh     change       -0.3702745E-04 Eh
   gradient norm :     0.0026606 Eh/α   predicted     0.0000000E+00 (-100.00%)
   displ. norm   :     0.0276757 α      lambda       -0.1642888E-04
   maximum displ.:     0.0132865 α      in ANC's #6, #2, #4, ...

........................................................................
.............................. CYCLE   44 ..............................
........................................................................
   1    -84.6062305 -0.846062E+02  0.435E-03    0.15       0.0  T
   2    -84.6061933  0.372108E-04  0.170E-02    0.16       1.0  T
   3    -84.6062331 -0.397667E-04  0.870E-04    0.15      17.5  T
   4    -84.6062332 -0.591722E-07  0.346E-04    0.15      44.1  T
   5    -84.6062332 -0.881982E-09  0.119E-04    0.15     128.3  T
   6    -84.6062332 -0.275392E-09  0.299E-05    0.15     510.0  T
     SCC iter.                  ...        0 min,  0.021 sec
     gradient                   ...        0 min,  0.082 sec
 * total energy  :   -83.8525779 Eh     change       -0.1716967E-04 Eh
   gradient norm :     0.0013374 Eh/α   predicted    -0.1036017E-04 ( -39.66%)
   displ. norm   :     0.1427682 α      lambda       -0.4387066E-04
   maximum displ.:     0.0693799 α      in ANC's #6, #2, #4, ...

........................................................................
.............................. CYCLE   45 ..............................
........................................................................
   1    -84.6060131 -0.846060E+02  0.141E-02    0.14       0.0  T
   2    -84.6057268  0.286241E-03  0.481E-02    0.18       1.0  T
   3    -84.6060388 -0.311960E-03  0.432E-03    0.15       3.5  T
   4    -84.6060410 -0.222197E-05  0.116E-03    0.15      13.1  T
   5    -84.6060410 -0.199328E-07  0.563E-04    0.15      27.1  T
   6    -84.6060410 -0.131240E-07  0.236E-04    0.15      64.5  T
   7    -84.6060410 -0.601092E-08  0.254E-05    0.15     599.3  T
   8    -84.6060410 -0.461853E-11  0.112E-05    0.15    1357.7  T
     SCC iter.                  ...        0 min,  0.029 sec
     gradient                   ...        0 min,  0.082 sec
 * total energy  :   -83.8526097 Eh     change       -0.3179536E-04 Eh
   gradient norm :     0.0035741 Eh/α   predicted    -0.2213448E-04 ( -30.38%)
   displ. norm   :     0.0412629 α      lambda       -0.1475023E-04
   maximum displ.:     0.0202646 α      in ANC's #2, #6, #4, ...

........................................................................
.............................. CYCLE   46 ..............................
........................................................................
   1    -84.6061192 -0.846061E+02  0.381E-03    0.15       0.0  T
   2    -84.6060899  0.293592E-04  0.151E-02    0.14       1.0  T
   3    -84.6061208 -0.308814E-04  0.118E-03    0.15      13.0  T
   4    -84.6061209 -0.157110E-06  0.439E-04    0.15      34.8  T
   5    -84.6061209 -0.426861E-08  0.270E-04    0.15      56.4  T
   6    -84.6061209 -0.615577E-08  0.408E-05    0.15     373.4  T
   7    -84.6061209 -0.162871E-09  0.814E-06    0.15    1874.1  T
     SCC iter.                  ...        0 min,  0.025 sec
     gradient                   ...        0 min,  0.082 sec
 * total energy  :   -83.8526241 Eh     change       -0.1447799E-04 Eh
   gradient norm :     0.0027878 Eh/α   predicted    -0.7992626E-05 ( -44.79%)
   displ. norm   :     0.1822956 α      lambda       -0.5971695E-04
   maximum displ.:     0.0892324 α      in ANC's #2, #4, #6, ...

........................................................................
.............................. CYCLE   47 ..............................
........................................................................
   1    -84.6061346 -0.846061E+02  0.192E-02    0.16       0.0  T
   2    -84.6049673  0.116723E-02  0.931E-02    0.11       1.0  T
   3    -84.6061672 -0.119989E-02  0.887E-03    0.15       1.7  T
   4    -84.6061776 -0.103446E-04  0.215E-03    0.15       7.1  T
   5    -84.6061779 -0.282321E-06  0.137E-03    0.15      11.2  T
   6    -84.6061779 -0.881843E-07  0.792E-04    0.15      19.2  T
   7    -84.6061780 -0.835073E-07  0.128E-04    0.15     118.8  T
   8    -84.6061780 -0.190640E-08  0.270E-05    0.15     564.8  T
     SCC iter.                  ...        0 min,  0.028 sec
     gradient                   ...        0 min,  0.082 sec
 * total energy  :   -83.8526618 Eh     change       -0.3769510E-04 Eh
   gradient norm :     0.0019278 Eh/α   predicted    -0.3088303E-04 ( -18.07%)
   displ. norm   :     0.1425349 α      lambda       -0.1537789E-04
   maximum displ.:     0.0741911 α      in ANC's #2, #4, #6, ...

........................................................................
.............................. CYCLE   48 ..............................
........................................................................
   1    -84.6061723 -0.846062E+02  0.152E-02    0.16       0.0  T
   2    -84.6055431  0.629150E-03  0.687E-02    0.12       1.0  T
   3    -84.6061941 -0.650955E-03  0.635E-03    0.15       2.4  T
   4    -84.6061993 -0.523481E-05  0.148E-03    0.15      10.3  T
   5    -84.6061995 -0.197043E-06  0.664E-04    0.15      23.0  T
   6    -84.6061995 -0.129846E-07  0.357E-04    0.15      42.7  T
   7    -84.6061995 -0.161512E-07  0.446E-05    0.15     342.2  T
   8    -84.6061995 -0.124970E-09  0.148E-05    0.15    1031.6  T
     SCC iter.                  ...        0 min,  0.028 sec
     gradient                   ...        0 min,  0.082 sec
 * total energy  :   -83.8526782 Eh     change       -0.1631467E-04 Eh
   gradient norm :     0.0027358 Eh/α   predicted    -0.7758945E-05 ( -52.44%)
   displ. norm   :     0.0944989 α      lambda       -0.2190294E-04
   maximum displ.:     0.0520044 α      in ANC's #2, #4, #6, ...

........................................................................
.............................. CYCLE   49 ..............................
........................................................................
   1    -84.6065032 -0.846065E+02  0.999E-03    0.15       0.0  T
   2    -84.6062757  0.227525E-03  0.416E-02    0.13       1.0  T
   3    -84.6065132 -0.237595E-03  0.357E-03    0.15       4.3  T
   4    -84.6065149 -0.164870E-05  0.703E-04    0.15      21.7  T
   5    -84.6065149 -0.243955E-07  0.327E-04    0.15      46.6  T
   6    -84.6065149 -0.360700E-08  0.153E-04    0.15      99.7  T
   7    -84.6065149 -0.277592E-08  0.194E-05    0.15     787.8  T
     SCC iter.                  ...        0 min,  0.025 sec
     gradient                   ...        0 min,  0.082 sec
 * total energy  :   -83.8526969 Eh     change       -0.1870777E-04 Eh
   gradient norm :     0.0022016 Eh/α   predicted    -0.1104953E-04 ( -40.94%)
   displ. norm   :     0.2360818 α      lambda       -0.4499958E-04
   maximum displ.:     0.1285032 α      in ANC's #2, #4, #6, ...

........................................................................
.............................. CYCLE   50 ..............................
........................................................................
   1    -84.6064097 -0.846064E+02  0.184E-02    0.16       0.0  T
   2    -84.6056393  0.770397E-03  0.763E-02    0.12       1.0  T
   3    -84.6064324 -0.793072E-03  0.995E-03    0.16       1.5  T
   4    -84.6064450 -0.126105E-04  0.273E-03    0.15       5.6  T
   5    -84.6064458 -0.827984E-06  0.574E-04    0.15      26.6  T
   6    -84.6064458  0.208276E-07  0.427E-04    0.15      35.7  T
   7    -84.6064458 -0.231920E-07  0.462E-05    0.15     330.0  T
   8    -84.6064458 -0.149214E-10  0.243E-05    0.15     626.6  T
     SCC iter.                  ...        0 min,  0.027 sec
     gradient                   ...        0 min,  0.082 sec
 * total energy  :   -83.8527304 Eh     change       -0.3357020E-04 Eh
   gradient norm :     0.0019909 Eh/α   predicted    -0.2377467E-04 ( -29.18%)
   displ. norm   :     0.3437480 α      lambda       -0.3430896E-04
   maximum displ.:     0.1888817 α      in ANC's #2, #4, #5, ...

........................................................................
.............................. CYCLE   51 ..............................
........................................................................
   1    -84.6060605 -0.846061E+02  0.219E-02    0.16       0.0  T
   2    -84.6052416  0.818891E-03  0.794E-02    0.12       1.0  T
   3    -84.6060766 -0.834961E-03  0.143E-02    0.16       1.1  T
   4    -84.6061033 -0.267784E-04  0.355E-03    0.15       4.3  T
   5    -84.6061047 -0.134434E-05  0.867E-04    0.15      17.6  T
   6    -84.6061046  0.369372E-07  0.600E-04    0.15      25.4  T
   7    -84.6061047 -0.422521E-07  0.849E-05    0.15     179.7  T
   8    -84.6061047 -0.405521E-09  0.382E-05    0.15     399.6  T
     SCC iter.                  ...        0 min,  0.027 sec
     gradient                   ...        0 min,  0.082 sec
 * total energy  :   -83.8527485 Eh     change       -0.1804861E-04 Eh
   gradient norm :     0.0031993 Eh/α   predicted    -0.1805970E-04 (   0.06%)
   displ. norm   :     0.0695214 α      lambda       -0.3145371E-04
   maximum displ.:     0.0374531 α      in ANC's #6, #2, #4, ...

........................................................................
.............................. CYCLE   52 ..............................
........................................................................
   1    -84.6072912 -0.846073E+02  0.941E-03    0.15       0.0  T
   2    -84.6072012  0.900048E-04  0.276E-02    0.17       1.0  T
   3    -84.6073004 -0.992439E-04  0.262E-03    0.15       5.8  T
   4    -84.6073005 -0.112882E-06  0.168E-03    0.15       9.1  T
   5    -84.6073005 -0.378178E-07  0.848E-04    0.15      18.0  T
   6    -84.6073006 -0.864861E-07  0.147E-04    0.15     103.9  T
   7    -84.6073006 -0.242260E-08  0.373E-05    0.15     408.6  T
     SCC iter.                  ...        0 min,  0.024 sec
     gradient                   ...        0 min,  0.082 sec
 * total energy  :   -83.8527588 Eh     change       -0.1033041E-04 Eh
   gradient norm :     0.0024336 Eh/α   predicted    -0.1582068E-04 (  53.15%)
   displ. norm   :     0.0192678 α      lambda       -0.1194368E-04
   maximum displ.:     0.0070134 α      in ANC's #10, #5, #12, ...

........................................................................
.............................. CYCLE   53 ..............................
........................................................................
   1    -84.6069518 -0.846070E+02  0.452E-03    0.15       0.0  T
   2    -84.6069190  0.327670E-04  0.162E-02    0.16       1.0  T
   3    -84.6069545 -0.354647E-04  0.937E-04    0.15      16.3  T
   4    -84.6069545 -0.613421E-07  0.335E-04    0.15      45.6  T
   5    -84.6069545  0.160212E-08  0.145E-04    0.15     104.9  T
   6    -84.6069545 -0.209174E-08  0.459E-05    0.15     332.0  T
     SCC iter.                  ...        0 min,  0.021 sec
     gradient                   ...        0 min,  0.082 sec
 * total energy  :   -83.8527674 Eh     change       -0.8583015E-05 Eh
   gradient norm :     0.0011660 Eh/α   predicted    -0.5986932E-05 ( -30.25%)
   displ. norm   :     0.0550369 α      lambda       -0.9774199E-05
   maximum displ.:     0.0286325 α      in ANC's #4, #8, #10, ...

........................................................................
.............................. CYCLE   54 ..............................
........................................................................
   1    -84.6065471 -0.846065E+02  0.884E-03    0.15       0.0  T
   2    -84.6064348  0.112261E-03  0.302E-02    0.17       1.0  T
   3    -84.6065574 -0.122526E-03  0.215E-03    0.15       7.1  T
   4    -84.6065579 -0.495878E-06  0.587E-04    0.15      26.0  T
   5    -84.6065579  0.577297E-08  0.287E-04    0.15      53.1  T
   6    -84.6065579 -0.531652E-08  0.146E-04    0.15     104.3  T
   7    -84.6065579 -0.282030E-08  0.211E-05    0.15     723.1  T
     SCC iter.                  ...        0 min,  0.024 sec
     gradient                   ...        0 min,  0.082 sec
 * total energy  :   -83.8527752 Eh     change       -0.7826900E-05 Eh
   gradient norm :     0.0010975 Eh/α   predicted    -0.4900585E-05 ( -37.39%)
   displ. norm   :     0.0330414 α      lambda       -0.3536326E-05
   maximum displ.:     0.0146608 α      in ANC's #4, #6, #12, ...

........................................................................
.............................. CYCLE   55 ..............................
........................................................................
   1    -84.6066500 -0.846067E+02  0.209E-03    0.15       0.0  T
   2    -84.6066471  0.287718E-05  0.491E-03    0.15       3.1  T
   3    -84.6066501 -0.298032E-05  0.133E-03    0.15      11.5  T
   4    -84.6066503 -0.203964E-06  0.400E-04    0.15      38.1  T
   5    -84.6066503 -0.743505E-08  0.105E-04    0.15     145.3  T
   6    -84.6066503 -0.162089E-09  0.342E-05    0.15     446.3  T
     SCC iter.                  ...        0 min,  0.021 sec
     gradient                   ...        0 min,  0.082 sec
 * total energy  :   -83.8527793 Eh     change       -0.4098559E-05 Eh
   gradient norm :     0.0008099 Eh/α   predicted    -0.1779337E-05 ( -56.59%)
   displ. norm   :     0.0589988 α      lambda       -0.4371909E-05
   maximum displ.:     0.0273175 α      in ANC's #4, #5, #6, ...

   *** GEOMETRY OPTIMIZATION CONVERGED AFTER 55 ITERATIONS ***

------------------------------------------------------------------------
 total energy gain   :        -0.0283466 Eh      -17.7878 kcal/mol
 total RMSD          :         0.8497024 a0        0.4496 Å
 total power (kW/mol):        -1.3531649 (step)   -9.0296 (real)
------------------------------------------------------------------------

 ANCopt (total)                0 d,  0 h,  0 min,  8.242 sec
[...]
 N  N  Rav=1.3651 sigma=0.0000  Rmin=1.3651  Rmax=1.3651     1
 O  H  Rav=1.0103 sigma=0.0000  Rmin=1.0103  Rmax=1.0103     1
 O  C  Rav=1.3527 sigma=0.0625  Rmin=1.2260  Rmax=1.4184     9
 
 selected bond angles (degree)
 --------------------
H26-C1-O2=107.22               H27-C1-O2=111.27               H27-C1-H26=109.26              H28-C1-O2=111.35               
H28-C1-H26=109.26              H28-C1-H27=108.46              C3-O2-C1=114.96                O4-C3-O2=118.71                
C5-C3-O2=115.85                C5-C3-O4=125.44                C6-C5-C3=120.79                N25-C5-C3=121.30               
N25-C5-C6=117.82               O7-C6-C5=117.95                C8-C6-C5=119.57                C8-C6-O7=122.41                
H29-O7-C6=105.17               O9-C8-C6=128.90                N11-C8-C6=120.29               N11-C8-O9=110.69               
C10-O9-C8=117.18               H30-C10-O9=111.52              H31-C10-O9=106.82              H31-C10-H30=109.01             
H32-C10-O9=111.42              H32-C10-H30=108.86             H32-C10-H31=109.14             
 
 selected dihedral angles (degree)
 ---------------------------------
C3-O2-C1-H26=179.96           C3-O2-C1-H27= 60.54           C3-O2-C1-H28=299.42           O4-C3-O2-C1=  1.56            
C5-C3-O2-C1=181.10            C6-C5-C3-O2=178.81            C6-C5-C3-O4=358.32            N25-C5-C3-O2=  2.32           
N25-C5-C3-O4=181.83           O7-C6-C5-C3=357.54            O7-C6-C5-N25=174.15           C8-C6-C5-C3=180.27            
C8-C6-C5-N25=356.88           H29-O7-C6-C5=  2.29           H29-O7-C6-C8=179.48           O9-C8-C6-C5=178.36            
O9-C8-C6-O7=  1.22            N11-C8-C6-C5=353.91           N11-C8-C6-O7=176.76           C10-O9-C8-C6=324.37           
C10-O9-C8-N11=148.49          H30-C10-O9-C8= 77.02          H31-C10-O9-C8=196.04          H32-C10-O9-C8=315.15          
           -------------------------------------------------
          |                Final Singlepoint                |
           -------------------------------------------------

          ...................................................
          :                      SETUP                      :
          :.................................................:
          :  # basis functions                 136          :
          :  # atomic orbitals                 136          :
          :  # shells                           86          :
          :  # electrons                       136          :
          :  # halogen bonds                     0          :
          :  max. iterations                   250          :
          :  Hamiltonian                  GFN1-xTB          :
          :  restarted?                      false          :
          :  GBSA solvation                   true          :
          :  PC potential                    false          :
          :  electronic temp.          300.0000000     K    :
          :  accuracy                    1.0000000          :
          :  -> integral cutoff          0.2500000E+02      :
          :  -> integral neglect         0.1000000E-07      :
          :  -> SCF convergence          0.1000000E-05 Eh   :
          :  -> wf. convergence          0.2000000E-04 e    :
          :  Broyden damping             0.4000000          :
          ...................................................

 iter      E             dE          RMSdq      gap      omega  full diag
   1    -84.6066503 -0.846067E+02  0.714E-06    0.15       0.0  T
   2    -84.6066503  0.569855E-11  0.783E-06    0.15    1947.5  T
   3    -84.6066503  0.376588E-11  0.913E-06    0.15    1670.3  T

   *** convergence criteria satisfied after 3 iterations ***

         #    Occupation            Energy/Eh            Energy/eV
      -------------------------------------------------------------
         1        2.0000           -0.8502269             -23.1359
       ...           ...                  ...                  ...
        62        2.0000           -0.4372657             -11.8986
        63        2.0000           -0.4279076             -11.6440
        64        2.0000           -0.4226384             -11.5006
        65        2.0000           -0.4071317             -11.0786
        66        2.0000           -0.3859223             -10.5015
        67        2.0000           -0.3806184             -10.3572
        68        1.8979           -0.3021898              -8.2230 (HOMO)
        69        0.1021           -0.2966374              -8.0719 (LUMO)
        70                         -0.2465917              -6.7101
        71                         -0.2261064              -6.1527
        72                         -0.1872515              -5.0954
        73                         -0.1823998              -4.9634
       ...                                ...                  ...
       136                          0.7213711              19.6295
      -------------------------------------------------------------
                  HL-Gap            0.0055524 Eh            0.1511 eV
             Fermi-level           -0.2994136 Eh           -8.1475 eV

 SCC (total)                   0 d,  0 h,  0 min,  0.131 sec
 SCC setup                      ...        0 min,  0.002 sec (  1.365%)
 Dispersion                     ...        0 min,  0.000 sec (  0.260%)
 classical contributions        ...        0 min,  0.000 sec (  0.086%)
 integral evaluation            ...        0 min,  0.035 sec ( 26.952%)
 iterations                     ...        0 min,  0.011 sec (  8.260%)
 molecular gradient             ...        0 min,  0.082 sec ( 62.494%)
 printout                       ...        0 min,  0.001 sec (  0.555%)

         :::::::::::::::::::::::::::::::::::::::::::::::::::::
         ::                     SUMMARY                     ::
         :::::::::::::::::::::::::::::::::::::::::::::::::::::
         :: total energy             -83.852779317728 Eh    ::
         :: total w/o Gsasa/hb       -83.829608965956 Eh    ::
         :: gradient norm              0.000809662309 Eh/a0 ::
         :: HOMO-LUMO gap              0.151089820701 eV    ::
         ::.................................................::
         :: SCC energy               -84.606650340312 Eh    ::
         :: -> electrostatic           0.426029120955 Eh    ::
         :: -> Gsolv                  -0.106905117658 Eh    ::
         ::    -> Gelec               -0.083734765886 Eh    ::
         ::    -> Gsasa               -0.025813336880 Eh    ::
         ::    -> Ghb                 -0.004981293897 Eh    ::
         ::    -> Gshift               0.007624279005 Eh    ::
         :: repulsion energy           0.779156800064 Eh    ::
         :: dispersion energy         -0.025285777480 Eh    ::
         :: halogen bond corr.         0.000000000000 Eh    ::
         :: add. restraining           0.000000000000 Eh    ::
         :: total charge              -1.000000000000 e     ::
         :::::::::::::::::::::::::::::::::::::::::::::::::::::

           -------------------------------------------------
          |                Property Printout                |
           -------------------------------------------------

    * Orbital Energies and Occupations

         #    Occupation            Energy/Eh            Energy/eV
      -------------------------------------------------------------
         1        2.0000           -0.8502269             -23.1359
       ...           ...                  ...                  ...
        56        2.0000           -0.4699697             -12.7885
        57        2.0000           -0.4645071             -12.6399
        58        2.0000           -0.4562551             -12.4153
        59        2.0000           -0.4489628             -12.2169
        60        2.0000           -0.4466513             -12.1540
        61        2.0000           -0.4409463             -11.9988
        62        2.0000           -0.4372657             -11.8986
        63        2.0000           -0.4279076             -11.6440
        64        2.0000           -0.4226384             -11.5006
        65        2.0000           -0.4071317             -11.0786
        66        2.0000           -0.3859223             -10.5015
        67        2.0000           -0.3806184             -10.3572
        68        1.8979           -0.3021898              -8.2230 (HOMO)
        69        0.1021           -0.2966374              -8.0719 (LUMO)
        70                         -0.2465917              -6.7101
        71                         -0.2261064              -6.1527
        72                         -0.1872515              -5.0954
        73                         -0.1823998              -4.9634
        74                         -0.1388784              -3.7791
        75                         -0.1158308              -3.1519
        76                         -0.1134678              -3.0876
        77                         -0.1112427              -3.0271
        78                         -0.1056312              -2.8744
        79                         -0.0958380              -2.6079
       ...                                ...                  ...
       136                          0.7213711              19.6295
      -------------------------------------------------------------
                  HL-Gap            0.0055524 Eh            0.1511 eV
             Fermi-level           -0.2994136 Eh           -8.1475 eV

  Mulliken/CM5 charges         n(s)   n(p)   n(d)
     1C     0.18089  0.06259   0.965  2.854  0.000
     2O    -0.47667 -0.55604   1.698  4.778  0.000
     3C     0.47196  0.52738   0.964  2.564  0.000
     4O    -0.69377 -0.76698   1.744  4.950  0.000
     5C    -0.05458  0.01562   1.015  3.039  0.000
     6C     0.17078  0.20016   1.012  2.818  0.000
     7O    -0.58833 -0.77123   1.718  4.870  0.000
     8C     0.25198  0.33184   0.967  2.781  0.000
     9O    -0.46876 -0.54992   1.689  4.780  0.000
    10C     0.17422  0.05537   0.970  2.856  0.000
    11N    -0.39540 -0.72705   1.459  3.936  0.000
    12C     0.23663  0.38334   1.012  2.752  0.000
    13C     0.15154  0.19136   1.065  2.784  0.000
    14C    -0.08957 -0.22735   1.012  3.078  0.000
    15C    -0.10265 -0.24252   1.018  3.085  0.000
    16N    -0.34236 -0.69213   1.432  3.910  0.000
    17C     0.45383  0.56233   0.973  2.574  0.000
    18O    -0.59654 -0.64105   1.730  4.867  0.000
    19C     0.32284  0.44687   1.010  2.667  0.000
    20N    -0.26243 -0.37192   1.571  3.692  0.000
    21N    -0.27551 -0.38333   1.566  3.709  0.000
    22C     0.38224  0.49102   1.004  2.614  0.000
    23C    -0.11096 -0.24838   1.011  3.100  0.000
    24O    -0.35050 -0.40155   1.694  4.656  0.000
    25N    -0.39051 -0.57445   1.538  3.853  0.000
    26H     0.01703  0.07704   0.983  0.000  0.000
    27H     0.02084  0.08216   0.979  0.000  0.000
    28H     0.02020  0.08161   0.980  0.000  0.000
    29H     0.37577  0.56744   0.624  0.000  0.000
    30H     0.02558  0.08812   0.974  0.000  0.000
    31H     0.02416  0.08406   0.976  0.000  0.000
    32H     0.02149  0.08214   0.979  0.000  0.000
    33H     0.22485  0.42690   0.775  0.000  0.000
    34H     0.03274  0.09086   0.967  0.000  0.000
    35H     0.02986  0.08803   0.970  0.000  0.000
    36H     0.04070  0.10043   0.959  0.000  0.000
    37H     0.04907  0.10841   0.951  0.000  0.000
    38H     0.03535  0.09319   0.965  0.000  0.000
    39H     0.03636  0.09094   0.964  0.000  0.000
    40H     0.23674  0.44895   0.763  0.000  0.000
    41H     0.07313  0.12759   0.927  0.000  0.000
    42H     0.07361  0.12809   0.926  0.000  0.000
    43H     0.06417  0.12005   0.936  0.000  0.000

Wiberg/Mayer (AO) data.
largest (>0.10) Wiberg bond orders for each atom

 ---------------------------------------------------------------------------
     #   Z sym  total        # sym  WBO       # sym  WBO       # sym  WBO
 ---------------------------------------------------------------------------
     1   6 C    3.914 --    26 H    0.987    27 H    0.981    28 H    0.981
                             2 O    0.945
     2   8 O    2.072 --     3 C    0.954     1 C    0.945
     3   6 C    3.855 --     5 C    1.382     4 O    1.362     2 O    0.954
     4   8 O    1.795 --     3 C    1.362    29 H    0.121     5 C    0.110
     5   6 C    3.824 --     3 C    1.382    25 N    1.082     6 C    1.068
                             4 O    0.110
     6   6 C    3.900 --     8 C    1.637     5 C    1.068     7 O    1.032
     7   8 O    1.975 --     6 C    1.032    29 H    0.750
     8   6 C    3.799 --     6 C    1.637    11 N    0.969     9 O    0.962
     9   8 O    2.053 --     8 C    0.962    10 C    0.933
    10   6 C    3.907 --    31 H    0.985    32 H    0.982    30 H    0.980
                             9 O    0.933
    11   7 N    3.175 --    12 C    1.030     8 C    0.969    33 H    0.915
                            25 N    0.101
    12   6 C    3.933 --    25 N    1.720    11 N    1.030    13 C    0.975
    13   6 C    3.930 --    14 C    0.995    15 C    0.981    12 C    0.975
                            16 N    0.914
    14   6 C    3.994 --    13 C    0.995    35 H    0.986    34 H    0.984
                            36 H    0.984
    15   6 C    3.990 --    39 H    0.986    38 H    0.984    37 H    0.982
                            13 C    0.981
    16   7 N    3.332 --    17 C    1.256    13 C    0.914    40 H    0.895
                            18 O    0.173
    17   6 C    3.889 --    18 O    1.553    16 N    1.256    19 C    1.004
    18   8 O    1.858 --    17 C    1.553    16 N    0.173
    19   6 C    3.829 --    20 N    1.578    24 O    1.048    17 C    1.004
    20   7 N    2.960 --    19 C    1.578    21 N    1.191
    21   7 N    2.979 --    22 C    1.615    20 N    1.191
    22   6 C    3.863 --    21 N    1.615    24 O    1.077    23 C    1.029
    23   6 C    3.989 --    22 C    1.029    43 H    0.983    42 H    0.965
                            41 H    0.965
    24   8 O    2.300 --    22 C    1.077    19 C    1.048
    25   7 N    3.034 --    12 C    1.720     5 C    1.082    11 N    0.101
    26   1 H    1.019 --     1 C    0.987
    27   1 H    1.018 --     1 C    0.981
    28   1 H    1.019 --     1 C    0.981
    29   1 H    0.884 --     7 O    0.750     4 O    0.121
    30   1 H    1.025 --    10 C    0.980
    31   1 H    1.018 --    10 C    0.985
    32   1 H    1.012 --    10 C    0.982
    33   1 H    0.960 --    11 N    0.915
    34   1 H    1.018 --    14 C    0.984
    35   1 H    1.011 --    14 C    0.986
    36   1 H    1.014 --    14 C    0.984
    37   1 H    1.010 --    15 C    0.982
    38   1 H    1.004 --    15 C    0.984
    39   1 H    1.005 --    15 C    0.986
    40   1 H    0.970 --    16 N    0.895
    41   1 H    0.998 --    23 C    0.965
    42   1 H    0.998 --    23 C    0.965
    43   1 H    1.000 --    23 C    0.983
 ---------------------------------------------------------------------------

Topologies differ in total number of bonds
Writing topology from bond orders to xtbtopo.mol

 dipole moment from electron density (au)
     X       Y       Z   
   4.6181  -1.5917   0.5735  total (Debye):   12.501

           -------------------------------------------------
          |                Geometry Summary                 |
           -------------------------------------------------

      molecular mass/u    :      352.3231817
   center of mass at/Å    :        0.0563362       0.0205884      -0.0377427
  moments of inertia/u·Å² :        0.1373193E+04   0.4912821E+04   0.5642831E+04
rotational constants/cm⁻¹ :        0.1227623E-01   0.3431355E-02   0.2987442E-02

 * 36 selected distances

     #   Z          #   Z                                           value/Å
     1   6 C        2   8 O                                       1.4147277
     2   8 O        3   6 C                                       1.3962997
     3   6 C        5   6 C                                       1.3858554
     6   6 C        7   8 O                                       1.3700417
     6   6 C        8   6 C                                       1.3424418
     8   6 C        9   8 O                                       1.3872251
     9   8 O       10   6 C                                       1.4184429
    11   7 N       12   6 C                                       1.4148962
    13   6 C       14   6 C                                       1.5323710
    13   6 C       15   6 C                                       1.5373759 (max)
    13   6 C       16   7 N                                       1.4693766
    16   7 N       17   6 C                                       1.3475316
    17   6 C       18   8 O                                       1.2259599
    19   6 C       20   7 N                                       1.3048223
    21   7 N       22   6 C                                       1.2964322
    22   6 C       23   6 C                                       1.4804548
    19   6 C       24   8 O                                       1.3519459
    22   6 C       24   8 O                                       1.3433582
    12   6 C       25   7 N                                       1.2715979
     1   6 C       26   1 H                                       1.0913905
     1   6 C       27   1 H                                       1.0969918
     1   6 C       28   1 H                                       1.0970901
    10   6 C       30   1 H                                       1.0970163
    10   6 C       31   1 H                                       1.0922886
    10   6 C       32   1 H                                       1.0968116
    11   7 N       33   1 H                                       1.0115356 (min)
    14   6 C       34   1 H                                       1.0895992
    14   6 C       35   1 H                                       1.0899945
    14   6 C       36   1 H                                       1.0881723
    15   6 C       37   1 H                                       1.0888560
    15   6 C       38   1 H                                       1.0888793
    15   6 C       39   1 H                                       1.0891164
    16   7 N       40   1 H                                       1.0123503
    23   6 C       41   1 H                                       1.0897605
    23   6 C       42   1 H                                       1.0897989
    23   6 C       43   1 H                                       1.0870378

 * 5 distinct bonds (by element types)

   Z      Z             #   av. dist./Å        max./Å        min./Å
   1 H    6 C          15     1.0915203     1.0970901     1.0870378
   6 C    6 C           5     1.4556998     1.5373759     1.3424418
   1 H    7 N           2     1.0119430     1.0123503     1.0115356
   6 C    7 N           6     1.3507761     1.4693766     1.2715979
   6 C    8 O           8     1.3635001     1.4184429     1.2259599


optimized geometry written to: xtbopt.xyz


           -------------------------------------------------
          | TOTAL ENERGY              -83.852779317728 Eh   |
          | GRADIENT NORM               0.000809662309 Eh/α |
          | HOMO-LUMO GAP               0.151089820701 eV   |
           -------------------------------------------------

------------------------------------------------------------------------
 * finished run on 2023/06/20 at 15:16:10.748     
------------------------------------------------------------------------
 total:
 * wall-time:     0 d,  0 h,  0 min,  8.677 sec
 *  cpu-time:     0 d,  0 h,  0 min,  8.579 sec
 * ratio c/w:     0.989 speedup
 SCF:
 * wall-time:     0 d,  0 h,  0 min,  0.196 sec
 *  cpu-time:     0 d,  0 h,  0 min,  0.195 sec
 * ratio c/w:     0.997 speedup
 ANC optimizer:
 * wall-time:     0 d,  0 h,  0 min,  8.382 sec
 *  cpu-time:     0 d,  0 h,  0 min,  8.332 sec
 * ratio c/w:     0.994 speedup

